   * xtb version 6.5.1 (579679a) compiled by 'ehlert@majestix' on 2022-07-11
          program call               : /lustre/hpc/kemi/ree/PhD/git/ReactivityQM/dep/xtb-6.5.1/bin/xtb --gfn 1 /lustre/hpc/kemi/ree/PhD/git/ReactivityQM/calculations/RaltegravirCLI/reac01prodN05/conf05/RaltegravirCLI_reac01prodN05_conf05_gfn1.xyz --opt --vfukui --chrg 1 --uhf 0 --alpb DMSO

   ID    Z sym.   atoms
    1    6 C      1, 2, 5-7
    2    7 N      3, 4
    3    8 O      8, 10
    4   17 Cl     9
    5    1 H      11-16

      * Solvation model:               ALPB
        Solvent                        DMSO
        Solvent mass                       7.8130E+01 g/mol
          :  Hamiltonian                  GFN1-xTB          :
 * total energy  :   -33.3755590 Eh     change       -0.2330580E-11 Eh
 * total energy  :   -33.3839447 Eh     change       -0.8385732E-02 Eh
 * total energy  :   -33.3874527 Eh     change       -0.3507994E-02 Eh
 * total energy  :   -33.3877646 Eh     change       -0.3118700E-03 Eh
 * total energy  :   -33.3878934 Eh     change       -0.1287883E-03 Eh
 * total energy  :   -33.3879351 Eh     change       -0.4170163E-04 Eh
 * total energy  :   -33.3880254 Eh     change       -0.9035916E-04 Eh
 * total energy  :   -33.3881725 Eh     change       -0.1470248E-03 Eh
 * total energy  :   -33.3883254 Eh     change       -0.1529614E-03 Eh
 * total energy  :   -33.3885376 Eh     change       -0.2122105E-03 Eh
 * total energy  :   -33.3919901 Eh     change       -0.1075674E-04 Eh
 * total energy  :   -33.3920048 Eh     change       -0.1473396E-04 Eh
 * total energy  :   -33.3920136 Eh     change       -0.8771306E-05 Eh
 * total energy  :   -33.3920221 Eh     change       -0.8529572E-05 Eh
 * total energy  :   -33.3920276 Eh     change       -0.5537116E-05 Eh
 * total energy  :   -33.3920368 Eh     change       -0.9115068E-05 Eh
 * total energy  :   -33.3920446 Eh     change       -0.7809069E-05 Eh
 * total energy  :   -33.3920504 Eh     change       -0.5822249E-05 Eh
 * total energy  :   -33.3920536 Eh     change       -0.3199617E-05 Eh
   *** GEOMETRY OPTIMIZATION CONVERGED AFTER 49 ITERATIONS ***

 final structure:
================
16
 xtb: 6.5.1 (579679a)
C            2.66617970230620        0.46726988362700       -0.05757148618808
C            1.27439781313783        0.24618081730717        0.29952071536801
N            0.77018193351230        0.24770121700217        1.58047081020516
N           -0.47043215336346        0.04000576666879        1.50768739212498
C           -0.85005778240418       -0.14624529618361        0.15664341873058
C           -1.95466569204128        0.78393857010912       -0.34294651162854
C           -1.39581218376332       -1.65112942041833        0.07842279488305
O           -2.45370677283048       -1.87659176925652        0.55531693630212
Cl          -0.38152832142078       -2.74396789864667       -0.68355966046077
O            0.34663088076476        0.02326578339957       -0.55761718646950
H            2.94236647088710        1.48556451613847        0.23399199156059
H            3.30401792768265       -0.20250196449197        0.52381164906667
H            2.82427465548458        0.32955028830050       -1.12472260370123
H           -2.85729640086374        0.59596285653490        0.23491992834024
H           -1.62856622713373        1.81317654872801       -0.21140698080515
H           -2.13598484995395        0.58782010118094       -1.39702220732835

          :  Hamiltonian                  GFN1-xTB          :
         :: total energy             -33.392053583169 Eh    ::
         :: gradient norm              0.000632319800 Eh/a0 ::
         :: HOMO-LUMO gap              2.035009839262 eV    ::
         :: SCC energy               -33.670775306517 Eh    ::
         :: -> Gsolv                  -0.085289579784 Eh    ::
         :: repulsion energy           0.286687964556 Eh    ::

    * Orbital Energies and Occupations

         #    Occupation            Energy/Eh            Energy/eV
      -------------------------------------------------------------
         1        2.0000           -1.0049558             -27.3462
       ...           ...                  ...                  ...
        15        2.0000           -0.6379852             -17.3605
        16        2.0000           -0.6145913             -16.7239
        17        2.0000           -0.6051031             -16.4657
        18        2.0000           -0.6037007             -16.4275
        19        2.0000           -0.5865171             -15.9599
        20        2.0000           -0.5828811             -15.8610
        21        2.0000           -0.5753398             -15.6558
        22        2.0000           -0.5702515             -15.5173
        23        2.0000           -0.5676773             -15.4473
        24        2.0000           -0.5362275             -14.5915
        25        2.0000           -0.5340454             -14.5321
        26        2.0000           -0.5247166             -14.2783
        27        2.0000           -0.5138976             -13.9839 (HOMO)
        28                         -0.4391124             -11.9489 (LUMO)
        29                         -0.3575012              -9.7281
        30                         -0.3397191              -9.2442
        31                         -0.2513312              -6.8391
        32                         -0.1822696              -4.9598
        33                         -0.1642431              -4.4693
        34                         -0.1374384              -3.7399
        35                         -0.1298143              -3.5324
        36                         -0.1285127              -3.4970
        37                         -0.1142104              -3.1078
        38                         -0.1106499              -3.0109
       ...                                ...                  ...
        57                          0.7167099              19.5027
      -------------------------------------------------------------
                  HL-Gap            0.0747852 Eh            2.0350 eV

Wiberg/Mayer (AO) data.
largest (>0.10) Wiberg bond orders for each atom

     #   Z sym  total        # sym  WBO       # sym  WBO       # sym  WBO
 ---------------------------------------------------------------------------
     1   6 C    3.961 --     2 C    1.091    13 H    0.970    12 H    0.922
                            11 H    0.905
     2   6 C    3.799 --    10 O    1.290     3 N    1.183     1 C    1.091
     3   7 N    3.024 --     4 N    1.671     2 C    1.183
     4   7 N    3.012 --     3 N    1.671     5 C    1.078
     5   6 C    3.840 --     4 N    1.078     6 C    0.914    10 O    0.908
                             7 C    0.776
     6   6 C    3.942 --    16 H    0.977    15 H    0.974    14 H    0.973
                             5 C    0.914
     7   6 C    3.876 --     8 O    1.836     9 Cl   1.152     5 C    0.776
     8   8 O    2.138 --     7 C    1.836     9 Cl   0.157
     9  17 Cl   1.405 --     7 C    1.152     8 O    0.157
    10   8 O    2.380 --     2 C    1.290     5 C    0.908
    11   1 H    0.973 --     1 C    0.905
    12   1 H    0.978 --     1 C    0.922
    13   1 H    0.984 --     1 C    0.970
    14   1 H    0.993 --     6 C    0.973
    15   1 H    0.989 --     6 C    0.974
    16   1 H    0.989 --     6 C    0.977
 ---------------------------------------------------------------------------

           -------------------------------------------------
          | TOTAL ENERGY              -33.392053583169 Eh   |
          | GRADIENT NORM               0.000632319800 Eh/α |
          | HOMO-LUMO GAP               2.035009839262 eV   |
           -------------------------------------------------

 * finished run on 2023/06/20 at 14:54:58.309
