                         Program Version 5.0.1 -  RELEASE  -
|  1> # ORCA input file
|  2> ! SP r2SCAN-3c CPCM
|  3>
|  4> %maxcore 1875.0
|  5> %pal nprocs 4 end
|  6> %cpcm smd true SMDsolvent "DMSO" end
|  7>
|  8> *xyz -1 1
|  9> C      -4.198527    1.426487    0.073815
| 10> N      -2.839295    1.209976    0.571616
| 11> C      -2.298543    2.288678    1.235696
| 12> O      -3.004684    3.310287    1.472202
| 13> C      -0.893012    2.138279    1.508155
| 14> O      -0.151527    3.270352    1.681361
| 15> C      -0.293401    0.886094    1.450185
| 16> C       1.118884    0.697801    1.582423
| 17> O       1.929813    1.628835    1.796938
| 18> N       1.549492   -0.618321    1.581215
| 19> C       2.971008   -0.897454    1.453373
| 20> C       3.446902   -0.704831    0.027718
| 21> C       3.414192   -1.765376   -0.874821
| 22> C       3.837179   -1.594954   -2.186416
| 23> C       4.285584   -0.345212   -2.571325
| 24> F       4.703561   -0.171740   -3.840056
| 25> C       4.326820    0.732496   -1.705361
| 26> C       3.901178    0.542126   -0.398489
| 27> N      -1.149388   -0.275047    1.370657
| 28> C      -1.655409   -0.671707    2.704391
| 29> C      -2.244394   -0.045485    0.448509
| 30> C      -2.054812   -0.614137   -0.956373
| 31> C      -1.093524   -1.813169   -0.913896
| 32> C      -1.517613    0.436349   -1.948938
| 33> N      -3.359836   -1.080314   -1.465666
| 34> H      -4.236942    2.345540   -0.516695
| 35> H      -4.507976    0.583286   -0.539785
| 36> H      -4.883879    1.531111    0.920602
| 37> H       0.788207    2.983040    1.801010
| 38> H       0.932495   -1.283194    1.132524
| 39> H       3.512250   -0.222852    2.124968
| 40> H       3.143027   -1.928800    1.773523
| 41> H       3.064738   -2.739464   -0.552962
| 42> H       3.823730   -2.413655   -2.893622
| 43> H       4.688703    1.693520   -2.047941
| 44> H       3.923495    1.371900    0.299740
| 45> H      -2.240559    0.128000    3.176864
| 46> H      -2.286535   -1.551142    2.576189
| 47> H      -0.807790   -0.922316    3.343736
| 48> H      -0.079846   -1.489774   -0.675859
| 49> H      -1.079753   -2.314514   -1.881533
| 50> H      -1.417738   -2.525300   -0.155939
| 51> H      -0.575433    0.844181   -1.581364
| 52> H      -1.347502   -0.017576   -2.925648
| 53> H      -2.235157    1.249259   -2.064443
| 54> H      -3.666530   -1.854505   -0.890824
| 55> H      -3.241651   -1.436758   -2.404605
| 56> **                         ****END OF INPUT****

CARTESIAN COORDINATES (ANGSTROEM)
---------------------------------
  C     -4.198527    1.426487    0.073815
  N     -2.839295    1.209976    0.571616
  C     -2.298543    2.288678    1.235696
  O     -3.004684    3.310287    1.472202
  C     -0.893012    2.138279    1.508155
  O     -0.151527    3.270352    1.681361
  C     -0.293401    0.886094    1.450185
  C      1.118884    0.697801    1.582423
  O      1.929813    1.628835    1.796938
  N      1.549492   -0.618321    1.581215
  C      2.971008   -0.897454    1.453373
  C      3.446902   -0.704831    0.027718
  C      3.414192   -1.765376   -0.874821
  C      3.837179   -1.594954   -2.186416
  C      4.285584   -0.345212   -2.571325
  F      4.703561   -0.171740   -3.840056
  C      4.326820    0.732496   -1.705361
  C      3.901178    0.542126   -0.398489
  N     -1.149388   -0.275047    1.370657
  C     -1.655409   -0.671707    2.704391
  C     -2.244394   -0.045485    0.448509
  C     -2.054812   -0.614137   -0.956373
  C     -1.093524   -1.813169   -0.913896
  C     -1.517613    0.436349   -1.948938
  N     -3.359836   -1.080314   -1.465666
  H     -4.236942    2.345540   -0.516695
  H     -4.507976    0.583286   -0.539785
  H     -4.883879    1.531111    0.920602
  H      0.788207    2.983040    1.801010
  H      0.932495   -1.283194    1.132524
  H      3.512250   -0.222852    2.124968
  H      3.143027   -1.928800    1.773523
  H      3.064738   -2.739464   -0.552962
  H      3.823730   -2.413655   -2.893622
  H      4.688703    1.693520   -2.047941
  H      3.923495    1.371900    0.299740
  H     -2.240559    0.128000    3.176864
  H     -2.286535   -1.551142    2.576189
  H     -0.807790   -0.922316    3.343736
  H     -0.079846   -1.489774   -0.675859
  H     -1.079753   -2.314514   -1.881533
  H     -1.417738   -2.525300   -0.155939
  H     -0.575433    0.844181   -1.581364
  H     -1.347502   -0.017576   -2.925648
  H     -2.235157    1.249259   -2.064443
  H     -3.666530   -1.854505   -0.890824
  H     -3.241651   -1.436758   -2.404605

 Total Charge           Charge          ....   -1
 Multiplicity           Mult            ....    1
 Number of Electrons    NEL             ....  186
 Basis Dimension        Dim             ....  625

ORBITAL ENERGIES
----------------

  NO   OCC          E(Eh)            E(eV)
   0   2.0000     -24.499465      -666.6643
   1   2.0000     -18.952637      -515.7275
   2   2.0000     -18.905210      -514.4369
   3   2.0000     -18.861595      -513.2501
   4   2.0000     -14.179836      -385.8530
   5   2.0000     -14.163022      -385.3954
   6   2.0000     -14.142834      -384.8461
   7   2.0000     -14.116032      -384.1167
   8   2.0000     -10.115536      -275.2577
   9   2.0000     -10.107889      -275.0496
  10   2.0000     -10.075120      -274.1580
  11   2.0000     -10.070536      -274.0332
  12   2.0000     -10.056339      -273.6469
  13   2.0000     -10.048530      -273.4344
  14   2.0000     -10.038847      -273.1709
  15   2.0000     -10.038361      -273.1577
  16   2.0000     -10.037835      -273.1434
  17   2.0000     -10.037326      -273.1295
  18   2.0000     -10.035501      -273.0799
  19   2.0000     -10.029447      -272.9151
  20   2.0000     -10.029083      -272.9052
  21   2.0000     -10.025480      -272.8072
  22   2.0000     -10.024457      -272.7794
  23   2.0000     -10.000331      -272.1228
  24   2.0000      -9.997468      -272.0449
  25   2.0000      -1.189524       -32.3686
  26   2.0000      -1.002343       -27.2751
  27   2.0000      -0.975837       -26.5539
  28   2.0000      -0.947945       -25.7949
  29   2.0000      -0.894461       -24.3395
  30   2.0000      -0.871465       -23.7138
  31   2.0000      -0.840542       -22.8723
  32   2.0000      -0.834843       -22.7172
  33   2.0000      -0.828067       -22.5329
  34   2.0000      -0.733559       -19.9612
  35   2.0000      -0.723333       -19.6829
  36   2.0000      -0.712599       -19.3908
  37   2.0000      -0.700123       -19.0513
  38   2.0000      -0.669711       -18.2238
  39   2.0000      -0.643328       -17.5059
  40   2.0000      -0.636410       -17.3176
  41   2.0000      -0.633523       -17.2390
  42   2.0000      -0.590671       -16.0730
  43   2.0000      -0.588052       -16.0017
  44   2.0000      -0.579830       -15.7780
  45   2.0000      -0.561492       -15.2790
  46   2.0000      -0.529286       -14.4026
  47   2.0000      -0.515950       -14.0397
  48   2.0000      -0.511491       -13.9184
  49   2.0000      -0.487117       -13.2551
  50   2.0000      -0.473077       -12.8731
  51   2.0000      -0.463799       -12.6206
  52   2.0000      -0.456557       -12.4235
  53   2.0000      -0.446371       -12.1464
  54   2.0000      -0.439394       -11.9565
  55   2.0000      -0.432427       -11.7669
  56   2.0000      -0.424290       -11.5455
  57   2.0000      -0.412982       -11.2378
  58   2.0000      -0.408745       -11.1225
  59   2.0000      -0.406617       -11.0646
  60   2.0000      -0.397465       -10.8156
  61   2.0000      -0.395646       -10.7661
  62   2.0000      -0.385256       -10.4834
  63   2.0000      -0.379474       -10.3260
  64   2.0000      -0.378889       -10.3101
  65   2.0000      -0.370533       -10.0827
  66   2.0000      -0.369268       -10.0483
  67   2.0000      -0.364766        -9.9258
  68   2.0000      -0.354386        -9.6433
  69   2.0000      -0.350420        -9.5354
  70   2.0000      -0.345925        -9.4131
  71   2.0000      -0.340602        -9.2683
  72   2.0000      -0.335861        -9.1392
  73   2.0000      -0.333428        -9.0730
  74   2.0000      -0.329869        -8.9762
  75   2.0000      -0.327634        -8.9154
  76   2.0000      -0.322749        -8.7825
  77   2.0000      -0.318170        -8.6579
  78   2.0000      -0.316782        -8.6201
  79   2.0000      -0.306291        -8.3346
  80   2.0000      -0.301868        -8.2142
  81   2.0000      -0.290457        -7.9037
  82   2.0000      -0.286820        -7.8048
  83   2.0000      -0.244099        -6.6423
  84   2.0000      -0.237038        -6.4501
  85   2.0000      -0.226033        -6.1507
  86   2.0000      -0.220343        -5.9958
  87   2.0000      -0.213974        -5.8225
  88   2.0000      -0.196593        -5.3496
  89   2.0000      -0.191926        -5.2226
  90   2.0000      -0.182811        -4.9745
  91   2.0000      -0.169690        -4.6175
  92   2.0000      -0.098646        -2.6843
  93   0.0000      -0.054020        -1.4700
  94   0.0000      -0.038974        -1.0605
  95   0.0000      -0.026146        -0.7115
  96   0.0000       0.040323         1.0972
  97   0.0000       0.055616         1.5134

MULLIKEN ATOMIC CHARGES
-----------------------
   0 C :   -0.481224
   1 N :    0.303669
   2 C :   -0.107175
   3 O :   -0.483764
   4 C :    0.001358
   5 O :   -0.380045
   6 C :   -0.048256
   7 C :    0.102894
   8 O :   -0.540081
   9 N :   -0.172765
  10 C :   -0.380149
  11 C :    0.092460
  12 C :   -0.209557
  13 C :   -0.298406
  14 C :    0.362541
  15 F :   -0.240912
  16 C :   -0.321680
  17 C :   -0.170904
  18 N :    0.044092
  19 C :   -0.404276
  20 C :   -0.531056
  21 C :    0.372135
  22 C :   -0.612216
  23 C :   -0.607134
  24 N :   -0.658695
  25 H :    0.170655
  26 H :    0.202023
  27 H :    0.166985
  28 H :    0.364915
  29 H :    0.314300
  30 H :    0.202064
  31 H :    0.180342
  32 H :    0.187680
  33 H :    0.195184
  34 H :    0.195308
  35 H :    0.201961
  36 H :    0.158608
  37 H :    0.161528
  38 H :    0.156072
  39 H :    0.153218
  40 H :    0.158700
  41 H :    0.171578
  42 H :    0.170636
  43 H :    0.159889
  44 H :    0.169759
  45 H :    0.260464
  46 H :    0.267276
Sum of atomic charges:   -1.0000000

LOEWDIN ATOMIC CHARGES
----------------------
   0 C :   -0.124366
   1 N :   -0.738699
   2 C :    0.305901
   3 O :   -0.601867
   4 C :    0.252456
   5 O :   -0.498354
   6 C :    0.126993
   7 C :    0.348298
   8 O :   -0.583230
   9 N :   -0.644976
  10 C :   -0.015676
  11 C :   -0.084080
  12 C :   -0.149135
  13 C :   -0.164233
  14 C :    0.197273
  15 F :   -0.301192
  16 C :   -0.163732
  17 C :   -0.142149
  18 N :   -0.887576
  19 C :   -0.146223
  20 C :    0.203597
  21 C :    0.047625
  22 C :   -0.382623
  23 C :   -0.379613
  24 N :   -0.748816
  25 H :    0.180894
  26 H :    0.200428
  27 H :    0.180131
  28 H :    0.303637
  29 H :    0.285897
  30 H :    0.203928
  31 H :    0.194604
  32 H :    0.186059
  33 H :    0.193031
  34 H :    0.192896
  35 H :    0.194096
  36 H :    0.161259
  37 H :    0.173716
  38 H :    0.170973
  39 H :    0.159552
  40 H :    0.155086
  41 H :    0.163695
  42 H :    0.163663
  43 H :    0.156849
  44 H :    0.165498
  45 H :    0.244341
  46 H :    0.244160

  Mayer bond orders larger than 0.100000
B(  0-C ,  1-N ) :   0.8454 B(  0-C , 25-H ) :   0.9598 B(  0-C , 26-H ) :   0.9446
B(  0-C , 27-H ) :   0.9480 B(  1-N ,  2-C ) :   1.1321 B(  1-N , 20-C ) :   1.0371
B(  2-C ,  3-O ) :   1.8263 B(  2-C ,  4-C ) :   1.1054 B(  2-C , 20-C ) :   0.1082
B(  4-C ,  5-O ) :   1.1170 B(  4-C ,  6-C ) :   1.2392 B(  4-C , 20-C ) :   0.1396
B(  5-O , 28-H ) :   0.7525 B(  6-C ,  7-C ) :   1.1683 B(  6-C , 18-N ) :   0.7237
B(  7-C ,  8-O ) :   1.6644 B(  7-C ,  9-N ) :   1.1756 B(  8-O , 10-C ) :   0.1224
B(  8-O , 28-H ) :   0.1154 B(  9-N , 10-C ) :   0.8657 B(  9-N , 29-H ) :   0.8698
B( 10-C , 11-C ) :   0.7977 B( 10-C , 30-H ) :   0.9978 B( 10-C , 31-H ) :   0.9824
B( 11-C , 12-C ) :   1.3970 B( 11-C , 17-C ) :   1.3933 B( 12-C , 13-C ) :   1.3691
B( 12-C , 32-H ) :   0.9411 B( 13-C , 14-C ) :   1.4036 B( 13-C , 33-H ) :   0.9367
B( 14-C , 15-F ) :   0.8776 B( 14-C , 16-C ) :   1.3927 B( 16-C , 17-C ) :   1.3764
B( 16-C , 34-H ) :   0.9362 B( 17-C , 35-H ) :   0.9373 B( 18-N , 19-C ) :   0.8782
B( 18-N , 20-C ) :   1.0401 B( 18-N , 21-C ) :  -0.1113 B( 19-C , 36-H ) :   0.9648
B( 19-C , 37-H ) :   0.9710 B( 19-C , 38-H ) :   0.9608 B( 20-C , 21-C ) :   0.8370
B( 21-C , 22-C ) :   0.9332 B( 21-C , 23-C ) :   0.8468 B( 21-C , 24-N ) :   0.7888
B( 22-C , 39-H ) :   0.9784 B( 22-C , 40-H ) :   0.9685 B( 22-C , 41-H ) :   0.9794
B( 23-C , 42-H ) :   0.9820 B( 23-C , 43-H ) :   0.9686 B( 23-C , 44-H ) :   0.9806
B( 24-N , 45-H ) :   0.9168 B( 24-N , 46-H ) :   0.9111

Dispersion correction           -0.023547677
FINAL SINGLE POINT ENERGY     -1205.446456506349

DIPOLE MOMENT
-------------
                                X             Y             Z
Electronic contribution:     22.36372       9.01483      -2.77145
Nuclear contribution   :    -18.96573     -13.86480       0.63895
                        -----------------------------------------
Total Dipole Moment    :      3.39799      -4.84997      -2.13250
                        -----------------------------------------
Magnitude (a.u.)       :      6.29413
Magnitude (Debye)      :     15.99841

Rotational constants in cm-1:     0.011524     0.004618     0.004117
Rotational constants in MHz :   345.469834   138.456180   123.431295

                             ****ORCA TERMINATED NORMALLY****
TOTAL RUN TIME: 0 days 0 hours 2 minutes 34 seconds 27 msec
