   * xtb version 6.5.1 (579679a) compiled by 'ehlert@majestix' on 2022-07-11
          program call               : /lustre/hpc/kemi/ree/PhD/git/ReactivityQM/dep/xtb-6.5.1/bin/xtb --gfn 1 /lustre/hpc/kemi/ree/PhD/git/ReactivityQM/calculations/RaltegravirCLI/reac02prodE03/conf19/RaltegravirCLI_reac02prodE03_conf19_gfn1.xyz --opt --vfukui --chrg -1 --uhf 0 --alpb DMSO

   ID    Z sym.   atoms
    1    6 C      1, 3, 5, 7, 8, 11-15, 17, 18, 20-24
    2    7 N      2, 10, 19, 25
    3    8 O      4, 6, 9
    4    9 F      16
    5    1 H      26-47

      * Solvation model:               ALPB
        Solvent                        DMSO
        Solvent mass                       7.8130E+01 g/mol
          :  Hamiltonian                  GFN1-xTB          :
 * total energy  :   -80.1336373 Eh     change       -0.2700062E-12 Eh
 * total energy  :   -80.1472061 Eh     change       -0.1356880E-01 Eh
 * total energy  :   -80.1532016 Eh     change       -0.5995524E-02 Eh
 * total energy  :   -80.1556991 Eh     change       -0.2497553E-02 Eh
 * total energy  :   -80.1576056 Eh     change       -0.1906425E-02 Eh
 * total energy  :   -80.1591137 Eh     change       -0.1508142E-02 Eh
 * total energy  :   -80.1603540 Eh     change       -0.1240312E-02 Eh
 * total energy  :   -80.1614738 Eh     change       -0.1119748E-02 Eh
 * total energy  :   -80.1624697 Eh     change       -0.9958872E-03 Eh
 * total energy  :   -80.1632654 Eh     change       -0.7957871E-03 Eh
 * total energy  :   -80.1707281 Eh     change       -0.5436556E-06 Eh
 * total energy  :   -80.1707480 Eh     change       -0.1989087E-04 Eh
 * total energy  :   -80.1707697 Eh     change       -0.2168248E-04 Eh
 * total energy  :   -80.1708114 Eh     change       -0.4174638E-04 Eh
 * total energy  :   -80.1708376 Eh     change       -0.2618411E-04 Eh
 * total energy  :   -80.1708705 Eh     change       -0.3289890E-04 Eh
 * total energy  :   -80.1708968 Eh     change       -0.2633202E-04 Eh
 * total energy  :   -80.1709063 Eh     change       -0.9405636E-05 Eh
 * total energy  :   -80.1709103 Eh     change       -0.4044421E-05 Eh
   *** GEOMETRY OPTIMIZATION CONVERGED AFTER 50 ITERATIONS ***

 final structure:
================
47
 xtb: 6.5.1 (579679a)
C           -4.19852722128365        1.42648738436356        0.07381491295249
N           -2.83929456164209        1.20997629956115        0.57161570380549
C           -2.29854284760656        2.28867836369559        1.23569618176444
O           -3.00468357240828        3.31028713815104        1.47220163524388
C           -0.89301205430584        2.13827936402312        1.50815503339523
O           -0.15152685607134        3.27035163989531        1.68136071058523
C           -0.29340147540017        0.88609398039141        1.45018509999970
C            1.11888355334441        0.69780138312565        1.58242322498194
O            1.92981253403986        1.62883526165468        1.79693818435499
N            1.54949249412680       -0.61832088472218        1.58121483448314
C            2.97100774726479       -0.89745417103198        1.45337250792123
C            3.44690154890002       -0.70483069183881        0.02771817399838
C            3.41419174129508       -1.76537579399271       -0.87482054005476
C            3.83717868524096       -1.59495428038620       -2.18641636147958
C            4.28558429960705       -0.34521209494129       -2.57132524501740
F            4.70356079689158       -0.17174034879074       -3.84005570454060
C            4.32681966379030        0.73249616772819       -1.70536051555357
C            3.90117825849077        0.54212591863093       -0.39848935562481
N           -1.14938790299946       -0.27504723072277        1.37065673279600
C           -1.65540876430198       -0.67170680121605        2.70439056187762
C           -2.24439422102601       -0.04548546182362        0.44850899724033
C           -2.05481212690875       -0.61413726228085       -0.95637317199098
C           -1.09352429734447       -1.81316915438481       -0.91389562302428
C           -1.51761332833570        0.43634882667690       -1.94893803160038
N           -3.35983590173990       -1.08031375622562       -1.46566567239966
H           -4.23694182148607        2.34554043771091       -0.51669498472255
H           -4.50797605480972        0.58328589607797       -0.53978483502343
H           -4.88387882699149        1.53111052717797        0.92060229912456
H            0.78820657865608        2.98303961928027        1.80100961585218
H            0.93249516301515       -1.28319437638390        1.13252371830401
H            3.51224991869189       -0.22285246631024        2.12496808863800
H            3.14302744261031       -1.92880030153911        1.77352285385378
H            3.06473760098521       -2.73946377992337       -0.55296226223201
H            3.82372957933942       -2.41365464002644       -2.89362166496006
H            4.68870268477145        1.69351956511209       -2.04794106848747
H            3.92349542178997        1.37190039679892        0.29973998981550
H           -2.24055876718202        0.12799968090366        3.17686414253971
H           -2.28653513693125       -1.55114203052799        2.57618907991224
H           -0.80779004559780       -0.92231582007638        3.34373598780939
H           -0.07984615049621       -1.48977417840278       -0.67585856039295
H           -1.07975288656551       -2.31451424509737       -1.88153320527641
H           -1.41773772300778       -2.52529986154449       -0.15593880539455
H           -0.57543311566320        0.84418119777117       -1.58136420891552
H           -1.34750207386537       -0.01757557640386       -2.92564841470021
H           -2.23515728728947        1.24925886718379       -2.06444265517626
H           -3.66652987897638       -1.85450452240392       -0.89082392249063
H           -3.24165081261228       -1.43675818492177       -2.40460546219850

          :  Hamiltonian                  GFN1-xTB          :
         :: total energy             -80.170910295986 Eh    ::
         :: gradient norm              0.000480227512 Eh/a0 ::
         :: HOMO-LUMO gap              0.902220183661 eV    ::
         :: SCC energy               -81.010394303322 Eh    ::
         :: -> Gsolv                  -0.103067387761 Eh    ::
         :: repulsion energy           0.872981680480 Eh    ::

    * Orbital Energies and Occupations

         #    Occupation            Energy/Eh            Energy/eV
      -------------------------------------------------------------
         1        2.0000           -0.8540713             -23.2405
       ...           ...                  ...                  ...
        56        2.0000           -0.4607555             -12.5378
        57        2.0000           -0.4565606             -12.4236
        58        2.0000           -0.4451171             -12.1123
        59        2.0000           -0.4393655             -11.9557
        60        2.0000           -0.4276496             -11.6369
        61        2.0000           -0.4158708             -11.3164
        62        2.0000           -0.4035963             -10.9824
        63        2.0000           -0.4019729             -10.9382
        64        2.0000           -0.3882222             -10.5641
        65        2.0000           -0.3822983             -10.4029
        66        2.0000           -0.3733812             -10.1602
        67        2.0000           -0.3580552              -9.7432
        68        2.0000           -0.2945775              -8.0159 (HOMO)
        69                         -0.2614215              -7.1136 (LUMO)
        70                         -0.2603379              -7.0842
        71                         -0.2532308              -6.8908
        72                         -0.1784559              -4.8560
        73                         -0.1333849              -3.6296
        74                         -0.1219482              -3.3184
        75                         -0.1105360              -3.0078
        76                         -0.1059115              -2.8820
        77                         -0.1021404              -2.7794
        78                         -0.0994062              -2.7050
        79                         -0.0950144              -2.5855
       ...                                ...                  ...
       144                          0.6931652              18.8620
      -------------------------------------------------------------
                  HL-Gap            0.0331560 Eh            0.9022 eV

Wiberg/Mayer (AO) data.
largest (>0.10) Wiberg bond orders for each atom

     #   Z sym  total        # sym  WBO       # sym  WBO       # sym  WBO
 ---------------------------------------------------------------------------
     1   6 C    3.960 --    26 H    0.984    28 H    0.980    27 H    0.979
                             2 N    0.952
     2   7 N    3.479 --     3 C    1.165    21 C    1.096     1 C    0.952
                             4 O    0.141
     3   6 C    3.929 --     4 O    1.381     2 N    1.165     5 C    1.147
                            21 C    0.124
     4   8 O    1.715 --     3 C    1.381     2 N    0.141
     5   6 C    3.906 --     7 C    1.409     3 C    1.147     6 O    1.049
                            21 C    0.128
     6   8 O    2.017 --     5 C    1.049    29 H    0.793
     7   6 C    3.925 --     5 C    1.409     8 C    1.183    19 N    0.974
     8   6 C    3.906 --     9 O    1.440     7 C    1.183    10 N    1.130
     9   8 O    1.849 --     8 C    1.440    10 N    0.105
    10   7 N    3.239 --     8 C    1.130    11 C    0.957    30 H    0.910
                             9 O    0.105
    11   6 C    3.965 --    12 C    0.993    32 H    0.978    31 H    0.973
                            10 N    0.957
    12   6 C    3.985 --    13 C    1.420    18 C    1.415    11 C    0.993
    13   6 C    3.994 --    14 C    1.440    12 C    1.420    33 H    0.972
                            17 C    0.110
    14   6 C    3.992 --    13 C    1.440    15 C    1.404    34 H    0.970
                            18 C    0.111
    15   6 C    3.857 --    14 C    1.404    17 C    1.401    16 F    0.916
    16   9 F    1.042 --    15 C    0.916
    17   6 C    3.992 --    18 C    1.445    15 C    1.401    35 H    0.971
                            13 C    0.110
    18   6 C    3.992 --    17 C    1.445    12 C    1.415    36 H    0.968
                            14 C    0.111
    19   7 N    3.071 --     7 C    0.974    21 C    0.964    20 C    0.961
    20   6 C    3.985 --    38 H    0.988    39 H    0.988    37 H    0.983
                            19 N    0.961
    21   6 C    3.682 --     2 N    1.096    22 C    0.975    19 N    0.964
                             5 C    0.128     3 C    0.124
    22   6 C    3.957 --    23 C    0.993    24 C    0.983    21 C    0.975
                            25 N    0.963
    23   6 C    3.996 --    22 C    0.993    41 H    0.986    42 H    0.985
                            40 H    0.979
    24   6 C    3.996 --    43 H    0.987    44 H    0.986    45 H    0.986
                            22 C    0.983
    25   7 N    2.986 --    22 C    0.963    47 H    0.952    46 H    0.951
    26   1 H    1.018 --     1 C    0.984
    27   1 H    1.038 --     1 C    0.979
    28   1 H    1.016 --     1 C    0.980
    29   1 H    0.887 --     6 O    0.793
    30   1 H    0.979 --    10 N    0.910
    31   1 H    1.016 --    11 C    0.973
    32   1 H    1.008 --    11 C    0.978
    33   1 H    1.001 --    13 C    0.972
    34   1 H    0.999 --    14 C    0.970
    35   1 H    1.000 --    17 C    0.971
    36   1 H    1.017 --    18 C    0.968
    37   1 H    1.010 --    20 C    0.983
    38   1 H    1.031 --    20 C    0.988
    39   1 H    1.020 --    20 C    0.988
    40   1 H    1.020 --    23 C    0.979
    41   1 H    1.007 --    23 C    0.986
    42   1 H    1.015 --    23 C    0.985
    43   1 H    1.014 --    24 C    0.987
    44   1 H    1.004 --    24 C    0.986
    45   1 H    1.010 --    24 C    0.986
    46   1 H    0.976 --    25 N    0.951
    47   1 H    0.968 --    25 N    0.952
 ---------------------------------------------------------------------------

           -------------------------------------------------
          | TOTAL ENERGY              -80.170910295986 Eh   |
          | GRADIENT NORM               0.000480227512 Eh/α |
          | HOMO-LUMO GAP               0.902220183661 eV   |
           -------------------------------------------------

 * finished run on 2023/06/20 at 14:59:23.707
