   * xtb version 6.5.1 (579679a) compiled by 'ehlert@majestix' on 2022-07-11
          program call               : /lustre/hpc/kemi/ree/PhD/git/ReactivityQM/dep/xtb-6.5.1/bin/xtb --gfn 1 /lustre/hpc/kemi/ree/PhD/git/ReactivityQM/calculations/R03/reac02prodE13/conf16/R03_reac02prodE13_conf16_gfn1.xyz --opt --vfukui --chrg -1 --uhf 0 --alpb DMSO

   ID    Z sym.   atoms
    1    6 C      1, 3, 5, 6, 8, 10, 12-16, 18, 20, 23, 24
    2    8 O      2, 4, 7, 9, 19, 25
    3    7 N      11, 17, 21, 22, 26
    4    1 H      27-46

      * Solvation model:               ALPB
        Solvent                        DMSO
        Solvent mass                       7.8130E+01 g/mol
          :  Hamiltonian                  GFN1-xTB          :
 * total energy  :   -86.9978504 Eh     change       -0.7233325E-11 Eh
 * total energy  :   -87.0128505 Eh     change       -0.1500012E-01 Eh
 * total energy  :   -87.0188898 Eh     change       -0.6039260E-02 Eh
 * total energy  :   -87.0201684 Eh     change       -0.1278605E-02 Eh
 * total energy  :   -87.0209817 Eh     change       -0.8132699E-03 Eh
 * total energy  :   -87.0214065 Eh     change       -0.4248289E-03 Eh
 * total energy  :   -87.0218227 Eh     change       -0.4162458E-03 Eh
 * total energy  :   -87.0222517 Eh     change       -0.4289619E-03 Eh
 * total energy  :   -87.0225894 Eh     change       -0.3377186E-03 Eh
 * total energy  :   -87.0227829 Eh     change       -0.1934631E-03 Eh
 * total energy  :   -87.0291665 Eh     change       -0.1497768E-04 Eh
 * total energy  :   -87.0291782 Eh     change       -0.1168913E-04 Eh
 * total energy  :   -87.0291886 Eh     change       -0.1045052E-04 Eh
 * total energy  :   -87.0291995 Eh     change       -0.1084297E-04 Eh
 * total energy  :   -87.0292095 Eh     change       -0.9988874E-05 Eh
 * total energy  :   -87.0292175 Eh     change       -0.8023612E-05 Eh
 * total energy  :   -87.0292246 Eh     change       -0.7084152E-05 Eh
 * total energy  :   -87.0292323 Eh     change       -0.7707476E-05 Eh
 * total energy  :   -87.0292353 Eh     change       -0.3035644E-05 Eh
   *** GEOMETRY OPTIMIZATION CONVERGED AFTER 122 ITERATIONS ***

 final structure:
================
46
 xtb: 6.5.1 (579679a)
C           -6.37244475137511        0.67000393763799        0.64431498358434
O           -5.10732912332541        0.05113175754120        0.47650330807655
C           -4.05738220366368        0.93255565056405        0.15708439855992
O           -4.31707789384535        2.13936962747854        0.02641136382043
C           -2.81034760744514        0.30979628512049       -0.00928869873401
C           -2.46420439279922       -1.08480490262929        0.22280512254433
O           -3.36638230589292       -1.96109169359103        0.78777755608872
C           -1.20189281174152       -1.50671521131529        0.00792981762148
O           -0.71673009954845       -2.78270048634849        0.28123920865754
C           -0.84416263515542       -3.25417301016800        1.61479265475505
N           -0.20099520931496       -0.66955619169040       -0.61831261903667
C            0.04663954526928       -1.11341477803404       -2.01116199105253
C           -0.57540428039446        0.72346164682324       -0.53723735779189
C            0.53961448313968        1.74737001466064       -0.71301037658281
C            0.40233085035459        2.83235032522761        0.36774788172314
C            0.44780982213285        2.38460409886866       -2.10937243125468
N            1.82415455144010        1.06110980108134       -0.54103304110538
C            3.01829806525198        1.65181445058980       -0.66012935303276
O            3.21517170882568        2.81463346340328       -0.99293748559446
C            4.15816504828233        0.74685382977403       -0.33912923872651
N            5.42292403428844        1.03053182018481       -0.41071615128341
N            6.10031372799583       -0.07951718097356        0.00343663203781
C            5.20764756551947       -0.96954382952582        0.30451297643808
C            5.43965980127967       -2.33820120598783        0.81652318158645
O            3.95890701887932       -0.51261013078307        0.10957850469822
N           -1.74632070423246        1.15874496450810       -0.28804906708010
H           -7.09436264578391       -0.11986171595529        0.85291225222984
H           -6.67213677785980        1.20652448004507       -0.26371437462217
H           -6.35608732085507        1.37834908925884        1.48132693881772
H           -4.22642746338174       -1.52074959430062        0.90514483738718
H           -1.87995889944820       -3.53097809844855        1.84691747742041
H           -0.21332116016386       -4.14183096853459        1.69959723098254
H           -0.50714378472460       -2.50355387756577        2.34058483910469
H           -0.83770293922246       -0.97171121485679       -2.64165662770417
H            0.30831822832805       -2.17066785778389       -1.98476716807965
H            0.88380245841273       -0.55263531825960       -2.42365869525865
H            1.15276588646670        3.60957248905305        0.23119773400811
H            0.52400301162457        2.38932751616654        1.35551710180879
H           -0.59110225882141        3.27507724121552        0.30041422539216
H           -0.56542266605445        2.75734938956569       -2.25715197425794
H            1.14788518598595        3.21301322524080       -2.20737691557815
H            0.66617637785055        1.64685212922075       -2.87933667437861
H            1.77736436665589        0.09792885543400       -0.22994777246870
H            4.98356275233009       -2.45115027164370        1.79980267198877
H            6.50869839609408       -2.52100590315108        0.89068646264157
H            4.99013004866515       -3.07185464712888        0.14830265164139

          :  Hamiltonian                  GFN1-xTB          :
         :: total energy             -87.029235328819 Eh    ::
         :: gradient norm              0.000188262726 Eh/a0 ::
         :: HOMO-LUMO gap              0.278164156835 eV    ::
         :: SCC energy               -87.821245127484 Eh    ::
         :: -> Gsolv                  -0.108592077611 Eh    ::
         :: repulsion energy           0.820722566618 Eh    ::

    * Orbital Energies and Occupations

         #    Occupation            Energy/Eh            Energy/eV
      -------------------------------------------------------------
         1        2.0000           -0.8574043             -23.3312
       ...           ...                  ...                  ...
        59        2.0000           -0.4628179             -12.5939
        60        2.0000           -0.4543109             -12.3624
        61        2.0000           -0.4518151             -12.2945
        62        2.0000           -0.4493256             -12.2268
        63        2.0000           -0.4429943             -12.0545
        64        2.0000           -0.4408653             -11.9966
        65        2.0000           -0.4315581             -11.7433
        66        2.0000           -0.4297017             -11.6928
        67        2.0000           -0.4062811             -11.0555
        68        2.0000           -0.4053131             -11.0291
        69        2.0000           -0.3801950             -10.3456
        70        2.0000           -0.3779115             -10.2835
        71        1.9908           -0.3086291              -8.3982 (HOMO)
        72        0.0092           -0.2984068              -8.1201 (LUMO)
        73                         -0.2504885              -6.8161
        74                         -0.2237190              -6.0877
        75                         -0.1944010              -5.2899
        76                         -0.1867257              -5.0811
        77                         -0.1400708              -3.8115
        78                         -0.1185924              -3.2271
        79                         -0.1115047              -3.0342
        80                         -0.1103782              -3.0035
        81                         -0.1045273              -2.8443
        82                         -0.1033235              -2.8116
       ...                                ...                  ...
       144                          0.7296285              19.8542
      -------------------------------------------------------------
                  HL-Gap            0.0102223 Eh            0.2782 eV

Wiberg/Mayer (AO) data.
largest (>0.10) Wiberg bond orders for each atom

     #   Z sym  total        # sym  WBO       # sym  WBO       # sym  WBO
 ---------------------------------------------------------------------------
     1   6 C    3.907 --    27 H    0.987    29 H    0.981    28 H    0.981
                             2 O    0.934
     2   8 O    2.097 --     1 C    0.934     3 C    0.930
     3   6 C    3.865 --     4 O    1.477     5 C    1.305     2 O    0.930
     4   8 O    1.784 --     3 C    1.477     5 C    0.111
     5   6 C    3.855 --     3 C    1.305    26 N    1.118     6 C    1.099
                             4 O    0.111
     6   6 C    3.900 --     8 C    1.644     5 C    1.099     7 O    1.004
     7   8 O    1.986 --     6 C    1.004    30 H    0.822
     8   6 C    3.834 --     6 C    1.644    11 N    0.959     9 O    0.954
     9   8 O    2.036 --     8 C    0.954    10 C    0.934
    10   6 C    3.914 --    32 H    0.986    33 H    0.983    31 H    0.980
                             9 O    0.934
    11   7 N    3.107 --    13 C    0.970     8 C    0.959    12 C    0.944
    12   6 C    3.969 --    35 H    0.986    36 H    0.985    34 H    0.985
                            11 N    0.944
    13   6 C    3.940 --    26 N    1.720    14 C    0.973    11 N    0.970
    14   6 C    3.924 --    15 C    0.985    16 C    0.983    13 C    0.973
                            17 N    0.916
    15   6 C    3.993 --    38 H    0.987    14 C    0.985    37 H    0.985
                            39 H    0.983
    16   6 C    3.993 --    40 H    0.985    42 H    0.983    14 C    0.983
                            41 H    0.982
    17   7 N    3.385 --    18 C    1.299    14 C    0.916    43 H    0.886
                            19 O    0.184
    18   6 C    3.921 --    19 O    1.556    17 N    1.299    20 C    0.985
    19   8 O    1.875 --    18 C    1.556    17 N    0.184
    20   6 C    3.864 --    21 N    1.623    25 O    1.047    18 C    0.985
    21   7 N    2.989 --    20 C    1.623    22 N    1.192
    22   7 N    2.980 --    23 C    1.617    21 N    1.192
    23   6 C    3.870 --    22 N    1.617    25 O    1.072    24 C    1.030
    24   6 C    3.988 --    23 C    1.030    45 H    0.983    46 H    0.965
                            44 H    0.964
    25   8 O    2.313 --    23 C    1.072    20 C    1.047
    26   7 N    3.056 --    13 C    1.720     5 C    1.118
    27   1 H    1.017 --     1 C    0.987
    28   1 H    1.019 --     1 C    0.981
    29   1 H    1.018 --     1 C    0.981
    30   1 H    0.885 --     7 O    0.822
    31   1 H    1.027 --    10 C    0.980
    32   1 H    1.019 --    10 C    0.986
    33   1 H    1.013 --    10 C    0.983
    34   1 H    1.010 --    12 C    0.985
    35   1 H    1.019 --    12 C    0.986
    36   1 H    1.018 --    12 C    0.985
    37   1 H    1.011 --    15 C    0.985
    38   1 H    1.009 --    15 C    0.987
    39   1 H    1.021 --    15 C    0.983
    40   1 H    1.011 --    16 C    0.985
    41   1 H    1.014 --    16 C    0.982
    42   1 H    1.009 --    16 C    0.983
    43   1 H    0.965 --    17 N    0.886
    44   1 H    0.998 --    24 C    0.964
    45   1 H    1.000 --    24 C    0.983
    46   1 H    0.997 --    24 C    0.965
 ---------------------------------------------------------------------------

           -------------------------------------------------
          | TOTAL ENERGY              -87.029235328819 Eh   |
          | GRADIENT NORM               0.000188262726 Eh/α |
          | HOMO-LUMO GAP               0.278164156835 eV   |
           -------------------------------------------------

 * finished run on 2023/06/20 at 15:34:32.804
