   * xtb version 6.5.1 (579679a) compiled by 'ehlert@majestix' on 2022-07-11
          program call               : /lustre/hpc/kemi/ree/PhD/git/ReactivityQM/dep/xtb-6.5.1/bin/xtb --gfn 1 /lustre/hpc/kemi/ree/PhD/git/ReactivityQM/calculations/R03/reac02prodN11/conf04/R03_reac02prodN11_conf04_gfn1.xyz --opt --vfukui --chrg 1 --uhf 0 --alpb DMSO

   ID    Z sym.   atoms
    1    6 C      1, 3, 5, 7-10, 12, 13, 15, 18, 19, 22, 23, 25
    2    8 O      2, 4, 14, 20, 24, 26
    3    7 N      6, 11, 16, 17, 21
    4    1 H      27-46

      * Solvation model:               ALPB
        Solvent                        DMSO
        Solvent mass                       7.8130E+01 g/mol
          :  Hamiltonian                  GFN1-xTB          :
 * total energy  :   -86.1945300 Eh     change       -0.5579025E-08 Eh
 * total energy  :   -86.2134310 Eh     change       -0.1890094E-01 Eh
 * total energy  :   -86.2221074 Eh     change       -0.8676448E-02 Eh
 * total energy  :   -86.2243205 Eh     change       -0.2213072E-02 Eh
 * total energy  :   -86.2259229 Eh     change       -0.1602448E-02 Eh
 * total energy  :   -86.2267733 Eh     change       -0.8503588E-03 Eh
 * total energy  :   -86.2273922 Eh     change       -0.6189220E-03 Eh
 * total energy  :   -86.2278761 Eh     change       -0.4839362E-03 Eh
 * total energy  :   -86.2282619 Eh     change       -0.3857428E-03 Eh
 * total energy  :   -86.2285407 Eh     change       -0.2788484E-03 Eh
 * total energy  :   -86.2327239 Eh     change       -0.9055318E-05 Eh
 * total energy  :   -86.2327170 Eh     change        0.6816719E-05 Eh
 * total energy  :   -86.2327170 Eh     change        0.5234389E-07 Eh
 * total energy  :   -86.2327266 Eh     change       -0.9645258E-05 Eh
 * total energy  :   -86.2327315 Eh     change       -0.4883569E-05 Eh
 * total energy  :   -86.2327310 Eh     change        0.5508233E-06 Eh
 * total energy  :   -86.2327365 Eh     change       -0.5508354E-05 Eh
 * total energy  :   -86.2327473 Eh     change       -0.1086279E-04 Eh
 * total energy  :   -86.2327495 Eh     change       -0.2146850E-05 Eh
   *** GEOMETRY OPTIMIZATION CONVERGED AFTER 68 ITERATIONS ***

 final structure:
================
46
 xtb: 6.5.1 (579679a)
C           -5.70686536957879        2.45215114442298       -2.05652691267859
O           -4.92595699954134        1.72069361275896       -1.09350873862035
C           -3.76961132028495        1.21977355176235       -1.53125800438108
O           -3.36938193930472        1.34635617712760       -2.65975805054604
C           -3.01565745423913        0.49206979077224       -0.46200598340219
N           -1.81872180361369        0.01028573785641       -0.87548378260022
C           -1.01933339810108       -0.62904705479831       -0.07210069960112
C            0.25687341749737       -1.16190341737681       -0.70498490284880
C            0.17617641250942       -2.69459458293331       -0.80810156115346
C            0.41712385786939       -0.56365110365874       -2.11771526981372
N            1.40515042247892       -0.73033600554034        0.06978996281258
C            2.72684919077211       -1.13692553358984       -0.21481799899235
C            3.22093640734426       -1.82854684817752        1.24960451720381
O            2.98557401673135       -1.92550597010982       -1.14663946335911
C            3.66468309349964        0.03911491304566        0.04041794678203
N            4.86763573534186        0.18870446871805       -0.41775716033110
N            5.27531327240880        1.40187294548196        0.01386853280693
C            4.32606770810969        1.89885221648711        0.75607498256549
C            4.29042726698414        3.20522913704331        1.43530233897889
O            3.27161863112170        1.06277872259408        0.81436125630306
N           -1.34444922396970       -0.85081488532199        1.22845753708358
C           -0.50783659841017       -1.55826752003129        2.19465072184546
C           -2.56965819701370       -0.43319563776975        1.77075031186055
O           -2.84344690840103       -0.68008695985347        2.92800979471066
C           -3.43687639950194        0.29341479297829        0.83712267760355
O           -4.58155409752669        0.70403095879585        1.35727943896392
H           -5.10775821373877        3.26334821448158       -2.47438768381356
H           -6.56597724178900        2.84669330924748       -1.52027434422450
H           -6.02611855696338        1.77984309294101       -2.85535122453300
H            0.17637050831600       -3.14779033862996        0.17912491426732
H           -0.74823847114572       -2.95658395364729       -1.32047618924523
H            1.01913317959509       -3.08326020779240       -1.37505271411596
H            1.33073049972400       -0.93620838864476       -2.57603781806141
H           -0.43939538604648       -0.86151374188720       -2.71974078636911
H            0.45413210295065        0.52150815699450       -2.05432132192864
H            1.29805818180390        0.06907647906058        0.67568452094426
H            2.61010355314972       -2.72418026585820        1.27590606576208
H            4.27436616834775       -2.06453776443449        1.14521175487736
H            3.01223081089910       -1.16132122516073        2.07530781863966
H            5.28679812158785        3.64220213640736        1.44613795847081
H            3.60945718579644        3.87576535401919        0.90793884407729
H            3.91707122522447        3.08390711488017        2.45133164047329
H            0.49667363826228       -1.67521288221193        1.80835784296894
H           -0.48685913714370       -0.97435712419745        3.11446048422731
H           -0.95005606596029       -2.53357981737676        2.39783111799461
H           -5.13580482603381        1.19374820111408        0.71989562838991

          :  Hamiltonian                  GFN1-xTB          :
         :: total energy             -86.232749490248 Eh    ::
         :: gradient norm              0.000808172604 Eh/a0 ::
         :: HOMO-LUMO gap              0.118816669985 eV    ::
         :: SCC energy               -87.052577746748 Eh    ::
         :: -> Gsolv                  -0.121098418170 Eh    ::
         :: repulsion energy           0.849741778453 Eh    ::

    * Orbital Energies and Occupations

         #    Occupation            Energy/Eh            Energy/eV
      -------------------------------------------------------------
         1        2.0000           -0.9055585             -24.6415
       ...           ...                  ...                  ...
        58        2.0000           -0.5254879             -14.2993
        59        2.0000           -0.5251489             -14.2900
        60        2.0000           -0.5166179             -14.0579
        61        2.0000           -0.5099222             -13.8757
        62        2.0000           -0.5046534             -13.7323
        63        2.0000           -0.5007810             -13.6269
        64        2.0000           -0.4997513             -13.5989
        65        2.0000           -0.4963421             -13.5062
        66        2.0000           -0.4887309             -13.2990
        67        2.0000           -0.4864034             -13.2357
        68        2.0000           -0.4788883             -13.0312
        69        2.0000           -0.4711202             -12.8198
        70        1.8174           -0.4523121             -12.3080 (HOMO)
        71        0.1826           -0.4479457             -12.1892 (LUMO)
        72                         -0.3466361              -9.4324
        73                         -0.3121897              -8.4951
        74                         -0.3076278              -8.3710
        75                         -0.2872214              -7.8157
        76                         -0.2618244              -7.1246
        77                         -0.1841603              -5.0113
        78                         -0.1731572              -4.7118
        79                         -0.1570985              -4.2749
        80                         -0.1523950              -4.1469
        81                         -0.1479142              -4.0249
       ...                                ...                  ...
       144                          0.7270707              19.7846
      -------------------------------------------------------------
                  HL-Gap            0.0043664 Eh            0.1188 eV

Wiberg/Mayer (AO) data.
largest (>0.10) Wiberg bond orders for each atom

     #   Z sym  total        # sym  WBO       # sym  WBO       # sym  WBO
 ---------------------------------------------------------------------------
     1   6 C    3.850 --    28 H    0.985    27 H    0.979    29 H    0.979
                             2 O    0.874
     2   8 O    2.212 --     3 C    1.105     1 C    0.874     4 O    0.136
     3   6 C    3.851 --     4 O    1.686     2 O    1.105     5 C    0.987
     4   8 O    1.944 --     3 C    1.686     2 O    0.136
     5   6 C    3.915 --    25 C    1.419     6 N    1.240     3 C    0.987
     6   7 N    2.985 --     7 C    1.500     5 C    1.240
     7   6 C    3.900 --     6 N    1.500    21 N    1.221     8 C    0.978
     8   6 C    3.909 --     7 C    0.978     9 C    0.956    11 N    0.945
                            10 C    0.942
     9   6 C    3.967 --    31 H    0.980    30 H    0.979    32 H    0.972
                             8 C    0.956
    10   6 C    3.961 --    35 H    0.983    33 H    0.978    34 H    0.971
                             8 C    0.942
    11   7 N    3.390 --    12 C    1.046     8 C    0.945    36 H    0.882
                            14 O    0.219
    12   6 C    3.905 --    14 O    1.382    11 N    1.046    15 C    0.846
                            13 C    0.554
    13   6 C    3.763 --    39 H    0.983    38 H    0.977    37 H    0.965
                            12 C    0.554
    14   8 O    1.838 --    12 C    1.382    11 N    0.219
    15   6 C    3.833 --    16 N    1.572    20 O    1.064    12 C    0.846
    16   7 N    2.982 --    15 C    1.572    17 N    1.215
    17   7 N    2.999 --    18 C    1.557    16 N    1.215
    18   6 C    3.827 --    17 N    1.557    20 O    1.055    19 C    1.043
    19   6 C    3.975 --    18 C    1.043    40 H    0.976    42 H    0.960
                            41 H    0.945
    20   8 O    2.322 --    15 C    1.064    18 C    1.055
    21   7 N    3.493 --     7 C    1.221    23 C    1.076    22 C    0.927
                            24 O    0.117
    22   6 C    3.906 --    44 H    0.970    43 H    0.968    45 H    0.967
                            21 N    0.927
    23   6 C    3.888 --    24 O    1.628    21 N    1.076    25 C    1.050
    24   8 O    1.890 --    23 C    1.628    21 N    0.117
    25   6 C    3.835 --     5 C    1.419    26 O    1.157    23 C    1.050
    26   8 O    2.091 --    25 C    1.157    46 H    0.783
    27   1 H    1.004 --     1 C    0.979
    28   1 H    1.007 --     1 C    0.985
    29   1 H    1.003 --     1 C    0.979
    30   1 H    0.997 --     9 C    0.979
    31   1 H    0.997 --     9 C    0.980
    32   1 H    1.005 --     9 C    0.972
    33   1 H    1.002 --    10 C    0.978
    34   1 H    1.003 --    10 C    0.971
    35   1 H    1.003 --    10 C    0.983
    36   1 H    0.925 --    11 N    0.882
    37   1 H    0.990 --    13 C    0.965
    38   1 H    0.993 --    13 C    0.977
    39   1 H    0.992 --    13 C    0.983
    40   1 H    0.992 --    19 C    0.976
    41   1 H    0.988 --    19 C    0.945
    42   1 H    0.990 --    19 C    0.960
    43   1 H    1.001 --    22 C    0.968
    44   1 H    0.998 --    22 C    0.970
    45   1 H    0.993 --    22 C    0.967
    46   1 H    0.837 --    26 O    0.783
 ---------------------------------------------------------------------------

           -------------------------------------------------
          | TOTAL ENERGY              -86.232749490248 Eh   |
          | GRADIENT NORM               0.000808172604 Eh/α |
          | HOMO-LUMO GAP               0.118816669985 eV   |
           -------------------------------------------------

 * finished run on 2023/06/20 at 15:46:47.061
