   * xtb version 6.5.1 (579679a) compiled by 'ehlert@majestix' on 2022-07-11
          program call               : /lustre/hpc/kemi/ree/PhD/git/ReactivityQM/dep/xtb-6.5.1/bin/xtb --gfn 1 /lustre/hpc/kemi/ree/PhD/git/ReactivityQM/calculations/R03/reac02prodE05/conf07/R03_reac02prodE05_conf07_gfn1.xyz --opt --vfukui --chrg -1 --uhf 0 --alpb DMSO

   ID    Z sym.   atoms
    1    6 C      1, 3, 5, 6, 8, 11-15, 17, 19, 22, 23, 26
    2    8 O      2, 4, 7, 9, 18, 24
    3    7 N      10, 16, 20, 21, 25
    4    1 H      27-46

      * Solvation model:               ALPB
        Solvent                        DMSO
        Solvent mass                       7.8130E+01 g/mol
          :  Hamiltonian                  GFN1-xTB          :
 * total energy  :   -86.9702157 Eh     change       -0.2681020E-09 Eh
 * total energy  :   -86.9846400 Eh     change       -0.1442430E-01 Eh
 * total energy  :   -86.9916912 Eh     change       -0.7051171E-02 Eh
 * total energy  :   -86.9931447 Eh     change       -0.1453465E-02 Eh
 * total energy  :   -86.9941751 Eh     change       -0.1030404E-02 Eh
 * total energy  :   -86.9945765 Eh     change       -0.4014138E-03 Eh
 * total energy  :   -86.9948927 Eh     change       -0.3162160E-03 Eh
 * total energy  :   -86.9951389 Eh     change       -0.2461770E-03 Eh
 * total energy  :   -86.9953527 Eh     change       -0.2138592E-03 Eh
 * total energy  :   -86.9955802 Eh     change       -0.2274455E-03 Eh
 * total energy  :   -87.0091435 Eh     change       -0.5730941E-05 Eh
 * total energy  :   -87.0091599 Eh     change       -0.1643072E-04 Eh
 * total energy  :   -87.0091715 Eh     change       -0.1158507E-04 Eh
 * total energy  :   -87.0091799 Eh     change       -0.8437786E-05 Eh
 * total energy  :   -87.0091926 Eh     change       -0.1271984E-04 Eh
 * total energy  :   -87.0092005 Eh     change       -0.7892509E-05 Eh
 * total energy  :   -87.0092063 Eh     change       -0.5727331E-05 Eh
 * total energy  :   -87.0092121 Eh     change       -0.5845313E-05 Eh
 * total energy  :   -87.0092155 Eh     change       -0.3353987E-05 Eh
   *** GEOMETRY OPTIMIZATION CONVERGED AFTER 78 ITERATIONS ***

 final structure:
================
46
 xtb: 6.5.1 (579679a)
C           -4.36411823426354        1.21359193323430       -3.00652779536479
O           -3.73096954780698        1.21448261931135       -1.73135107761602
C           -3.10667281926570        0.03446715960264       -1.38486862317864
O           -3.11394507391875       -0.91515901823372       -2.16508606731461
C           -2.52802751391208        0.04140119002912       -0.07212763601284
C           -2.33706648094129        1.12381756479283        0.77746210349316
O           -2.76216208226486        2.39431360458111        0.50750899197160
C           -1.50025959570117        0.98835279210615        1.94597617329290
O           -1.42806066413873        1.79953485878951        2.90569537409832
N           -0.64576542412518       -0.09293686272929        1.88334133128213
C            0.35816555535912       -0.13597530514953        2.94646280948764
C           -0.81464217792567       -1.17996622821306        1.02764941869347
C            0.35428135682146       -1.61380599606696        0.14114900926940
C           -0.11444652242797       -1.93107476263946       -1.28815413533439
C            1.01839202463996       -2.87105368034956        0.73768627753198
N            1.34600433841319       -0.52164018009390        0.07509383109492
C            2.53859366059064       -0.58564256997469       -0.52845509962540
O            3.00854203785083       -1.54927497821013       -1.11715452722123
C            3.26404221241559        0.71271015470982       -0.39782040229441
N            2.81993105707348        1.78150400983549        0.19186402020227
N            3.79330159321879        2.73154913790074        0.07169430967717
C            4.76687570598104        2.18025319528112       -0.58365304834930
C            6.05639215245744        2.79261360125170       -0.97375271015171
O            4.49443269408698        0.90700527811490       -0.91047288278277
N           -2.12064642499914       -1.25539264785470        0.42496008802782
C           -3.11554746264334       -1.81818988995647        1.35960998852823
H           -3.62949034311315        1.05673113905380       -3.80277674611463
H           -5.11995981838246        0.42370627991412       -3.05980688527583
H           -4.83857943595738        2.18592516516307       -3.12970982152220
H           -3.31605638026206        2.41149215161899       -0.28908422490340
H            0.86522742449668        0.82897544359004        3.01366115547073
H            1.08372354301036       -0.91793877172329        2.74105637963272
H           -0.13373085839500       -0.33884818877422        3.90171399816532
H            0.70886660357035       -2.34427839828397       -1.86987272549795
H           -0.92779367006452       -2.65495782125124       -1.25621128173579
H           -0.47499206051141       -1.02746334231704       -1.77750820168552
H            1.78100408285208       -3.27200939795855        0.07126948850349
H            1.47704064797295       -2.64469186232576        1.69843497467061
H            0.24976705926357       -3.62681479852368        0.89159427281372
H            1.08333612683510        0.36244642978751        0.49398766198821
H            6.10730641890252        3.81104194726109       -0.59622230257970
H            6.15226006782718        2.80172938047941       -2.05979532242986
H            6.88382879355457        2.21069476830910       -0.56772932669957
H           -2.75691075102673       -2.79427849279284        1.68707839534735
H           -3.26616066768289       -1.17592862958992        2.23698005605379
H           -4.06531314746976       -1.93567498170378        0.83621273441402

          :  Hamiltonian                  GFN1-xTB          :
         :: total energy             -87.009215455872 Eh    ::
         :: gradient norm              0.000775756149 Eh/a0 ::
         :: HOMO-LUMO gap              0.297381302095 eV    ::
         :: SCC energy               -87.791009617969 Eh    ::
         :: -> Gsolv                  -0.110298692436 Eh    ::
         :: repulsion energy           0.812885374011 Eh    ::

    * Orbital Energies and Occupations

         #    Occupation            Energy/Eh            Energy/eV
      -------------------------------------------------------------
         1        2.0000           -0.8554499             -23.2780
       ...           ...                  ...                  ...
        59        2.0000           -0.4715572             -12.8317
        60        2.0000           -0.4661060             -12.6834
        61        2.0000           -0.4646781             -12.6445
        62        2.0000           -0.4511225             -12.2757
        63        2.0000           -0.4502824             -12.2528
        64        2.0000           -0.4390442             -11.9470
        65        2.0000           -0.4346760             -11.8281
        66        2.0000           -0.4282238             -11.6526
        67        2.0000           -0.4146711             -11.2838
        68        2.0000           -0.3982125             -10.8359
        69        2.0000           -0.3858986             -10.5008
        70        2.0000           -0.3678070             -10.0085
        71        1.9937           -0.3080198              -8.3816 (HOMO)
        72        0.0063           -0.2970912              -8.0843 (LUMO)
        73                         -0.2719552              -7.4003
        74                         -0.2500120              -6.8032
        75                         -0.1910541              -5.1988
        76                         -0.1855320              -5.0486
        77                         -0.1400481              -3.8109
        78                         -0.1343486              -3.6558
        79                         -0.1210453              -3.2938
        80                         -0.1182694              -3.2183
        81                         -0.1058233              -2.8796
        82                         -0.1006317              -2.7383
       ...                                ...                  ...
       144                          0.7349155              19.9981
      -------------------------------------------------------------
                  HL-Gap            0.0109286 Eh            0.2974 eV

Wiberg/Mayer (AO) data.
largest (>0.10) Wiberg bond orders for each atom

     #   Z sym  total        # sym  WBO       # sym  WBO       # sym  WBO
 ---------------------------------------------------------------------------
     1   6 C    3.893 --    29 H    0.987    27 H    0.981    28 H    0.981
                             2 O    0.918
     2   8 O    2.139 --     3 C    0.992     1 C    0.918
     3   6 C    3.854 --     4 O    1.547     5 C    1.167     2 O    0.992
     4   8 O    1.859 --     3 C    1.547
     5   6 C    3.925 --     6 C    1.420     3 C    1.167    25 N    0.969
     6   6 C    3.899 --     5 C    1.420     8 C    1.139     7 O    1.036
                            12 C    0.131
     7   8 O    2.023 --     6 C    1.036    30 H    0.828
     8   6 C    3.926 --     9 O    1.403    10 N    1.152     6 C    1.139
                            12 C    0.120
     9   8 O    1.735 --     8 C    1.403    10 N    0.140
    10   7 N    3.468 --     8 C    1.152    12 C    1.090    11 C    0.949
                             9 O    0.140
    11   6 C    3.958 --    32 H    0.983    31 H    0.983    33 H    0.978
                            10 N    0.949
    12   6 C    3.691 --    10 N    1.090    25 N    0.976    13 C    0.974
                             6 C    0.131     8 C    0.120
    13   6 C    3.915 --    14 C    0.988    15 C    0.983    12 C    0.974
                            16 N    0.896
    14   6 C    3.993 --    13 C    0.988    36 H    0.985    34 H    0.984
                            35 H    0.983
    15   6 C    3.991 --    39 H    0.986    13 C    0.983    37 H    0.982
                            38 H    0.980
    16   7 N    3.379 --    17 C    1.296    40 H    0.897    13 C    0.896
                            18 O    0.187
    17   6 C    3.922 --    18 O    1.565    16 N    1.296    19 C    0.979
    18   8 O    1.885 --    17 C    1.565    16 N    0.187
    19   6 C    3.865 --    20 N    1.615    24 O    1.061    17 C    0.979
    20   7 N    3.010 --    19 C    1.615    21 N    1.190
    21   7 N    2.980 --    22 C    1.616    20 N    1.190
    22   6 C    3.873 --    21 N    1.616    24 O    1.079    23 C    1.030
    23   6 C    3.988 --    22 C    1.030    41 H    0.983    43 H    0.965
                            42 H    0.964
    24   8 O    2.322 --    22 C    1.079    19 C    1.061
    25   7 N    3.055 --    12 C    0.976     5 C    0.969    26 C    0.962
    26   6 C    3.983 --    44 H    0.988    46 H    0.988    45 H    0.983
                            25 N    0.962
    27   1 H    1.014 --     1 C    0.981
    28   1 H    1.014 --     1 C    0.981
    29   1 H    1.014 --     1 C    0.987
    30   1 H    0.882 --     7 O    0.828
    31   1 H    1.017 --    11 C    0.983
    32   1 H    1.016 --    11 C    0.983
    33   1 H    1.012 --    11 C    0.978
    34   1 H    1.011 --    14 C    0.984
    35   1 H    1.025 --    14 C    0.983
    36   1 H    1.016 --    14 C    0.985
    37   1 H    1.014 --    15 C    0.982
    38   1 H    1.013 --    15 C    0.980
    39   1 H    1.014 --    15 C    0.986
    40   1 H    0.967 --    16 N    0.897
    41   1 H    0.999 --    23 C    0.983
    42   1 H    0.998 --    23 C    0.964
    43   1 H    0.998 --    23 C    0.965
    44   1 H    1.027 --    26 C    0.988
    45   1 H    1.008 --    26 C    0.983
    46   1 H    1.017 --    26 C    0.988
 ---------------------------------------------------------------------------

           -------------------------------------------------
          | TOTAL ENERGY              -87.009215455872 Eh   |
          | GRADIENT NORM               0.000775756149 Eh/α |
          | HOMO-LUMO GAP               0.297381302095 eV   |
           -------------------------------------------------

 * finished run on 2023/06/20 at 15:20:24.534
