   * xtb version 6.5.1 (579679a) compiled by 'ehlert@majestix' on 2022-07-11
          program call               : /lustre/hpc/kemi/ree/PhD/git/ReactivityQM/dep/xtb-6.5.1/bin/xtb --gfn 1 /lustre/hpc/kemi/ree/PhD/git/ReactivityQM/calculations/R02deprot/reac02/conf07/R02deprot_reac02_conf07_gfn1.xyz --opt --vfukui --chrg 0 --uhf 0 --alpb DMSO

   ID    Z sym.   atoms
    1    6 C      1
    2    5 B      2
    3    8 O      3, 4
    4    1 H      5-9

      * Solvation model:               ALPB
        Solvent                        DMSO
        Solvent mass                       7.8130E+01 g/mol
          :  Hamiltonian                  GFN1-xTB          :
 * total energy  :   -15.7435396 Eh     change       -0.1367795E-12 Eh
 * total energy  :   -15.7456814 Eh     change       -0.2141799E-02 Eh
 * total energy  :   -15.7458904 Eh     change       -0.2090653E-03 Eh
 * total energy  :   -15.7459136 Eh     change       -0.2316425E-04 Eh
 * total energy  :   -15.7459346 Eh     change       -0.2098168E-04 Eh
 * total energy  :   -15.7459395 Eh     change       -0.4926685E-05 Eh
 * total energy  :   -15.7459405 Eh     change       -0.9843425E-06 Eh
   *** GEOMETRY OPTIMIZATION CONVERGED AFTER 7 ITERATIONS ***

 final structure:
================
9
 xtb: 6.5.1 (579679a)
C           -1.04031315084035       -0.41437980916174       -0.07156643494487
B            0.46535271827504        0.04410531430907        0.02093561076288
O            1.45235260410033       -0.90063459139648        0.03727594344800
O            0.84772992119940        1.36213404057037        0.09332149335026
H           -1.12071099362683       -1.47552499528781       -0.30225255125980
H           -1.57775073286681        0.14717894212347       -0.83385650588868
H           -1.54932251091378       -0.23531330313145        0.87540374783282
H            2.34664905525468       -0.56643588253081        0.09943677114912
H            0.17601308941832        2.03887028450539        0.08130192555030

          :  Hamiltonian                  GFN1-xTB          :
         :: total energy             -15.745940473250 Eh    ::
         :: gradient norm              0.000516500352 Eh/a0 ::
         :: HOMO-LUMO gap              7.899291295288 eV    ::
         :: SCC energy               -15.885281661599 Eh    ::
         :: -> Gsolv                  -0.019536209842 Eh    ::
         :: repulsion energy           0.141262280785 Eh    ::

    * Orbital Energies and Occupations

         #    Occupation            Energy/Eh            Energy/eV
      -------------------------------------------------------------
         1        2.0000           -0.7697179             -20.9451
         2        2.0000           -0.7654331             -20.8285
         3        2.0000           -0.6437733             -17.5180
         4        2.0000           -0.6230263             -16.9534
         5        2.0000           -0.6040981             -16.4383
         6        2.0000           -0.5586569             -15.2018
         7        2.0000           -0.5575846             -15.1727
         8        2.0000           -0.5254377             -14.2979
         9        2.0000           -0.5056528             -13.7595
        10        2.0000           -0.5006533             -13.6235
        11        2.0000           -0.4987949             -13.5729
        12        2.0000           -0.4568789             -12.4323 (HOMO)
        13                         -0.1665853              -4.5330 (LUMO)
        14                         -0.1196517              -3.2559
        15                         -0.0879149              -2.3923
        16                         -0.0821324              -2.2349
        17                         -0.0454432              -1.2366
        18                         -0.0407755              -1.1096
        19                          0.1705769               4.6416
        20                          0.2477946               6.7428
        21                          0.2848215               7.7504
        22                          0.3451240               9.3913
        23                          0.3975333              10.8174
       ...                                ...                  ...
        26                          0.5903348              16.0638
      -------------------------------------------------------------
                  HL-Gap            0.2902936 Eh            7.8993 eV

Wiberg/Mayer (AO) data.
largest (>0.10) Wiberg bond orders for each atom

     #   Z sym  total        # sym  WBO       # sym  WBO       # sym  WBO
 ---------------------------------------------------------------------------
     1   6 C    3.975 --     2 B    0.986     5 H    0.985     6 H    0.977
                             7 H    0.970
     2   5 B    3.250 --     3 O    1.129     4 O    1.100     1 C    0.986
     3   8 O    2.044 --     2 B    1.129     8 H    0.836
     4   8 O    2.036 --     2 B    1.100     9 H    0.842
     5   1 H    1.002 --     1 C    0.985
     6   1 H    1.001 --     1 C    0.977
     7   1 H    1.001 --     1 C    0.970
     8   1 H    0.859 --     3 O    0.836
     9   1 H    0.861 --     4 O    0.842
 ---------------------------------------------------------------------------

           -------------------------------------------------
          | TOTAL ENERGY              -15.745940473250 Eh   |
          | GRADIENT NORM               0.000516500352 Eh/α |
          | HOMO-LUMO GAP               7.899291295288 eV   |
           -------------------------------------------------

 * finished run on 2023/06/20 at 17:32:06.066
