   * xtb version 6.5.1 (579679a) compiled by 'ehlert@majestix' on 2022-07-11
          program call               : /lustre/hpc/kemi/ree/PhD/git/ReactivityQM/dep/xtb-6.5.1/bin/xtb --gfn 1 /lustre/hpc/kemi/ree/PhD/git/ReactivityQM/calculations/R03/reac02prodE03/conf11/R03_reac02prodE03_conf11_gfn1.xyz --opt --vfukui --chrg -1 --uhf 0 --alpb DMSO

   ID    Z sym.   atoms
    1    6 C      1, 3, 5, 6, 8-11, 13, 15, 18, 19, 22, 23, 25
    2    8 O      2, 4, 14, 20, 24, 26
    3    7 N      7, 12, 16, 17, 21
    4    1 H      27-46

      * Solvation model:               ALPB
        Solvent                        DMSO
        Solvent mass                       7.8130E+01 g/mol
          :  Hamiltonian                  GFN1-xTB          :
 * total energy  :   -86.9919625 Eh     change       -0.1138147E-09 Eh
 * total energy  :   -87.0074340 Eh     change       -0.1547147E-01 Eh
 * total energy  :   -87.0138026 Eh     change       -0.6368588E-02 Eh
 * total energy  :   -87.0153033 Eh     change       -0.1500744E-02 Eh
 * total energy  :   -87.0161101 Eh     change       -0.8067349E-03 Eh
 * total energy  :   -87.0165013 Eh     change       -0.3912164E-03 Eh
 * total energy  :   -87.0168464 Eh     change       -0.3451582E-03 Eh
 * total energy  :   -87.0171659 Eh     change       -0.3194350E-03 Eh
 * total energy  :   -87.0174775 Eh     change       -0.3116632E-03 Eh
 * total energy  :   -87.0177675 Eh     change       -0.2899351E-03 Eh
 * total energy  :   -87.0226691 Eh     change       -0.2426012E-04 Eh
 * total energy  :   -87.0226903 Eh     change       -0.2121061E-04 Eh
 * total energy  :   -87.0227066 Eh     change       -0.1626068E-04 Eh
 * total energy  :   -87.0227393 Eh     change       -0.3272880E-04 Eh
 * total energy  :   -87.0227548 Eh     change       -0.1548457E-04 Eh
 * total energy  :   -87.0227737 Eh     change       -0.1889341E-04 Eh
 * total energy  :   -87.0227866 Eh     change       -0.1290492E-04 Eh
 * total energy  :   -87.0227973 Eh     change       -0.1070093E-04 Eh
 * total energy  :   -87.0228018 Eh     change       -0.4511639E-05 Eh
   *** GEOMETRY OPTIMIZATION CONVERGED AFTER 100 ITERATIONS ***

 final structure:
================
46
 xtb: 6.5.1 (579679a)
C           -5.93439439336364       -1.01611840724081        0.46740034556094
O           -4.76417987395099       -1.78151684084278        0.73456927862477
C           -3.60296938745393       -1.07395436574870        1.01480395278611
O           -3.38006496968696       -0.85537642881726        2.37995311436909
C           -3.58476380688256        0.46891342271589        2.85190396130619
C           -2.71297269906201       -0.66013138928059        0.05933046130709
N           -1.55552305855806       -0.01132216608887        0.51470251613692
C           -0.62165614141201        0.35833533465412       -0.29305592298415
C            0.56777962141111        1.07090002244177        0.36030188818434
C            0.40424267071952        1.05145129856637        1.88769570532631
C            0.65645470186042        2.52821021110259       -0.11429478048659
N            1.78678037329668        0.31857926227820        0.02691903299978
C            3.03542996713237        0.71740447906727        0.35591850246299
O            3.34240980994801        1.80659203578273        0.81835502572752
C            4.01918166217764       -0.35088626584965        0.05815716180062
N            3.74013168341018       -1.54544826670169       -0.38135406745815
N            4.92726474746012       -2.20761189729754       -0.50014413055753
C            5.85235936992263       -1.37891962724926       -0.12656209069884
C            7.31192377133497       -1.61994867502428       -0.08029741849482
O            5.34696903030994       -0.19004016870461        0.24015331972281
N           -0.66161283452863        0.14033390403606       -1.63972296836725
C            0.33620969689239        0.58434917088038       -2.60423651638169
C           -1.84210162176656       -0.43154129335339       -2.23703288482722
O           -1.89562819781460       -0.53698685178393       -3.49195769085384
C           -2.82573708577635       -0.82931319490298       -1.35329527389296
O           -3.99116662741114       -1.37639589730803       -1.90950728989908
H           -6.25835895728821       -0.45457201336567        1.35237178840904
H           -6.71974982507957       -1.72066881629754        0.18609672665720
H           -5.76793049169440       -0.31402908209123       -0.35850276716731
H           -2.88990538927399        1.16961630677681        2.37110814661138
H           -3.39482750629430        0.46032833040740        3.92738212754235
H           -4.61184732019322        0.81026713974996        2.67219665183798
H            0.31104759641446        0.02664188589618        2.24486076748762
H            1.26878441470314        1.51823401053652        2.35683207376761
H           -0.49226689809445        1.60262210020297        2.16657721278892
H           -0.33831519505854        2.97123493250503       -0.08244294901566
H            1.04045095168736        2.59855172164970       -1.12856123559070
H            1.31313272205163        3.10029639359258        0.53856739530501
H            1.67273404202285       -0.65582041819313       -0.21822108152155
H            7.51916851496500       -2.65536874717691       -0.33886563302926
H            7.82144818283411       -0.96206547884416       -0.78442563917126
H            7.69497973263779       -1.40739186975181        0.91728443820422
H            1.32390339911934        0.63030231353098       -2.15567619253922
H            0.06800887544028        1.56495962287979       -3.00611376874019
H            0.35617066892427       -0.13094046652261       -3.42938149760963
H           -3.87099692603228       -1.33175627079880       -2.87185279563689

          :  Hamiltonian                  GFN1-xTB          :
         :: total energy             -87.022801788299 Eh    ::
         :: gradient norm              0.000885473661 Eh/a0 ::
         :: HOMO-LUMO gap              0.168109717061 eV    ::
         :: SCC energy               -87.816234995684 Eh    ::
         :: -> Gsolv                  -0.113339912401 Eh    ::
         :: repulsion energy           0.822756413392 Eh    ::

    * Orbital Energies and Occupations

         #    Occupation            Energy/Eh            Energy/eV
      -------------------------------------------------------------
         1        2.0000           -0.8537042             -23.2305
       ...           ...                  ...                  ...
        59        2.0000           -0.4716946             -12.8355
        60        2.0000           -0.4694166             -12.7735
        61        2.0000           -0.4530605             -12.3284
        62        2.0000           -0.4498402             -12.2408
        63        2.0000           -0.4416815             -12.0188
        64        2.0000           -0.4341448             -11.8137
        65        2.0000           -0.4317274             -11.7479
        66        2.0000           -0.4307698             -11.7218
        67        2.0000           -0.4205718             -11.4443
        68        2.0000           -0.3961661             -10.7802
        69        2.0000           -0.3913415             -10.6489
        70        2.0000           -0.3723970             -10.1334
        71        1.9254           -0.3066999              -8.3457 (HOMO)
        72        0.0746           -0.3005220              -8.1776 (LUMO)
        73                         -0.2491861              -6.7807
        74                         -0.2328641              -6.3366
        75                         -0.1958809              -5.3302
        76                         -0.1873853              -5.0990
        77                         -0.1393960              -3.7932
        78                         -0.1241333              -3.3778
        79                         -0.1192926              -3.2461
        80                         -0.1140821              -3.1043
        81                         -0.1070746              -2.9136
        82                         -0.1006551              -2.7390
       ...                                ...                  ...
       144                          0.7258224              19.7506
      -------------------------------------------------------------
                  HL-Gap            0.0061779 Eh            0.1681 eV

Wiberg/Mayer (AO) data.
largest (>0.10) Wiberg bond orders for each atom

     #   Z sym  total        # sym  WBO       # sym  WBO       # sym  WBO
 ---------------------------------------------------------------------------
     1   6 C    3.915 --    28 H    0.985    27 H    0.981    29 H    0.981
                             2 O    0.930
     2   8 O    2.012 --     3 C    0.954     1 C    0.930
     3   6 C    3.723 --     6 C    1.514     2 O    0.954     4 O    0.936
     4   8 O    2.002 --     5 C    0.937     3 C    0.936
     5   6 C    3.916 --    31 H    0.985    32 H    0.981    30 H    0.978
                             4 O    0.937
     6   6 C    3.953 --     3 C    1.514    25 C    1.177     7 N    1.077
     7   7 N    3.012 --     8 C    1.608     6 C    1.077    21 N    0.134
     8   6 C    3.946 --     7 N    1.608    21 N    1.188     9 C    0.966
     9   6 C    3.929 --    10 C    0.992    11 C    0.990     8 C    0.966
                            12 N    0.913
    10   6 C    3.993 --     9 C    0.992    33 H    0.985    34 H    0.984
                            35 H    0.983
    11   6 C    3.992 --     9 C    0.990    36 H    0.986    37 H    0.981
                            38 H    0.980
    12   7 N    3.336 --    13 C    1.243     9 C    0.913    39 H    0.900
                            14 O    0.172
    13   6 C    3.895 --    14 O    1.572    12 N    1.243    15 C    0.999
    14   8 O    1.877 --    13 C    1.572    12 N    0.172
    15   6 C    3.842 --    16 N    1.587    20 O    1.053    13 C    0.999
    16   7 N    2.978 --    15 C    1.587    17 N    1.193
    17   7 N    2.980 --    18 C    1.613    16 N    1.193
    18   6 C    3.865 --    17 N    1.613    20 O    1.078    19 C    1.030
    19   6 C    3.988 --    18 C    1.030    40 H    0.983    42 H    0.967
                            41 H    0.963
    20   8 O    2.309 --    18 C    1.078    15 C    1.053
    21   7 N    3.402 --     8 C    1.188    23 C    0.955    22 C    0.952
                             7 N    0.134
    22   6 C    3.952 --    43 H    0.980    44 H    0.979    45 H    0.977
                            21 N    0.952
    23   6 C    3.903 --    24 O    1.388    25 C    1.385    21 N    0.955
    24   8 O    1.739 --    23 C    1.388    25 C    0.127
    25   6 C    3.823 --    23 C    1.385     6 C    1.177    26 O    0.968
                            24 O    0.127
    26   8 O    1.945 --    25 C    0.968    46 H    0.850
    27   1 H    1.018 --     1 C    0.981
    28   1 H    1.020 --     1 C    0.985
    29   1 H    1.031 --     1 C    0.981
    30   1 H    1.032 --     5 C    0.978
    31   1 H    1.019 --     5 C    0.985
    32   1 H    1.018 --     5 C    0.981
    33   1 H    1.016 --    10 C    0.985
    34   1 H    1.008 --    10 C    0.984
    35   1 H    1.018 --    10 C    0.983
    36   1 H    1.004 --    11 C    0.986
    37   1 H    1.005 --    11 C    0.981
    38   1 H    1.015 --    11 C    0.980
    39   1 H    0.962 --    12 N    0.900
    40   1 H    0.999 --    19 C    0.983
    41   1 H    0.997 --    19 C    0.963
    42   1 H    0.997 --    19 C    0.967
    43   1 H    1.013 --    22 C    0.980
    44   1 H    1.007 --    22 C    0.979
    45   1 H    1.020 --    22 C    0.977
    46   1 H    0.892 --    26 O    0.850
 ---------------------------------------------------------------------------

           -------------------------------------------------
          | TOTAL ENERGY              -87.022801788299 Eh   |
          | GRADIENT NORM               0.000885473661 Eh/α |
          | HOMO-LUMO GAP               0.168109717061 eV   |
           -------------------------------------------------

 * finished run on 2023/06/20 at 15:17:26.358
