   * xtb version 6.5.1 (579679a) compiled by 'ehlert@majestix' on 2022-07-11
          program call               : /lustre/hpc/kemi/ree/PhD/git/ReactivityQM/dep/xtb-6.5.1/bin/xtb --gfn 1 /lustre/hpc/kemi/ree/PhD/git/ReactivityQM/calculations/R02deprot/reac01prodN02/conf05/R02deprot_reac01prodN02_conf05_gfn1.xyz --opt --vfukui --chrg 0 --uhf 0 --alpb DMSO

   ID    Z sym.   atoms
    1    6 C      1, 3, 5, 7-10, 12, 14, 15, 18, 19, 22, 24
    2    8 O      2, 4, 13, 20, 23, 25
    3    7 N      6, 11, 16, 17, 21
    4    1 H      26-42

      * Solvation model:               ALPB
        Solvent                        DMSO
        Solvent mass                       7.8130E+01 g/mol
          :  Hamiltonian                  GFN1-xTB          :
 * total energy  :   -82.9403470 Eh     change       -0.4470309E-09 Eh
 * total energy  :   -82.9590851 Eh     change       -0.1873803E-01 Eh
 * total energy  :   -82.9661385 Eh     change       -0.7053494E-02 Eh
 * total energy  :   -82.9673791 Eh     change       -0.1240531E-02 Eh
 * total energy  :   -82.9683940 Eh     change       -0.1014935E-02 Eh
 * total energy  :   -82.9688387 Eh     change       -0.4447159E-03 Eh
 * total energy  :   -82.9692417 Eh     change       -0.4029572E-03 Eh
 * total energy  :   -82.9696603 Eh     change       -0.4186604E-03 Eh
 * total energy  :   -82.9700369 Eh     change       -0.3765152E-03 Eh
 * total energy  :   -82.9703450 Eh     change       -0.3081157E-03 Eh
 * total energy  :   -82.9726139 Eh     change       -0.1407285E-04 Eh
 * total energy  :   -82.9726266 Eh     change       -0.1270416E-04 Eh
 * total energy  :   -82.9726375 Eh     change       -0.1096665E-04 Eh
 * total energy  :   -82.9726467 Eh     change       -0.9161170E-05 Eh
 * total energy  :   -82.9726544 Eh     change       -0.7736013E-05 Eh
 * total energy  :   -82.9726612 Eh     change       -0.6735833E-05 Eh
 * total energy  :   -82.9726672 Eh     change       -0.6024103E-05 Eh
 * total energy  :   -82.9726729 Eh     change       -0.5753301E-05 Eh
 * total energy  :   -82.9726758 Eh     change       -0.2812704E-05 Eh
   *** GEOMETRY OPTIMIZATION CONVERGED AFTER 68 ITERATIONS ***

 final structure:
================
42
 xtb: 6.5.1 (579679a)
C           -6.25897274859457        1.05889219992865        0.57748510033538
O           -4.87820827031874        0.87634740897175        0.26324244167248
C           -4.36594797007479        1.70029251385663       -0.65599725313594
O           -5.04274384407385        2.55818813956480       -1.20494380117366
C           -2.93629437467900        1.48575984524951       -0.92635398502860
N           -2.30971808857980        0.46856441254943       -0.25158866821356
C           -1.03061376616698        0.32570871947764       -0.48731879357082
C           -0.33197584967434       -0.80848571218162        0.25765717786921
C           -0.81232175702099       -2.15704406501611       -0.28837278806423
C           -0.58473873780224       -0.68870420423299        1.76185530919826
N            1.09112951291786       -0.62561737737724       -0.04198628820675
C            2.10217986282949       -1.31101400735618        0.38527282205494
O            1.89204826981413       -2.32782122329848        1.18218545809004
C            2.95253766671140       -3.12694190764214        1.72182441887665
C            3.42897590104043       -0.90652391529986       -0.03580153792224
N            4.58724476193453       -1.43895876745245        0.23970525075858
N            5.52187755667713       -0.68500417888276       -0.37574155412330
C            4.88993368390279        0.27298678364754       -0.99650064587595
C            5.47432882168710        1.36180564920014       -1.80341922021106
O            3.56642801584375        0.18236910847814       -0.81911382901019
N           -0.26002634512505        1.04012128696421       -1.30014251437166
C           -0.80279885426814        2.06583744720085       -2.02808833882885
O           -0.13036299753788        2.75266902874440       -2.80324828914168
C           -2.24486841183258        2.28412791023520       -1.80949196802204
O           -2.81429741497858        3.29012761818340       -2.50042601979108
H           -6.87363750830093        0.90143878960761       -0.31255908594243
H           -6.50631859887332        0.32360108167212        1.34089870213527
H           -6.42937534357845        2.06958600356117        0.95731112305377
H           -0.55657958250335       -2.24481054141485       -1.34326207040885
H           -0.35929992940222       -2.98093011780007        0.25849135347945
H           -1.89497115779658       -2.20601579277099       -0.17862276886464
H           -0.11278366277616        0.21249630520793        2.15031159860777
H           -0.19801635976125       -1.55349192537376        2.29589615143367
H           -1.66121130006842       -0.62139048102809        1.91823825116563
H            1.21214387114608        0.16922093563056       -0.70784695414344
H            3.62613237618497       -2.50736761353769        2.31605434588958
H            3.50973725030703       -3.60787473695468        0.91635978791836
H            2.46582054390222       -3.87214374339613        2.34824133474055
H            5.07808002737493        1.32773846517739       -2.81858408261558
H            5.20812561195079        2.32634113763355       -1.36995137388954
H            6.55617998671175        1.25771931115244       -1.82798265540902
H           -3.76681884714262        3.35820120912019       -2.27455714132122

          :  Hamiltonian                  GFN1-xTB          :
         :: total energy             -82.972675752921 Eh    ::
         :: gradient norm              0.000155730337 Eh/a0 ::
         :: HOMO-LUMO gap              0.623310911492 eV    ::
         :: SCC energy               -83.739472999855 Eh    ::
         :: -> Gsolv                  -0.068601326872 Eh    ::
         :: repulsion energy           0.792102976098 Eh    ::

    * Orbital Energies and Occupations

         #    Occupation            Energy/Eh            Energy/eV
      -------------------------------------------------------------
         1        2.0000           -0.8934051             -24.3108
       ...           ...                  ...                  ...
        55        2.0000           -0.5034076             -13.6984
        56        2.0000           -0.5002678             -13.6130
        57        2.0000           -0.4887596             -13.2998
        58        2.0000           -0.4878960             -13.2763
        59        2.0000           -0.4844930             -13.1837
        60        2.0000           -0.4805651             -13.0768
        61        2.0000           -0.4733887             -12.8816
        62        2.0000           -0.4612669             -12.5517
        63        2.0000           -0.4508988             -12.2696
        64        2.0000           -0.4340002             -11.8097
        65        2.0000           -0.4158911             -11.3170
        66        2.0000           -0.3886630             -10.5761
        67        2.0000           -0.3828097             -10.4168 (HOMO)
        68        0.0000           -0.3599034              -9.7935 (LUMO)
        69                         -0.2895346              -7.8786
        70                         -0.2810041              -7.6465
        71                         -0.2441576              -6.6439
        72                         -0.2410566              -6.5595
        73                         -0.2022347              -5.5031
        74                         -0.1560087              -4.2452
        75                         -0.1515523              -4.1239
        76                         -0.1302944              -3.5455
        77                         -0.1272263              -3.4620
        78                         -0.1252993              -3.4096
       ...                                ...                  ...
       134                          0.7282060              19.8155
      -------------------------------------------------------------
                  HL-Gap            0.0229063 Eh            0.6233 eV

Wiberg/Mayer (AO) data.
largest (>0.10) Wiberg bond orders for each atom

     #   Z sym  total        # sym  WBO       # sym  WBO       # sym  WBO
 ---------------------------------------------------------------------------
     1   6 C    3.879 --    27 H    0.987    28 H    0.980    26 H    0.980
                             2 O    0.905
     2   8 O    2.196 --     3 C    1.105     1 C    0.905     4 O    0.120
     3   6 C    3.839 --     4 O    1.591     2 O    1.105     5 C    1.045
     4   8 O    1.924 --     3 C    1.591     2 O    0.120
     5   6 C    3.961 --    24 C    1.468     6 N    1.189     3 C    1.045
     6   7 N    2.997 --     7 C    1.479     5 C    1.189
     7   6 C    3.961 --     6 N    1.479    21 N    1.365     8 C    0.962
     8   6 C    3.894 --    10 C    0.983     9 C    0.977     7 C    0.962
                            11 N    0.895
     9   6 C    3.986 --    29 H    0.985    30 H    0.984    31 H    0.982
                             8 C    0.977
    10   6 C    3.986 --    32 H    0.985    33 H    0.984     8 C    0.983
                            34 H    0.980
    11   7 N    3.516 --    12 C    1.516     8 C    0.895    35 H    0.805
                            13 O    0.114
    12   6 C    3.902 --    11 N    1.516    13 O    1.167    15 C    1.072
    13   8 O    2.257 --    12 C    1.167    14 C    0.871    11 N    0.114
    14   6 C    3.839 --    38 H    0.981    37 H    0.975    36 H    0.975
                            13 O    0.871
    15   6 C    3.887 --    16 N    1.561    12 C    1.072    20 O    1.053
    16   7 N    3.026 --    15 C    1.561    17 N    1.238
    17   7 N    2.985 --    18 C    1.563    16 N    1.238
    18   6 C    3.855 --    17 N    1.563    20 O    1.087    19 C    1.038
    19   6 C    3.981 --    18 C    1.038    41 H    0.981    39 H    0.957
                            40 H    0.957
    20   8 O    2.335 --    18 C    1.087    15 C    1.053
    21   7 N    3.048 --     7 C    1.365    22 C    1.202    23 O    0.126
                            35 H    0.107
    22   6 C    3.925 --    23 O    1.530    21 N    1.202    24 C    1.060
    23   8 O    1.818 --    22 C    1.530    21 N    0.126
    24   6 C    3.906 --     5 C    1.468    25 O    1.091    22 C    1.060
    25   8 O    2.064 --    24 C    1.091    42 H    0.797
    26   1 H    1.009 --     1 C    0.980
    27   1 H    1.012 --     1 C    0.987
    28   1 H    1.009 --     1 C    0.980
    29   1 H    1.001 --     9 C    0.985
    30   1 H    1.005 --     9 C    0.984
    31   1 H    1.007 --     9 C    0.982
    32   1 H    1.001 --    10 C    0.985
    33   1 H    1.005 --    10 C    0.984
    34   1 H    1.014 --    10 C    0.980
    35   1 H    0.952 --    11 N    0.805    21 N    0.107
    36   1 H    1.010 --    14 C    0.975
    37   1 H    1.011 --    14 C    0.975
    38   1 H    1.004 --    14 C    0.981
    39   1 H    0.993 --    19 C    0.957
    40   1 H    0.993 --    19 C    0.957
    41   1 H    0.996 --    19 C    0.981
    42   1 H    0.869 --    25 O    0.797
 ---------------------------------------------------------------------------

           -------------------------------------------------
          | TOTAL ENERGY              -82.972675752921 Eh   |
          | GRADIENT NORM               0.000155730337 Eh/α |
          | HOMO-LUMO GAP               0.623310911492 eV   |
           -------------------------------------------------

 * finished run on 2023/06/20 at 18:07:15.415
