   * xtb version 6.5.1 (579679a) compiled by 'ehlert@majestix' on 2022-07-11
          program call               : /lustre/hpc/kemi/ree/PhD/git/ReactivityQM/dep/xtb-6.5.1/bin/xtb --gfn 1 /lustre/hpc/kemi/ree/PhD/git/ReactivityQM/calculations/RaltegravirCLI/reac01prodN02/conf04/RaltegravirCLI_reac01prodN02_conf04_gfn1.xyz --opt --vfukui --chrg 1 --uhf 0 --alpb DMSO

   ID    Z sym.   atoms
    1    6 C      1, 2, 4, 5, 10
    2    8 O      3, 6
    3   17 Cl     7
    4    7 N      8, 9
    5    1 H      11-16

      * Solvation model:               ALPB
        Solvent                        DMSO
        Solvent mass                       7.8130E+01 g/mol
          :  Hamiltonian                  GFN1-xTB          :
 * total energy  :   -33.4354771 Eh     change       -0.8597567E-12 Eh
 * total energy  :   -33.4402575 Eh     change       -0.4780429E-02 Eh
 * total energy  :   -33.4417173 Eh     change       -0.1459799E-02 Eh
 * total energy  :   -33.4418794 Eh     change       -0.1620575E-03 Eh
 * total energy  :   -33.4419722 Eh     change       -0.9288160E-04 Eh
 * total energy  :   -33.4419825 Eh     change       -0.1024933E-04 Eh
 * total energy  :   -33.4419914 Eh     change       -0.8886455E-05 Eh
 * total energy  :   -33.4419980 Eh     change       -0.6647671E-05 Eh
 * total energy  :   -33.4420015 Eh     change       -0.3497384E-05 Eh
   *** GEOMETRY OPTIMIZATION CONVERGED AFTER 9 ITERATIONS ***

 final structure:
================
16
 xtb: 6.5.1 (579679a)
C           -1.24603336561854        1.69772401843550        0.49254310663016
C           -0.26492918546616        0.63916966965660        0.21383174811333
O            1.01282615517776        0.76209934226029        0.50742936418968
C            1.59825814358553       -0.39027276914906        0.12966590347974
C            3.06182917330030       -0.63251444109483        0.30898168791324
O            3.56990503518450       -1.65535236613284       -0.03371680392518
Cl           3.89345941261336        0.66366849050558        1.02922076405592
N            0.72823716335741       -1.20925607005264       -0.38120940228802
N           -0.44117446970690       -0.55407701895529       -0.32140233234960
C           -1.64445802628310       -1.18520399617329       -0.82548291847830
H           -1.76917895438317        1.47103912789206        1.42529075368285
H           -0.72842159075846        2.64935356043700        0.60583549005152
H           -1.98378289709705        1.75746452478554       -0.30604330581121
H           -1.59933551416949       -2.24428962467585       -0.58055577221336
H           -1.68169042932244       -1.05283225179518       -1.90659765198655
H           -2.50551065041356       -0.71672019594358       -0.35779063106419

          :  Hamiltonian                  GFN1-xTB          :
         :: total energy             -33.442001527162 Eh    ::
         :: gradient norm              0.000765285972 Eh/a0 ::
         :: HOMO-LUMO gap              3.201792348439 eV    ::
         :: SCC energy               -33.737126577520 Eh    ::
         :: -> Gsolv                  -0.090655910291 Eh    ::
         :: repulsion energy           0.302309187081 Eh    ::

    * Orbital Energies and Occupations

         #    Occupation            Energy/Eh            Energy/eV
      -------------------------------------------------------------
         1        2.0000           -0.9807921             -26.6887
       ...           ...                  ...                  ...
        15        2.0000           -0.6355524             -17.2943
        16        2.0000           -0.6273244             -17.0704
        17        2.0000           -0.6267616             -17.0551
        18        2.0000           -0.6128548             -16.6766
        19        2.0000           -0.5965264             -16.2323
        20        2.0000           -0.5829769             -15.8636
        21        2.0000           -0.5778261             -15.7234
        22        2.0000           -0.5689295             -15.4814
        23        2.0000           -0.5567542             -15.1501
        24        2.0000           -0.5316864             -14.4679
        25        2.0000           -0.5210327             -14.1780
        26        2.0000           -0.5167738             -14.0621
        27        2.0000           -0.5063625             -13.7788 (HOMO)
        28                         -0.3886988             -10.5770 (LUMO)
        29                         -0.3538233              -9.6280
        30                         -0.2831297              -7.7044
        31                         -0.2365982              -6.4382
        32                         -0.1880278              -5.1165
        33                         -0.1766249              -4.8062
        34                         -0.1208444              -3.2883
        35                         -0.1164708              -3.1693
        36                         -0.1077141              -2.9311
        37                         -0.1073555              -2.9213
        38                         -0.1061754              -2.8892
       ...                                ...                  ...
        57                          0.7182971              19.5459
      -------------------------------------------------------------
                  HL-Gap            0.1176637 Eh            3.2018 eV

Wiberg/Mayer (AO) data.
largest (>0.10) Wiberg bond orders for each atom

     #   Z sym  total        # sym  WBO       # sym  WBO       # sym  WBO
 ---------------------------------------------------------------------------
     1   6 C    3.957 --     2 C    1.044    12 H    0.965    13 H    0.959
                            11 H    0.929
     2   6 C    3.835 --     9 N    1.411     3 O    1.153     1 C    1.044
     3   8 O    2.380 --     2 C    1.153     4 C    1.057
     4   6 C    3.857 --     8 N    1.608     3 O    1.057     5 C    0.982
     5   6 C    3.901 --     6 O    1.782     7 Cl   1.095     4 C    0.982
     6   8 O    2.056 --     5 C    1.782     7 Cl   0.175
     7  17 Cl   1.327 --     5 C    1.095     6 O    0.175
     8   7 N    2.996 --     4 C    1.608     9 N    1.166
     9   7 N    3.633 --     2 C    1.411     8 N    1.166    10 C    0.905
    10   6 C    3.878 --    16 H    0.979    14 H    0.971    15 H    0.961
                             9 N    0.905
    11   1 H    0.982 --     1 C    0.929
    12   1 H    0.984 --     1 C    0.965
    13   1 H    0.986 --     1 C    0.959
    14   1 H    0.990 --    10 C    0.971
    15   1 H    0.988 --    10 C    0.961
    16   1 H    0.988 --    10 C    0.979
 ---------------------------------------------------------------------------

           -------------------------------------------------
          | TOTAL ENERGY              -33.442001527162 Eh   |
          | GRADIENT NORM               0.000765285972 Eh/α |
          | HOMO-LUMO GAP               3.201792348439 eV   |
           -------------------------------------------------

 * finished run on 2023/06/20 at 14:54:31.080
