   * xtb version 6.5.1 (579679a) compiled by 'ehlert@majestix' on 2022-07-11
          program call               : /lustre/hpc/kemi/ree/PhD/git/ReactivityQM/dep/xtb-6.5.1/bin/xtb --gfn 1 /lustre/hpc/kemi/ree/PhD/git/ReactivityQM/calculations/R03/reac01prodN06/conf02/R03_reac01prodN06_conf02_gfn1.xyz --opt --vfukui --chrg 1 --uhf 0 --alpb DMSO

   ID    Z sym.   atoms
    1    6 C      1, 3-7, 9, 10
    2    9 F      2
    3    7 N      8
    4    1 H      11-21

      * Solvation model:               ALPB
        Solvent                        DMSO
        Solvent mass                       7.8130E+01 g/mol
          :  Hamiltonian                  GFN1-xTB          :
 * total energy  :   -30.7197529 Eh     change       -0.2000178E-11 Eh
 * total energy  :   -30.7307228 Eh     change       -0.1096985E-01 Eh
 * total energy  :   -30.7341342 Eh     change       -0.3411402E-02 Eh
 * total energy  :   -30.7346750 Eh     change       -0.5408018E-03 Eh
 * total energy  :   -30.7349964 Eh     change       -0.3214193E-03 Eh
 * total energy  :   -30.7351183 Eh     change       -0.1218743E-03 Eh
 * total energy  :   -30.7351589 Eh     change       -0.4065799E-04 Eh
 * total energy  :   -30.7351773 Eh     change       -0.1833361E-04 Eh
 * total energy  :   -30.7351872 Eh     change       -0.9973622E-05 Eh
 * total energy  :   -30.7351963 Eh     change       -0.9027399E-05 Eh
 * total energy  :   -30.7352016 Eh     change       -0.5279197E-05 Eh
 * total energy  :   -30.7352058 Eh     change       -0.4286012E-05 Eh
   *** GEOMETRY OPTIMIZATION CONVERGED AFTER 12 ITERATIONS ***

 final structure:
================
21
 xtb: 6.5.1 (579679a)
C            3.65435770281901        0.39166639802489        0.86213768835495
F            2.82938768016732       -0.30072396018010       -0.09601074294471
C            1.36607832591529       -0.26961742624637       -0.22916530819703
C            0.67884943626499       -1.28836942707427        0.37814970099875
C           -0.70161228526015       -1.26617748022072        0.21541979351314
C           -1.32208939111965       -0.25575477549909       -0.52127896661577
C           -2.83053724753607       -0.19831974926055       -0.60592760638541
N           -3.35247637915053        0.52846193594528        0.54877122253487
C           -0.54774461165255        0.74734422344368       -1.10626651390453
C            0.83572069400966        0.75680573110471       -0.96640606315704
H            4.22104920618830       -0.39260251482622        1.35526961162110
H            4.26804521625183        1.06386733708934        0.26968620955627
H            2.97478750242383        0.91128895574801        1.53040518723328
H            1.17941665007808       -2.05957554169421        0.94575551904606
H           -1.29492083032984       -2.04746803240872        0.67454963788775
H           -3.14302061038195        0.31935192211410       -1.51664575221359
H           -3.25233985151868       -1.20686060272187       -0.60418501830479
H           -3.05579965967571        0.05542632358927        1.39217293266097
H           -2.93973305682641        1.45161105347257        0.56423525157854
H           -1.02028252952673        1.53526963744471       -1.67999435813584
H            1.45286703885970        1.52437799215843       -1.41067242511130

          :  Hamiltonian                  GFN1-xTB          :
         :: total energy             -30.735205837254 Eh    ::
         :: gradient norm              0.000714381999 Eh/a0 ::
         :: HOMO-LUMO gap              2.982464541088 eV    ::
         :: SCC energy               -31.143963003597 Eh    ::
         :: -> Gsolv                  -0.086462629121 Eh    ::
         :: repulsion energy           0.418326815190 Eh    ::

    * Orbital Energies and Occupations

         #    Occupation            Energy/Eh            Energy/eV
      -------------------------------------------------------------
         1        2.0000           -1.0054296             -27.3591
       ...           ...                  ...                  ...
        15        2.0000           -0.5899288             -16.0528
        16        2.0000           -0.5830417             -15.8654
        17        2.0000           -0.5740529             -15.6208
        18        2.0000           -0.5724217             -15.5764
        19        2.0000           -0.5679128             -15.4537
        20        2.0000           -0.5601225             -15.2417
        21        2.0000           -0.5347808             -14.5521
        22        2.0000           -0.5283645             -14.3775
        23        2.0000           -0.5149661             -14.0129
        24        2.0000           -0.4970096             -13.5243
        25        2.0000           -0.4870856             -13.2543
        26        2.0000           -0.4813351             -13.0978
        27        2.0000           -0.4215697             -11.4715 (HOMO)
        28                         -0.3119661              -8.4890 (LUMO)
        29                         -0.3096283              -8.4254
        30                         -0.2588138              -7.0427
        31                         -0.1886483              -5.1334
        32                         -0.1804163              -4.9094
        33                         -0.1400626              -3.8113
        34                         -0.1365779              -3.7165
        35                         -0.1258177              -3.4237
        36                         -0.1254854              -3.4146
        37                         -0.1239555              -3.3730
        38                         -0.1213852              -3.3031
       ...                                ...                  ...
        62                          0.6139424              16.7062
      -------------------------------------------------------------
                  HL-Gap            0.1096036 Eh            2.9825 eV

Wiberg/Mayer (AO) data.
largest (>0.10) Wiberg bond orders for each atom

     #   Z sym  total        # sym  WBO       # sym  WBO       # sym  WBO
 ---------------------------------------------------------------------------
     1   6 C    3.677 --    13 H    0.980    12 H    0.978    11 H    0.977
                             2 F    0.715
     2   9 F    1.434 --     1 C    0.715     3 C    0.632
     3   6 C    3.686 --    10 C    1.432     4 C    1.430     2 F    0.632
     4   6 C    3.984 --     3 C    1.430     5 C    1.426    14 H    0.961
                             9 C    0.109
     5   6 C    3.988 --     4 C    1.426     6 C    1.410    15 H    0.967
                            10 C    0.109
     6   6 C    3.979 --     9 C    1.411     5 C    1.410     7 C    0.998
     7   6 C    3.977 --     6 C    0.998     8 N    0.987    16 H    0.977
                            17 H    0.976
     8   7 N    2.970 --     7 C    0.987    18 H    0.946    19 H    0.946
     9   6 C    3.988 --    10 C    1.425     6 C    1.411    20 H    0.967
                             4 C    0.109
    10   6 C    3.984 --     3 C    1.432     9 C    1.425    21 H    0.961
                             5 C    0.109
    11   1 H    0.992 --     1 C    0.977
    12   1 H    0.992 --     1 C    0.978
    13   1 H    0.994 --     1 C    0.980
    14   1 H    0.990 --     4 C    0.961
    15   1 H    0.994 --     5 C    0.967
    16   1 H    1.007 --     7 C    0.977
    17   1 H    1.007 --     7 C    0.976
    18   1 H    0.958 --     8 N    0.946
    19   1 H    0.958 --     8 N    0.946
    20   1 H    0.995 --     9 C    0.967
    21   1 H    0.990 --    10 C    0.961
 ---------------------------------------------------------------------------

           -------------------------------------------------
          | TOTAL ENERGY              -30.735205837254 Eh   |
          | GRADIENT NORM               0.000714381999 Eh/α |
          | HOMO-LUMO GAP               2.982464541088 eV   |
           -------------------------------------------------

 * finished run on 2023/06/20 at 15:14:57.496
