   * xtb version 6.5.1 (579679a) compiled by 'ehlert@majestix' on 2022-07-11
          program call               : /lustre/hpc/kemi/ree/PhD/git/ReactivityQM/dep/xtb-6.5.1/bin/xtb --gfn 1 /lustre/hpc/kemi/ree/PhD/git/ReactivityQM/calculations/R02deprot/reac01prodN19/conf09/R02deprot_reac01prodN19_conf09_gfn1.xyz --opt --vfukui --chrg 0 --uhf 0 --alpb DMSO

   ID    Z sym.   atoms
    1    6 C      1, 3, 5, 7-10, 12, 14, 17, 18, 21, 23, 24
    2    8 O      2, 4, 13, 19, 22, 25
    3    7 N      6, 11, 15, 16, 20
    4    1 H      26-42

      * Solvation model:               ALPB
        Solvent                        DMSO
        Solvent mass                       7.8130E+01 g/mol
          :  Hamiltonian                  GFN1-xTB          :
 * total energy  :   -82.9892083 Eh     change       -0.9379164E-11 Eh
 * total energy  :   -83.0027307 Eh     change       -0.1352238E-01 Eh
 * total energy  :   -83.0080978 Eh     change       -0.5367104E-02 Eh
 * total energy  :   -83.0090299 Eh     change       -0.9320697E-03 Eh
 * total energy  :   -83.0094892 Eh     change       -0.4593226E-03 Eh
 * total energy  :   -83.0096155 Eh     change       -0.1263168E-03 Eh
 * total energy  :   -83.0097020 Eh     change       -0.8645489E-04 Eh
 * total energy  :   -83.0097597 Eh     change       -0.5777887E-04 Eh
 * total energy  :   -83.0098077 Eh     change       -0.4791847E-04 Eh
 * total energy  :   -83.0098522 Eh     change       -0.4448871E-04 Eh
 * total energy  :   -83.0100049 Eh     change       -0.3959573E-04 Eh
 * total energy  :   -83.0100266 Eh     change       -0.2169479E-04 Eh
 * total energy  :   -83.0100641 Eh     change       -0.3758713E-04 Eh
 * total energy  :   -83.0100884 Eh     change       -0.2428468E-04 Eh
 * total energy  :   -83.0100957 Eh     change       -0.7303077E-05 Eh
 * total energy  :   -83.0101076 Eh     change       -0.1191684E-04 Eh
 * total energy  :   -83.0101145 Eh     change       -0.6865453E-05 Eh
 * total energy  :   -83.0101289 Eh     change       -0.1441737E-04 Eh
 * total energy  :   -83.0101333 Eh     change       -0.4387206E-05 Eh
   *** GEOMETRY OPTIMIZATION CONVERGED AFTER 22 ITERATIONS ***

 final structure:
================
42
 xtb: 6.5.1 (579679a)
C            6.15589763240561        2.00018175693615        1.87550272890891
O            5.12363569122911        1.14344849817955        1.37758591329411
C            4.01859997629578        1.73966804323548        0.93941176051780
O            3.86539885486836        2.93956237879710        0.94669847600100
C            2.97662508530782        0.78421645137091        0.44741873693520
N            1.82039139042061        1.37395726173517        0.07743871061286
C            0.82389878012709        0.63356313589466       -0.34412785426887
C           -0.45562002184150        1.32371471860182       -0.77310442778801
C           -0.68423297873369        2.59338422966631        0.05279113568449
C           -0.35067369966425        1.64659684938189       -2.27266199403884
N           -1.54479004770760        0.37275181506539       -0.54888745659683
C           -2.83750381565725        0.62196805939870       -0.82014630240731
O           -3.28698224330927        1.66586611904053       -1.26333623076738
C           -3.68148611260035       -0.55602712166806       -0.47988534015409
N           -3.26516571180203       -1.66908539979089        0.04617819425303
N           -4.36405365003354       -2.45706567458802        0.21951638278479
C           -5.38052209468412       -1.77338934147220       -0.21152601476935
C           -6.80036988738313       -2.18909454460419       -0.24004181570201
O           -5.01418790536072       -0.56521576890032       -0.66480725667888
N            0.86369337882653       -0.70627335711546       -0.46158637089648
C            1.98182608099845       -1.30864367435979       -0.12166805566465
O            2.10071712160231       -2.63647812641275       -0.21501422836886
C            0.98651449360221       -3.35906958517886       -0.74071139031408
C            3.10964588724444       -0.59284768966120        0.36047776356288
O            4.22987670403323       -1.24991666230237        0.70045431362169
H            6.48886989212303        2.68248524517849        1.08987089746286
H            6.97371521437000        1.35413377630720        2.18771540791255
H            5.78476721681424        2.57991121882122        2.72402144330309
H           -1.56136687231490        3.12701248838065       -0.30825076126129
H           -0.82901521237391        2.33274443922006        1.10041215842524
H            0.18864407165478        3.23903104137054       -0.03333139848416
H            0.50465710984160        2.29806595767350       -2.44469257767301
H           -0.21738818380025        0.72591058748925       -2.83828121200917
H           -1.25592234783435        2.14736841013233       -2.61174889455317
H           -1.28016521507736       -0.55640506459485       -0.24798483920001
H           -7.15083238716383       -2.24843738795120       -1.27046458904097
H           -6.90505669817919       -3.16172652462335        0.23391691166889
H           -7.41465969395261       -1.45714624304805        0.28360269056531
H            0.80030155036525       -3.05928125478756       -1.77524823576162
H            0.09314600860426       -3.16421317374206       -0.14158493745331
H            1.25338176104707       -4.41315741191518       -0.69373233474478
H            4.13579287769091       -2.20206747516621        0.55173989307608

          :  Hamiltonian                  GFN1-xTB          :
         :: total energy             -83.010133317787 Eh    ::
         :: gradient norm              0.000479040817 Eh/a0 ::
         :: HOMO-LUMO gap              2.951621247010 eV    ::
         :: SCC energy               -83.787354542370 Eh    ::
         :: -> Gsolv                  -0.051596261576 Eh    ::
         :: repulsion energy           0.802199578336 Eh    ::

    * Orbital Energies and Occupations

         #    Occupation            Energy/Eh            Energy/eV
      -------------------------------------------------------------
         1        2.0000           -0.8619814             -23.4557
       ...           ...                  ...                  ...
        55        2.0000           -0.5007506             -13.6261
        56        2.0000           -0.4980195             -13.5518
        57        2.0000           -0.4972303             -13.5303
        58        2.0000           -0.4809421             -13.0871
        59        2.0000           -0.4805991             -13.0778
        60        2.0000           -0.4770219             -12.9804
        61        2.0000           -0.4711381             -12.8203
        62        2.0000           -0.4602515             -12.5241
        63        2.0000           -0.4579537             -12.4616
        64        2.0000           -0.4493855             -12.2284
        65        2.0000           -0.4447200             -12.1014
        66        2.0000           -0.4358226             -11.8593
        67        2.0000           -0.4321710             -11.7600 (HOMO)
        68                         -0.3237010              -8.8084 (LUMO)
        69                         -0.3071270              -8.3574
        70                         -0.2841718              -7.7327
        71                         -0.2555563              -6.9540
        72                         -0.2394081              -6.5146
        73                         -0.1954430              -5.3183
        74                         -0.1565939              -4.2611
        75                         -0.1424871              -3.8773
        76                         -0.1417338              -3.8568
        77                         -0.1386608              -3.7732
        78                         -0.1212140              -3.2984
       ...                                ...                  ...
       134                          0.7262411              19.7620
      -------------------------------------------------------------
                  HL-Gap            0.1084701 Eh            2.9516 eV

Wiberg/Mayer (AO) data.
largest (>0.10) Wiberg bond orders for each atom

     #   Z sym  total        # sym  WBO       # sym  WBO       # sym  WBO
 ---------------------------------------------------------------------------
     1   6 C    3.871 --    27 H    0.986    28 H    0.979    26 H    0.979
                             2 O    0.896
     2   8 O    2.208 --     3 C    1.120     1 C    0.896     4 O    0.136
     3   6 C    3.849 --     4 O    1.662     2 O    1.120     5 C    0.990
     4   8 O    1.924 --     3 C    1.662     2 O    0.136
     5   6 C    3.968 --    24 C    1.405     6 N    1.290     3 C    0.990
     6   7 N    3.031 --     7 C    1.476     5 C    1.290
     7   6 C    3.944 --     6 N    1.476    20 N    1.300     8 C    0.983
     8   6 C    3.935 --     9 C    0.991     7 C    0.983    10 C    0.972
                            11 N    0.925
     9   6 C    3.991 --     8 C    0.991    30 H    0.986    31 H    0.983
                            29 H    0.982
    10   6 C    3.990 --    33 H    0.986    32 H    0.986    34 H    0.980
                             8 C    0.972
    11   7 N    3.359 --    12 C    1.269     8 C    0.925    35 H    0.885
                            13 O    0.181
    12   6 C    3.920 --    13 O    1.584    11 N    1.269    14 C    0.985
    13   8 O    1.902 --    12 C    1.584    11 N    0.181
    14   6 C    3.873 --    15 N    1.612    19 O    1.064    12 C    0.985
    15   7 N    3.014 --    14 C    1.612    16 N    1.197
    16   7 N    2.980 --    17 C    1.608    15 N    1.197
    17   6 C    3.871 --    16 N    1.608    19 O    1.082    18 C    1.031
    18   6 C    3.987 --    17 C    1.031    37 H    0.983    38 H    0.965
                            36 H    0.962
    19   8 O    2.329 --    17 C    1.082    14 C    1.064
    20   7 N    3.039 --    21 C    1.413     7 C    1.300
    21   6 C    3.907 --    20 N    1.413    24 C    1.207    22 O    1.083
    22   8 O    2.183 --    21 C    1.083    23 C    0.896
    23   6 C    3.870 --    41 H    0.984    40 H    0.980    39 H    0.980
                            22 O    0.896
    24   6 C    3.924 --     5 C    1.405    21 C    1.207    25 O    1.088
    25   8 O    2.065 --    24 C    1.088    42 H    0.815
    26   1 H    1.007 --     1 C    0.979
    27   1 H    1.011 --     1 C    0.986
    28   1 H    1.007 --     1 C    0.979
    29   1 H    1.010 --     9 C    0.982
    30   1 H    1.004 --     9 C    0.986
    31   1 H    1.013 --     9 C    0.983
    32   1 H    1.003 --    10 C    0.986
    33   1 H    1.004 --    10 C    0.986
    34   1 H    1.008 --    10 C    0.980
    35   1 H    0.970 --    11 N    0.885
    36   1 H    0.997 --    18 C    0.962
    37   1 H    0.999 --    18 C    0.983
    38   1 H    0.997 --    18 C    0.965
    39   1 H    1.007 --    23 C    0.980
    40   1 H    1.010 --    23 C    0.980
    41   1 H    1.009 --    23 C    0.984
    42   1 H    0.843 --    25 O    0.815
 ---------------------------------------------------------------------------

           -------------------------------------------------
          | TOTAL ENERGY              -83.010133317787 Eh   |
          | GRADIENT NORM               0.000479040817 Eh/α |
          | HOMO-LUMO GAP               2.951621247010 eV   |
           -------------------------------------------------

 * finished run on 2023/06/20 at 18:31:05.614
