   * xtb version 6.5.1 (579679a) compiled by 'ehlert@majestix' on 2022-07-11
          program call               : /lustre/hpc/kemi/ree/PhD/git/ReactivityQM/dep/xtb-6.5.1/bin/xtb --gfn 1 /lustre/hpc/kemi/ree/PhD/git/ReactivityQM/calculations/R02oxygendeprot/reac01prodE07/conf06/R02oxygendeprot_reac01prodE07_conf06_gfn1.xyz --opt --vfukui --chrg -2 --uhf 0 --alpb DMSO

   ID    Z sym.   atoms
    1    6 C      1, 3, 5, 7-10, 12, 14, 15, 18, 19, 22, 24
    2    8 O      2, 4, 13, 20, 23, 25
    3    7 N      6, 11, 16, 17, 21
    4    1 H      26-42

      * Solvation model:               ALPB
        Solvent                        DMSO
        Solvent mass                       7.8130E+01 g/mol
          :  Hamiltonian                  GFN1-xTB          :
 * total energy  :   -83.5813959 Eh     change       -0.1902677E-08 Eh
 * total energy  :   -83.5948893 Eh     change       -0.1349338E-01 Eh
 * total energy  :   -83.6011798 Eh     change       -0.6290520E-02 Eh
 * total energy  :   -83.6028497 Eh     change       -0.1669877E-02 Eh
 * total energy  :   -83.6039260 Eh     change       -0.1076262E-02 Eh
 * total energy  :   -83.6044317 Eh     change       -0.5057771E-03 Eh
 * total energy  :   -83.6048708 Eh     change       -0.4390922E-03 Eh
 * total energy  :   -83.6052724 Eh     change       -0.4015267E-03 Eh
 * total energy  :   -83.6056385 Eh     change       -0.3660926E-03 Eh
 * total energy  :   -83.6059874 Eh     change       -0.3489011E-03 Eh
 * total energy  :   -83.6190606 Eh     change       -0.7340381E-05 Eh
 * total energy  :   -83.6190677 Eh     change       -0.7172911E-05 Eh
 * total energy  :   -83.6190748 Eh     change       -0.7080382E-05 Eh
 * total energy  :   -83.6190820 Eh     change       -0.7122810E-05 Eh
 * total energy  :   -83.6190893 Eh     change       -0.7385232E-05 Eh
 * total energy  :   -83.6190973 Eh     change       -0.7921495E-05 Eh
 * total energy  :   -83.6191060 Eh     change       -0.8785736E-05 Eh
 * total energy  :   -83.6191158 Eh     change       -0.9800210E-05 Eh
 * total energy  :   -83.6191200 Eh     change       -0.4107515E-05 Eh
   *** GEOMETRY OPTIMIZATION CONVERGED AFTER 122 ITERATIONS ***

 final structure:
================
42
 xtb: 6.5.1 (579679a)
C            5.30731401937779        0.71295793497317        2.62110949985167
O            4.32686882530588        0.45903531033355        1.62896767133211
C            4.67632053798170        0.81199718354953        0.34831373467014
O            5.77533101471728        1.30423460038085        0.13110872837131
C            3.62497301047915        0.53866777929675       -0.61138722234999
N            2.47693912041434       -0.03043490549249       -0.08413514161690
C            1.47355407875721       -0.28414269431537       -0.84040323128276
C            0.20567521980665       -0.91903867244133       -0.31157002487453
C            0.15578040984238       -0.78402904946721        1.21844657941056
C            0.18191207448496       -2.40096459929459       -0.71786494812244
N           -0.92828998703097       -0.23427393485373       -0.97156227955792
C           -2.22432665444613       -0.60973413509016       -0.41871234710121
O           -2.92178557107051       -1.60397811233525       -1.12591129384746
C           -3.56301123637332       -1.17152499281723       -2.31950801472588
C           -2.84738947726728        0.32109822304191        0.37540235116692
N           -2.22313122967490        1.36138954591322        0.97776176802224
N           -3.17152664429938        1.95336658126086        1.79120144451267
C           -4.26571771629823        1.29265615285439        1.66798336369762
C           -5.56080545311970        1.54936143280581        2.35445945411179
O           -4.16583362549510        0.23585959574112        0.79154234535493
N            1.49310546368555       -0.00323502679775       -2.19182117207443
C            2.55922885420089        0.54186104427942       -2.84726946497863
O            2.49454198932937        0.75886431479381       -4.05910117635990
C            3.76706124024442        0.84901116829576       -1.98977127060943
O            4.77591243472328        1.34490440353254       -2.53067990136071
H            5.55137079497437        1.77980973461539        2.66616185390412
H            4.88978908657390        0.39327385854161        3.57527129159173
H            6.22531631283702        0.15217882820729        2.41632909265281
H            0.03025702847242        0.26346720567234        1.49756812667803
H            1.08195127828353       -1.16026636559584        1.65308261009585
H           -0.68246275656037       -1.35536534732353        1.61611016074121
H            0.24124665690925       -2.48917396384053       -1.80261966707158
H           -0.74698957445199       -2.86251705304058       -0.38338231911151
H            1.02305004326761       -2.93166203778376       -0.27230175618557
H           -0.81344550977480        0.76984344192153       -0.80387952034889
H           -2.83819290972212       -0.75580341348345       -3.03289090984340
H           -4.04454156489375       -2.04327984647810       -2.76889576088418
H           -4.32675034449297       -0.41042873495039       -2.10900881963955
H           -5.88948920052549        0.66499519438360        2.90240689757340
H           -6.33923307156588        1.80543470238160        1.63370317238131
H           -5.43995161873178        2.37585969322560        3.05220505267366
H            0.65537765112687       -0.19027704459410       -2.72645695683792

          :  Hamiltonian                  GFN1-xTB          :
         :: total energy             -83.619119953244 Eh    ::
         :: gradient norm              0.000188471070 Eh/a0 ::
         :: HOMO-LUMO gap              0.580660916103 eV    ::
         :: SCC energy               -84.351243276241 Eh    ::
         :: -> Gsolv                  -0.260157630997 Eh    ::
         :: repulsion energy           0.757981697370 Eh    ::

    * Orbital Energies and Occupations

         #    Occupation            Energy/Eh            Energy/eV
      -------------------------------------------------------------
         1        2.0000           -0.7902193             -21.5030
       ...           ...                  ...                  ...
        56        2.0000           -0.4428225             -12.0498
        57        2.0000           -0.4290711             -11.6756
        58        2.0000           -0.4252439             -11.5715
        59        2.0000           -0.4156927             -11.3116
        60        2.0000           -0.4116469             -11.2015
        61        2.0000           -0.4011057             -10.9146
        62        2.0000           -0.3924878             -10.6801
        63        2.0000           -0.3862204             -10.5096
        64        2.0000           -0.3716579             -10.1133
        65        2.0000           -0.3662705              -9.9667
        66        2.0000           -0.3647610              -9.9257
        67        2.0000           -0.3533109              -9.6141
        68        2.0000           -0.2815537              -7.6615 (HOMO)
        69        0.0000           -0.2602148              -7.0808 (LUMO)
        70                         -0.2219644              -6.0400
        71                         -0.1866822              -5.0799
        72                         -0.1818219              -4.9476
        73                         -0.1389554              -3.7812
        74                         -0.1195408              -3.2529
        75                         -0.1134285              -3.0865
        76                         -0.1032531              -2.8097
        77                         -0.1002642              -2.7283
        78                         -0.0957837              -2.6064
        79                         -0.0892219              -2.4279
       ...                                ...                  ...
       134                          0.7687886              20.9198
      -------------------------------------------------------------
                  HL-Gap            0.0213389 Eh            0.5807 eV

Wiberg/Mayer (AO) data.
largest (>0.10) Wiberg bond orders for each atom

     #   Z sym  total        # sym  WBO       # sym  WBO       # sym  WBO
 ---------------------------------------------------------------------------
     1   6 C    3.904 --    27 H    0.987    28 H    0.980    26 H    0.980
                             2 O    0.932
     2   8 O    2.132 --     3 C    1.015     1 C    0.932     4 O    0.106
     3   6 C    3.848 --     4 O    1.581     5 C    1.132     2 O    1.015
     4   8 O    1.859 --     3 C    1.581     2 O    0.106
     5   6 C    3.919 --    24 C    1.273     6 N    1.146     3 C    1.132
                            25 O    0.129
     6   7 N    3.022 --     7 C    1.632     5 C    1.146
     7   6 C    3.926 --     6 N    1.632    21 N    1.093     8 C    0.981
     8   6 C    3.972 --     9 C    0.990    10 C    0.983     7 C    0.981
                            11 N    0.958
     9   6 C    3.997 --     8 C    0.990    31 H    0.986    30 H    0.985
                            29 H    0.982
    10   6 C    3.994 --    34 H    0.989    32 H    0.985     8 C    0.983
                            33 H    0.982
    11   7 N    3.028 --     8 C    0.958    12 C    0.948    35 H    0.944
    12   6 C    3.678 --    15 C    1.462    11 N    0.948    13 O    0.928
                            16 N    0.149
    13   8 O    2.000 --    14 C    0.946    12 C    0.928
    14   6 C    3.938 --    37 H    0.986    36 H    0.982    38 H    0.982
                            13 O    0.946
    15   6 C    3.866 --    12 C    1.462    16 N    1.292    20 O    0.967
    16   7 N    2.838 --    15 C    1.292    17 N    1.145    12 C    0.149
                            18 C    0.114
    17   7 N    2.987 --    18 C    1.679    16 N    1.145
    18   6 C    3.885 --    17 N    1.679    19 C    1.018    20 O    0.996
                            16 N    0.114
    19   6 C    3.996 --    18 C    1.018    41 H    0.987    39 H    0.976
                            40 H    0.975
    20   8 O    2.182 --    18 C    0.996    15 C    0.967
    21   7 N    3.439 --    22 C    1.180     7 C    1.093    42 H    0.895
                            23 O    0.136
    22   6 C    3.883 --    23 O    1.559    21 N    1.180    24 C    0.971
    23   8 O    1.838 --    22 C    1.559    21 N    0.136
    24   6 C    3.943 --    25 O    1.510     5 C    1.273    22 C    0.971
    25   8 O    1.813 --    24 C    1.510     5 C    0.129
    26   1 H    1.015 --     1 C    0.980
    27   1 H    1.017 --     1 C    0.987
    28   1 H    1.015 --     1 C    0.980
    29   1 H    1.030 --     9 C    0.982
    30   1 H    1.019 --     9 C    0.985
    31   1 H    1.018 --     9 C    0.986
    32   1 H    1.011 --    10 C    0.985
    33   1 H    1.016 --    10 C    0.982
    34   1 H    1.007 --    10 C    0.989
    35   1 H    0.994 --    11 N    0.944
    36   1 H    1.021 --    14 C    0.982
    37   1 H    1.022 --    14 C    0.986
    38   1 H    1.020 --    14 C    0.982
    39   1 H    1.007 --    19 C    0.976
    40   1 H    1.007 --    19 C    0.975
    41   1 H    1.008 --    19 C    0.987
    42   1 H    0.968 --    21 N    0.895
 ---------------------------------------------------------------------------

           -------------------------------------------------
          | TOTAL ENERGY              -83.619119953244 Eh   |
          | GRADIENT NORM               0.000188471070 Eh/α |
          | HOMO-LUMO GAP               0.580660916103 eV   |
           -------------------------------------------------

 * finished run on 2023/06/21 at 17:08:49.299
