   * xtb version 6.5.1 (579679a) compiled by 'ehlert@majestix' on 2022-07-11
          program call               : /lustre/hpc/kemi/ree/PhD/git/ReactivityQM/dep/xtb-6.5.1/bin/xtb --gfn 1 /lustre/hpc/kemi/ree/PhD/git/ReactivityQM/calculations/R02/reac01prodN10/conf13/R02_reac01prodN10_conf13_gfn1.xyz --opt --vfukui --chrg 1 --uhf 0 --alpb DMSO

   ID    Z sym.   atoms
    1    6 C      1, 3, 5, 6, 8, 11-15, 17, 19, 22, 23
    2    8 O      2, 4, 7, 9, 18, 24
    3    7 N      10, 16, 20, 21, 25
    4    1 H      26-43

      * Solvation model:               ALPB
        Solvent                        DMSO
        Solvent mass                       7.8130E+01 g/mol
          :  Hamiltonian                  GFN1-xTB          :
 * total energy  :   -83.0878944 Eh     change       -0.2739284E-09 Eh
 * total energy  :   -83.1054454 Eh     change       -0.1755098E-01 Eh
 * total energy  :   -83.1128388 Eh     change       -0.7393420E-02 Eh
 * total energy  :   -83.1143147 Eh     change       -0.1475879E-02 Eh
 * total energy  :   -83.1151623 Eh     change       -0.8476330E-03 Eh
 * total energy  :   -83.1154616 Eh     change       -0.2992804E-03 Eh
 * total energy  :   -83.1156581 Eh     change       -0.1965127E-03 Eh
 * total energy  :   -83.1157737 Eh     change       -0.1155757E-03 Eh
 * total energy  :   -83.1158780 Eh     change       -0.1042917E-03 Eh
 * total energy  :   -83.1159927 Eh     change       -0.1146824E-03 Eh
 * total energy  :   -83.1203220 Eh     change       -0.1220562E-04 Eh
 * total energy  :   -83.1203410 Eh     change       -0.1901535E-04 Eh
 * total energy  :   -83.1203539 Eh     change       -0.1283980E-04 Eh
 * total energy  :   -83.1203662 Eh     change       -0.1227076E-04 Eh
 * total energy  :   -83.1203772 Eh     change       -0.1107689E-04 Eh
 * total energy  :   -83.1203975 Eh     change       -0.2026887E-04 Eh
 * total energy  :   -83.1204060 Eh     change       -0.8509953E-05 Eh
 * total energy  :   -83.1204136 Eh     change       -0.7596256E-05 Eh
 * total energy  :   -83.1204185 Eh     change       -0.4852544E-05 Eh
   *** GEOMETRY OPTIMIZATION CONVERGED AFTER 87 ITERATIONS ***

 final structure:
================
43
 xtb: 6.5.1 (579679a)
C           -4.52947524693755       -3.28124416652790        0.22743134053181
O           -4.10633780781876       -1.91533594621708        0.07059545244342
C           -2.81175525678971       -1.68880124315741        0.04622323412733
O           -1.95184832152518       -2.52452246046358        0.13757715931996
C           -2.47862414671571       -0.21400583273824       -0.11015813939768
C           -3.38770072862425        0.84670700351119        0.07973097119365
O           -4.62590623866967        0.68862227340040        0.38985282369664
C           -2.93366240875485        2.25392196904473       -0.09611936029740
O           -3.71678745600062        3.17043605683558        0.03448633293955
N           -1.62885030260011        2.37647123972310       -0.42758185905356
C           -0.70209557248494        1.29793215471503       -0.52971045958839
C            0.13479871498559        1.42202827855234       -1.80529432050997
C            0.31109826136501        1.37280567542806        0.82099051899455
C            0.86733623008033        2.78457590972886        0.92308442293213
C           -0.52773776140759        1.03799143473996        2.04822841755449
N            1.29400401901349        0.37275178478632        0.64435632909111
C            2.52340160592541        0.51904787510285        0.04429769024955
O            2.95972877935025        1.55496295792872       -0.40431974671405
C            3.23362805875718       -0.77148213012318        0.03164708277546
N            2.76461372889701       -1.90571298743416        0.46643293215480
N            3.72518449031619       -2.83531124015690        0.24938519059929
C            4.72709800575164       -2.21475629726872       -0.30748123443811
C            6.02139442836585       -2.78736013532435       -0.73302053646115
O            4.47197603388199       -0.91081928955109       -0.46989103506746
N           -1.23208577721440        0.03305963759359       -0.43028096345377
H           -5.61616861989648       -3.26055184380445        0.26490055472916
H           -4.11768229472274       -3.68877935202267        1.15251298866645
H           -4.18312903009863       -3.87312193091396       -0.62200947770518
H           -5.08309357313480        1.55599475497641        0.47923385667345
H           -1.29893996090001        3.31233193719776       -0.61633966834859
H            0.73432646220369        2.32784350170733       -1.79968842505915
H           -0.55183267283053        1.45131255001987       -2.64965081079775
H            0.77908817174241        0.55149400860830       -1.89822661822033
H            0.09315285840991        3.44995960193832        1.29958876981808
H            1.23712341767983        3.16966324398646       -0.02289463019917
H            1.69763606357700        2.77209790835323        1.62902544699974
H           -1.41544439390939        1.66529310976961        2.09052302678108
H           -0.82602195942289       -0.00864905305298        2.05126740554244
H            0.07442447970833        1.23391451174786        2.93496920489306
H            1.02946639324194       -0.57106672756041        0.90537937775780
H            5.98670072785516       -3.87182591342897       -0.65554007402091
H            6.82136081470488       -2.40372441904509       -0.09759306012652
H            6.23763878464775       -2.49414641060115       -1.76052511100368

          :  Hamiltonian                  GFN1-xTB          :
         :: total energy             -83.120418464589 Eh    ::
         :: gradient norm              0.000964534471 Eh/a0 ::
         :: HOMO-LUMO gap              0.997789167051 eV    ::
         :: SCC energy               -83.911506122801 Eh    ::
         :: -> Gsolv                  -0.110001561887 Eh    ::
         :: repulsion energy           0.819475164874 Eh    ::

    * Orbital Energies and Occupations

         #    Occupation            Energy/Eh            Energy/eV
      -------------------------------------------------------------
         1        2.0000           -0.8979784             -24.4352
       ...           ...                  ...                  ...
        55        2.0000           -0.5338172             -14.5259
        56        2.0000           -0.5304116             -14.4332
        57        2.0000           -0.5242616             -14.2659
        58        2.0000           -0.5238370             -14.2543
        59        2.0000           -0.5196908             -14.1415
        60        2.0000           -0.5179723             -14.0947
        61        2.0000           -0.5120791             -13.9344
        62        2.0000           -0.5020165             -13.6606
        63        2.0000           -0.4943460             -13.4518
        64        2.0000           -0.4903064             -13.3419
        65        2.0000           -0.4829077             -13.1406
        66        2.0000           -0.4704274             -12.8010
        67        2.0000           -0.4693153             -12.7707 (HOMO)
        68                         -0.4326472             -11.7729 (LUMO)
        69                         -0.3579448              -9.7402
        70                         -0.3370802              -9.1724
        71                         -0.2808427              -7.6421
        72                         -0.2720981              -7.4042
        73                         -0.2293571              -6.2411
        74                         -0.2222625              -6.0481
        75                         -0.1622972              -4.4163
        76                         -0.1559642              -4.2440
        77                         -0.1515659              -4.1243
        78                         -0.1488484              -4.0504
       ...                                ...                  ...
       136                          0.7199477              19.5908
      -------------------------------------------------------------
                  HL-Gap            0.0366681 Eh            0.9978 eV

Wiberg/Mayer (AO) data.
largest (>0.10) Wiberg bond orders for each atom

     #   Z sym  total        # sym  WBO       # sym  WBO       # sym  WBO
 ---------------------------------------------------------------------------
     1   6 C    3.847 --    26 H    0.985    27 H    0.978    28 H    0.978
                             2 O    0.874
     2   8 O    2.229 --     3 C    1.160     1 C    0.874     4 O    0.150
     3   6 C    3.864 --     4 O    1.688     2 O    1.160     5 C    0.943
     4   8 O    1.955 --     3 C    1.688     2 O    0.150
     5   6 C    3.952 --    25 N    1.507     6 C    1.249     3 C    0.943
     6   6 C    3.836 --     7 O    1.306     5 C    1.249     8 C    0.985
     7   8 O    2.228 --     6 C    1.306    29 H    0.755
     8   6 C    3.919 --     9 O    1.615    10 N    1.219     6 C    0.985
     9   8 O    1.945 --     8 C    1.615    10 N    0.182
    10   7 N    3.436 --     8 C    1.219    11 C    0.991    30 H    0.869
                             9 O    0.182
    11   6 C    3.905 --    25 N    1.155    10 N    0.991    12 C    0.943
                            13 C    0.672
    12   6 C    3.961 --    33 H    0.979    31 H    0.976    32 H    0.974
                            11 C    0.943
    13   6 C    3.902 --    16 N    1.040    15 C    1.003    14 C    0.999
                            11 C    0.672
    14   6 C    3.977 --    13 C    0.999    34 H    0.981    35 H    0.969
                            36 H    0.960
    15   6 C    3.985 --    13 C    1.003    38 H    0.980    37 H    0.980
                            39 H    0.966
    16   7 N    3.382 --    17 C    1.146    13 C    1.040    40 H    0.882
                            18 O    0.134
    17   6 C    3.901 --    18 O    1.642    16 N    1.146    19 C    1.012
    18   8 O    1.945 --    17 C    1.642    16 N    0.134
    19   6 C    3.880 --    20 N    1.582    24 O    1.067    17 C    1.012
    20   7 N    3.025 --    19 C    1.582    21 N    1.226
    21   7 N    2.979 --    22 C    1.575    20 N    1.226
    22   6 C    3.857 --    21 N    1.575    24 O    1.091    23 C    1.035
    23   6 C    3.982 --    22 C    1.035    41 H    0.981    43 H    0.964
                            42 H    0.956
    24   8 O    2.341 --    22 C    1.091    19 C    1.067
    25   7 N    3.033 --     5 C    1.507    11 C    1.155
    26   1 H    1.007 --     1 C    0.985
    27   1 H    1.002 --     1 C    0.978
    28   1 H    1.002 --     1 C    0.978
    29   1 H    0.802 --     7 O    0.755
    30   1 H    0.907 --    10 N    0.869
    31   1 H    0.999 --    12 C    0.976
    32   1 H    0.994 --    12 C    0.974
    33   1 H    0.999 --    12 C    0.979
    34   1 H    0.997 --    14 C    0.981
    35   1 H    1.007 --    14 C    0.969
    36   1 H    0.989 --    14 C    0.960
    37   1 H    0.997 --    15 C    0.980
    38   1 H    0.997 --    15 C    0.980
    39   1 H    0.992 --    15 C    0.966
    40   1 H    0.949 --    16 N    0.882
    41   1 H    0.997 --    23 C    0.981
    42   1 H    0.994 --    23 C    0.956
    43   1 H    0.994 --    23 C    0.964
 ---------------------------------------------------------------------------

           -------------------------------------------------
          | TOTAL ENERGY              -83.120418464589 Eh   |
          | GRADIENT NORM               0.000964534471 Eh/α |
          | HOMO-LUMO GAP               0.997789167051 eV   |
           -------------------------------------------------

 * finished run on 2023/06/20 at 15:31:21.792
