   * xtb version 6.5.1 (579679a) compiled by 'ehlert@majestix' on 2022-07-11
          program call               : /lustre/hpc/kemi/ree/PhD/git/ReactivityQM/dep/xtb-6.5.1/bin/xtb --gfn 1 /lustre/hpc/kemi/ree/PhD/git/ReactivityQM/calculations/R01/reac01prodN06/conf07/R01_reac01prodN06_conf07_gfn1.xyz --opt --vfukui --chrg 1 --uhf 0 --alpb DMSO

   ID    Z sym.   atoms
    1    6 C      1, 3, 5, 6, 9, 10
    2    8 O      2, 4, 11
    3    7 N      7, 8
    4    1 H      12-20

      * Solvation model:               ALPB
        Solvent                        DMSO
        Solvent mass                       7.8130E+01 g/mol
          :  Hamiltonian                  GFN1-xTB          :
 * total energy  :   -37.5807744 Eh     change       -0.1037392E-11 Eh
 * total energy  :   -37.5917623 Eh     change       -0.1098785E-01 Eh
 * total energy  :   -37.5960362 Eh     change       -0.4273939E-02 Eh
 * total energy  :   -37.5966830 Eh     change       -0.6467513E-03 Eh
 * total energy  :   -37.5971081 Eh     change       -0.4250955E-03 Eh
 * total energy  :   -37.5972525 Eh     change       -0.1444765E-03 Eh
 * total energy  :   -37.5973996 Eh     change       -0.1470804E-03 Eh
 * total energy  :   -37.5975228 Eh     change       -0.1231425E-03 Eh
 * total energy  :   -37.5976155 Eh     change       -0.9273187E-04 Eh
 * total energy  :   -37.5976994 Eh     change       -0.8387055E-04 Eh
 * total energy  :   -37.5980811 Eh     change       -0.1358435E-04 Eh
 * total energy  :   -37.5980917 Eh     change       -0.1067240E-04 Eh
 * total energy  :   -37.5981083 Eh     change       -0.1653575E-04 Eh
 * total energy  :   -37.5981318 Eh     change       -0.2348887E-04 Eh
 * total energy  :   -37.5969963 Eh     change        0.1135494E-02 Eh
 * total energy  :   -37.5981262 Eh     change       -0.1129945E-02 Eh
 * total energy  :   -37.5981758 Eh     change       -0.4960617E-04 Eh
 * total energy  :   -37.5981945 Eh     change       -0.1871697E-04 Eh
 * total energy  :   -37.5981992 Eh     change       -0.4615185E-05 Eh
   *** GEOMETRY OPTIMIZATION CONVERGED AFTER 33 ITERATIONS ***

 final structure:
================
20
 xtb: 6.5.1 (579679a)
C            2.84405536350091        1.13339194094611        0.27295857486021
O            1.49105164051163        0.62199121404786        0.18542977252667
C            1.32185785030349       -0.61528482033372       -0.12938403413852
O            2.11374956827404       -1.45486719111477       -0.41225619636703
C           -0.24714656673760       -0.97202743614907       -0.14736515129983
C           -0.44294706636840       -2.44478860565423        0.18458827342368
N           -0.67998795732667       -0.56298379321031       -1.43285070242206
N           -1.44884664559025        0.42823877121782       -1.32990360367621
C           -1.60554135895301        0.70338916186555        0.01247321932111
C           -2.42871156439540        1.77083701075158        0.56046607801780
O           -0.93310916105623       -0.11474139615269        0.72940131153564
H            3.27590732908900        0.81759651727232        1.22261273231771
H            3.43409251503694        0.75176672557464       -0.56045726597910
H            2.75212385145234        2.21573784524688        0.23083839443222
H           -1.49374841935477       -2.69954277305307        0.06943417787862
H           -0.13068492832015       -2.62170177584094        1.21132956607310
H            0.16644115311299       -3.03727344595236       -0.49496473911327
H           -2.37624367385845        2.65337854147879       -0.07672373018365
H           -2.14247487297833        1.99583305358824        1.58577863272686
H           -3.46983805634239        1.43105345547141        0.55498969006607

          :  Hamiltonian                  GFN1-xTB          :
         :: total energy             -37.598199152983 Eh    ::
         :: gradient norm              0.000529952169 Eh/a0 ::
         :: HOMO-LUMO gap              2.223827562491 eV    ::
         :: SCC energy               -37.939249375981 Eh    ::
         :: -> Gsolv                  -0.080689848735 Eh    ::
         :: repulsion energy           0.349893760702 Eh    ::

    * Orbital Energies and Occupations

         #    Occupation            Energy/Eh            Energy/eV
      -------------------------------------------------------------
         1        2.0000           -0.9437714             -25.6813
       ...           ...                  ...                  ...
        18        2.0000           -0.6163606             -16.7720
        19        2.0000           -0.6119626             -16.6523
        20        2.0000           -0.6014156             -16.3654
        21        2.0000           -0.6008117             -16.3489
        22        2.0000           -0.5855626             -15.9340
        23        2.0000           -0.5804534             -15.7949
        24        2.0000           -0.5722632             -15.5721
        25        2.0000           -0.5669091             -15.4264
        26        2.0000           -0.5646264             -15.3643
        27        2.0000           -0.5502515             -14.9731
        28        2.0000           -0.5397380             -14.6870
        29        2.0000           -0.5358031             -14.5799
        30        2.0000           -0.5166904             -14.0599 (HOMO)
        31                         -0.4349662             -11.8360 (LUMO)
        32                         -0.3414152              -9.2904
        33                         -0.3166998              -8.6178
        34                         -0.1810945              -4.9278
        35                         -0.1646093              -4.4792
        36                         -0.1601281              -4.3573
        37                         -0.1129850              -3.0745
        38                         -0.1098422              -2.9890
        39                         -0.1010659              -2.7501
        40                         -0.0988155              -2.6889
        41                         -0.0975819              -2.6553
       ...                                ...                  ...
        62                          0.7478512              20.3501
      -------------------------------------------------------------
                  HL-Gap            0.0817242 Eh            2.2238 eV

Wiberg/Mayer (AO) data.
largest (>0.10) Wiberg bond orders for each atom

     #   Z sym  total        # sym  WBO       # sym  WBO       # sym  WBO
 ---------------------------------------------------------------------------
     1   6 C    3.814 --    14 H    0.980    13 H    0.979    12 H    0.976
                             2 O    0.836
     2   8 O    2.265 --     3 C    1.230     1 C    0.836     4 O    0.154
     3   6 C    3.864 --     4 O    1.740     2 O    1.230     5 C    0.749
     4   8 O    2.072 --     3 C    1.740     2 O    0.154
     5   6 C    3.837 --     7 N    1.075     6 C    0.931    11 O    0.906
                             3 C    0.749
     6   6 C    3.949 --    16 H    0.976    15 H    0.975    17 H    0.973
                             5 C    0.931
     7   7 N    3.010 --     8 N    1.682     5 C    1.075
     8   7 N    3.023 --     7 N    1.682     9 C    1.176
     9   6 C    3.800 --    11 O    1.306     8 N    1.176    10 C    1.087
    10   6 C    3.962 --     9 C    1.087    19 H    0.963    18 H    0.945
                            20 H    0.896
    11   8 O    2.395 --     9 C    1.306     5 C    0.906
    12   1 H    0.997 --     1 C    0.976
    13   1 H    0.997 --     1 C    0.979
    14   1 H    1.002 --     1 C    0.980
    15   1 H    0.989 --     6 C    0.975
    16   1 H    0.989 --     6 C    0.976
    17   1 H    0.995 --     6 C    0.973
    18   1 H    0.983 --    10 C    0.945
    19   1 H    0.983 --    10 C    0.963
    20   1 H    0.975 --    10 C    0.896
 ---------------------------------------------------------------------------

           -------------------------------------------------
          | TOTAL ENERGY              -37.598199152983 Eh   |
          | GRADIENT NORM               0.000529952169 Eh/α |
          | HOMO-LUMO GAP               2.223827562491 eV   |
           -------------------------------------------------

 * finished run on 2023/06/20 at 14:56:09.650
