   * xtb version 6.5.1 (579679a) compiled by 'ehlert@majestix' on 2022-07-11
          program call               : /lustre/hpc/kemi/ree/PhD/git/ReactivityQM/dep/xtb-6.5.1/bin/xtb --gfn 1 /lustre/hpc/kemi/ree/PhD/git/ReactivityQM/calculations/R03/reac02prodE11/conf16/R03_reac02prodE11_conf16_gfn1.xyz --opt --vfukui --chrg -1 --uhf 0 --alpb DMSO

   ID    Z sym.   atoms
    1    6 C      1, 3, 5, 7-10, 12, 14, 17-19, 22, 23, 25
    2    8 O      2, 4, 13, 20, 24, 26
    3    7 N      6, 11, 15, 16, 21
    4    1 H      27-46

      * Solvation model:               ALPB
        Solvent                        DMSO
        Solvent mass                       7.8130E+01 g/mol
          :  Hamiltonian                  GFN1-xTB          :
 * total energy  :   -87.0460777 Eh     change       -0.7614176E-10 Eh
 * total energy  :   -87.0568891 Eh     change       -0.1081139E-01 Eh
 * total energy  :   -87.0607246 Eh     change       -0.3835506E-02 Eh
 * total energy  :   -87.0613815 Eh     change       -0.6569355E-03 Eh
 * total energy  :   -87.0617334 Eh     change       -0.3519235E-03 Eh
 * total energy  :   -87.0618623 Eh     change       -0.1288311E-03 Eh
 * total energy  :   -87.0619588 Eh     change       -0.9654372E-04 Eh
 * total energy  :   -87.0620176 Eh     change       -0.5878395E-04 Eh
 * total energy  :   -87.0620570 Eh     change       -0.3936076E-04 Eh
 * total energy  :   -87.0620870 Eh     change       -0.3000893E-04 Eh
 * total energy  :   -87.0623349 Eh     change       -0.7411930E-05 Eh
 * total energy  :   -87.0623422 Eh     change       -0.7295723E-05 Eh
 * total energy  :   -87.0623486 Eh     change       -0.6366171E-05 Eh
 * total energy  :   -87.0623553 Eh     change       -0.6714906E-05 Eh
 * total energy  :   -87.0623630 Eh     change       -0.7726311E-05 Eh
 * total energy  :   -87.0623702 Eh     change       -0.7220164E-05 Eh
 * total energy  :   -87.0623766 Eh     change       -0.6422661E-05 Eh
 * total energy  :   -87.0623823 Eh     change       -0.5678024E-05 Eh
 * total energy  :   -87.0623863 Eh     change       -0.4007412E-05 Eh
   *** GEOMETRY OPTIMIZATION CONVERGED AFTER 35 ITERATIONS ***

 final structure:
================
46
 xtb: 6.5.1 (579679a)
C           -6.81368088507064        1.44956012251979        1.60613890524298
O           -5.76306364117359        1.25225144471893        0.65958531950394
C           -4.66632187125883        0.63440640149529        1.10862261309620
O           -4.54545803313738        0.26123520872238        2.25609795453696
C           -3.62569776621275        0.44634416844809        0.06311089513432
N           -2.50093473812591       -0.19298651874590        0.50304812947273
C           -1.50993548165232       -0.46475372730812       -0.28559901261713
C           -0.34354267411757       -1.22298553713015        0.34323137593994
C           -0.52190603962856       -2.71372793400090        0.00390083753458
C           -0.39232055050703       -1.03741839388905        1.87085771829649
N            0.90637764669830       -0.69194596289996       -0.18920274100707
C            2.15218749114867       -1.16577994290939        0.30028456656861
O            2.26701182067418       -2.28479340971348        0.82893208678309
C            3.18463442755046       -0.23712899132623        0.04487256503634
N            3.01435709397379        0.96704507369692       -0.49274091687034
N            4.14350436166683        1.59358384486692       -0.60652873053347
C            5.19800622384082        0.70507299838662       -0.08904700673209
C            5.90623005300363        1.37606518162323        1.09819843044680
C            6.19580435973722        0.37741024563924       -1.21165856274576
O            4.53274363150842       -0.47579827472935        0.33792239939104
N           -1.54591053293527       -0.13748500018192       -1.62084632729694
C           -0.49625715324047       -0.44732567605976       -2.59550883576071
C           -2.61594069955923        0.55389758080841       -2.15550395218315
O           -2.65461773230829        0.89325421481281       -3.33922204677359
C           -3.70745461437460        0.84261527688054       -1.24563008228514
O           -4.74883490946566        1.49586206589165       -1.78757156951642
H           -7.60157771461519        1.99436972441769        1.08964950803362
H           -6.45124314027201        2.02767517864103        2.46032899418921
H           -7.19017814516392        0.48546137511453        1.95799669304589
H           -0.40798931686850       -2.88911248908498       -1.06393735933481
H            0.21626808374986       -3.31055909840363        0.53636618982927
H           -1.51892012722091       -3.03263461178801        0.30595353841024
H            0.43400906056578       -1.57852422033038        2.32886527605746
H           -1.33079971736148       -1.42293901222949        2.26560401975628
H           -0.31290944634712        0.01954592758316        2.12210247667152
H            0.89752982890572        0.31850744072554       -0.28568712274028
H            6.65847693151776        0.70741908617861        1.51298725250511
H            6.38360789102873        2.29660937701399        0.76879086296851
H            5.17386033060821        1.61050675302131        1.86895590516991
H            6.96098859267569       -0.30578286314367       -0.84713224084274
H            5.66565422761732       -0.09062236996251       -2.03957738608273
H            6.66662116080426        1.29322019574172       -1.56299812584877
H            0.12817480155629        0.43410539729792       -2.74526717959230
H            0.11463696048812       -1.27565142098555       -2.25448098880017
H           -0.97912753462157       -0.70677149030710       -3.53750783115135
H           -4.55606251408439        1.64870366088406       -2.73167949490648

          :  Hamiltonian                  GFN1-xTB          :
         :: total energy             -87.062386329270 Eh    ::
         :: gradient norm              0.000506399120 Eh/a0 ::
         :: HOMO-LUMO gap              0.181203887359 eV    ::
         :: SCC energy               -87.855122715817 Eh    ::
         :: -> Gsolv                  -0.108527818585 Eh    ::
         :: repulsion energy           0.821573154219 Eh    ::

    * Orbital Energies and Occupations

         #    Occupation            Energy/Eh            Energy/eV
      -------------------------------------------------------------
         1        2.0000           -0.8323459             -22.6493
       ...           ...                  ...                  ...
        59        2.0000           -0.4764613             -12.9652
        60        2.0000           -0.4725690             -12.8593
        61        2.0000           -0.4631521             -12.6030
        62        2.0000           -0.4511018             -12.2751
        63        2.0000           -0.4495358             -12.2325
        64        2.0000           -0.4413748             -12.0104
        65        2.0000           -0.4356656             -11.8551
        66        2.0000           -0.4238267             -11.5329
        67        2.0000           -0.4186657             -11.3925
        68        2.0000           -0.4117815             -11.2051
        69        2.0000           -0.3988142             -10.8523
        70        2.0000           -0.3769537             -10.2574
        71        1.9416           -0.3213614              -8.7447 (HOMO)
        72        0.0584           -0.3147023              -8.5635 (LUMO)
        73                         -0.2716183              -7.3911
        74                         -0.2456959              -6.6857
        75                         -0.2314432              -6.2979
        76                         -0.1470639              -4.0018
        77                         -0.1355632              -3.6889
        78                         -0.1337689              -3.6400
        79                         -0.1269991              -3.4558
        80                         -0.1124835              -3.0608
        81                         -0.1054162              -2.8685
        82                         -0.1026199              -2.7924
       ...                                ...                  ...
       144                          0.7281826              19.8149
      -------------------------------------------------------------
                  HL-Gap            0.0066591 Eh            0.1812 eV

Wiberg/Mayer (AO) data.
largest (>0.10) Wiberg bond orders for each atom

     #   Z sym  total        # sym  WBO       # sym  WBO       # sym  WBO
 ---------------------------------------------------------------------------
     1   6 C    3.877 --    27 H    0.986    28 H    0.980    29 H    0.980
                             2 O    0.903
     2   8 O    2.191 --     3 C    1.101     1 C    0.903     4 O    0.130
     3   6 C    3.834 --     4 O    1.644     2 O    1.101     5 C    1.011
     4   8 O    1.900 --     3 C    1.644     2 O    0.130
     5   6 C    3.946 --    25 C    1.473     6 N    1.190     3 C    1.011
     6   7 N    3.028 --     7 C    1.568     5 C    1.190
     7   6 C    3.914 --     6 N    1.568    21 N    1.163     8 C    0.975
     8   6 C    3.955 --    10 C    0.987     9 C    0.977     7 C    0.975
                            11 N    0.956
     9   6 C    3.991 --    32 H    0.987    30 H    0.981     8 C    0.977
                            31 H    0.975
    10   6 C    3.992 --     8 C    0.987    35 H    0.986    34 H    0.985
                            33 H    0.982
    11   7 N    3.164 --    12 C    1.034     8 C    0.956    36 H    0.918
    12   6 C    3.914 --    13 O    1.477    14 C    1.223    11 N    1.034
    13   8 O    1.817 --    12 C    1.477
    14   6 C    3.823 --    15 N    1.378    12 C    1.223    20 O    0.945
                            16 N    0.144
    15   7 N    3.050 --    16 N    1.478    14 C    1.378
    16   7 N    2.858 --    15 N    1.478    17 C    0.980    14 C    0.144
    17   6 C    3.898 --    16 N    0.980    18 C    0.978    19 C    0.977
                            20 O    0.925
    18   6 C    3.991 --    38 H    0.988    37 H    0.986    39 H    0.985
                            17 C    0.978
    19   6 C    3.991 --    42 H    0.988    40 H    0.986    41 H    0.985
                            17 C    0.977
    20   8 O    2.055 --    14 C    0.945    17 C    0.925
    21   7 N    3.499 --     7 C    1.163    23 C    1.136    22 C    0.928
                            24 O    0.132
    22   6 C    3.922 --    44 H    0.977    45 H    0.977    43 H    0.976
                            21 N    0.928
    23   6 C    3.907 --    24 O    1.531    21 N    1.136    25 C    1.092
    24   8 O    1.872 --    23 C    1.531    21 N    0.132
    25   6 C    3.897 --     5 C    1.473    23 C    1.092    26 O    1.091
    26   8 O    2.065 --    25 C    1.091    46 H    0.810
    27   1 H    1.012 --     1 C    0.986
    28   1 H    1.009 --     1 C    0.980
    29   1 H    1.008 --     1 C    0.980
    30   1 H    1.006 --     9 C    0.981
    31   1 H    1.022 --     9 C    0.975
    32   1 H    1.005 --     9 C    0.987
    33   1 H    1.013 --    10 C    0.982
    34   1 H    1.016 --    10 C    0.985
    35   1 H    1.008 --    10 C    0.986
    36   1 H    0.983 --    11 N    0.918
    37   1 H    1.008 --    18 C    0.986
    38   1 H    1.009 --    18 C    0.988
    39   1 H    1.013 --    18 C    0.985
    40   1 H    1.008 --    19 C    0.986
    41   1 H    1.013 --    19 C    0.985
    42   1 H    1.009 --    19 C    0.988
    43   1 H    1.005 --    22 C    0.976
    44   1 H    1.022 --    22 C    0.977
    45   1 H    1.008 --    22 C    0.977
    46   1 H    0.854 --    26 O    0.810
 ---------------------------------------------------------------------------

           -------------------------------------------------
          | TOTAL ENERGY              -87.062386329270 Eh   |
          | GRADIENT NORM               0.000506399120 Eh/α |
          | HOMO-LUMO GAP               0.181203887359 eV   |
           -------------------------------------------------

 * finished run on 2023/06/20 at 15:32:27.570
