   * xtb version 6.5.1 (579679a) compiled by 'ehlert@majestix' on 2022-07-11
          program call               : /lustre/hpc/kemi/ree/PhD/git/ReactivityQM/dep/xtb-6.5.1/bin/xtb --gfn 1 /lustre/hpc/kemi/ree/PhD/git/ReactivityQM/calculations/R02deprot/reac01prodE04/conf11/R02deprot_reac01prodE04_conf11_gfn1.xyz --opt --vfukui --chrg -2 --uhf 0 --alpb DMSO

   ID    Z sym.   atoms
    1    6 C      1, 3, 5, 6, 8-11, 13, 15, 18, 19, 22, 24
    2    8 O      2, 4, 14, 20, 23, 25
    3    7 N      7, 12, 16, 17, 21
    4    1 H      26-42

      * Solvation model:               ALPB
        Solvent                        DMSO
        Solvent mass                       7.8130E+01 g/mol
          :  Hamiltonian                  GFN1-xTB          :
 * total energy  :   -83.5712016 Eh     change       -0.3913669E-10 Eh
 * total energy  :   -83.5887753 Eh     change       -0.1757370E-01 Eh
 * total energy  :   -83.5953679 Eh     change       -0.6592585E-02 Eh
 * total energy  :   -83.5968210 Eh     change       -0.1453144E-02 Eh
 * total energy  :   -83.5976275 Eh     change       -0.8064997E-03 Eh
 * total energy  :   -83.5979289 Eh     change       -0.3014158E-03 Eh
 * total energy  :   -83.5981104 Eh     change       -0.1814854E-03 Eh
 * total energy  :   -83.5982676 Eh     change       -0.1571591E-03 Eh
 * total energy  :   -83.5984174 Eh     change       -0.1498667E-03 Eh
 * total energy  :   -83.5985820 Eh     change       -0.1645625E-03 Eh
 * total energy  :   -83.6023720 Eh     change       -0.7119932E-05 Eh
 * total energy  :   -83.6023810 Eh     change       -0.9000466E-05 Eh
 * total energy  :   -83.6023984 Eh     change       -0.1743209E-04 Eh
 * total energy  :   -83.6024108 Eh     change       -0.1244560E-04 Eh
 * total energy  :   -83.6024142 Eh     change       -0.3412259E-05 Eh
 * total energy  :   -83.6024375 Eh     change       -0.2323805E-04 Eh
 * total energy  :   -83.6024464 Eh     change       -0.8948218E-05 Eh
 * total energy  :   -83.6024525 Eh     change       -0.6054703E-05 Eh
 * total energy  :   -83.6024572 Eh     change       -0.4671103E-05 Eh
   *** GEOMETRY OPTIMIZATION CONVERGED AFTER 47 ITERATIONS ***

 final structure:
================
42
 xtb: 6.5.1 (579679a)
C           -5.49573368234780       -0.27071714666532       -1.89937323607541
O           -4.88174733203662       -0.38442763367683       -0.62361700113415
C           -3.52725064778420       -0.55767000347883       -0.61950025946333
O           -2.90574976642770       -0.65541129356734       -1.66865322445495
C           -2.92046677556791       -0.41260119473179        0.78447793787881
C           -3.84126279815939       -1.00907618315212        1.86264249375409
N           -1.62337135305590       -1.06016313963402        0.83690829326489
C           -0.57401556400271       -0.31233843567554        0.58407874316185
C            0.74686626027203       -1.10515057242191        0.55206894956746
C            0.62817285274387       -2.25901390542336       -0.45371966501171
C            1.02882745830148       -1.65180044513575        1.96039835952119
N            1.80021555626865       -0.18427565444951        0.14593273032718
C            3.10306677457887       -0.49281821822024        0.01355159079220
O            3.58880692905626       -1.61939930343523        0.19030366784040
C            3.90105687171583        0.67292721595178       -0.38637795802505
N            3.44987301431450        1.88621129188426       -0.61620973230815
N            4.53060993070994        2.64880765685462       -0.96224684118569
C            5.56459395285411        1.87219204189736       -0.92685331792956
C            6.97055617874546        2.23718735965967       -1.22059539837894
O            5.25169443433360        0.60958282699984       -0.57305960858404
N           -0.46368490727712        0.99318916063109        0.39077517955342
C           -1.61749846320968        1.76608475806387        0.58256707076810
O           -1.55812598266403        3.03855466955659        0.58302687943888
C           -2.80293418728275        1.07946361497313        0.83993890500332
O           -3.97889706876405        1.81828461222856        1.09564073673856
H           -5.25599091142769       -1.13827287593020       -2.52417505549343
H           -5.16410050245529        0.63733720294267       -2.41547367423772
H           -6.57204517658615       -0.22603392267600       -1.73516425577595
H           -4.00528803358721       -2.06922554460500        1.66998659367987
H           -3.36679153273275       -0.90129688909385        2.83776437863067
H           -4.80177791531522       -0.49597354733919        1.87674669498833
H            1.51334667720910       -2.89375496823628       -0.42908694397666
H           -0.24696322172776       -2.85762829223422       -0.19874675807117
H            0.50260469696804       -1.86577458686606       -1.46332521992182
H            1.91471529462563       -2.28617672582475        1.96481628026588
H            0.16983950596584       -2.23692359877885        2.28952310436575
H            1.18155926564908       -0.82825906514174        2.65845374559653
H            1.48716689856936        0.78563085167258        0.03386399980498
H            7.60456652357720        2.01310324311416       -0.36324579900587
H            7.03042775719297        3.29880949959195       -1.44668148495665
H            7.34142104219504        1.66603331617463       -2.07152494584442
H           -3.70629105343955        2.75078682420581        1.04824804489475

          :  Hamiltonian                  GFN1-xTB          :
         :: total energy             -83.602457158657 Eh    ::
         :: gradient norm              0.000783843943 Eh/a0 ::
         :: HOMO-LUMO gap              0.096957955579 eV    ::
         :: SCC energy               -84.327003093699 Eh    ::
         :: -> Gsolv                  -0.281104679277 Eh    ::
         :: repulsion energy           0.750755760134 Eh    ::

    * Orbital Energies and Occupations

         #    Occupation            Energy/Eh            Energy/eV
      -------------------------------------------------------------
         1        2.0000           -0.8256058             -22.4659
       ...           ...                  ...                  ...
        56        2.0000           -0.4379858             -11.9182
        57        2.0000           -0.4318423             -11.7510
        58        2.0000           -0.4239072             -11.5351
        59        2.0000           -0.4233384             -11.5196
        60        2.0000           -0.4176737             -11.3655
        61        2.0000           -0.4087830             -11.1236
        62        2.0000           -0.4027684             -10.9599
        63        2.0000           -0.3930279             -10.6948
        64        2.0000           -0.3831016             -10.4247
        65        2.0000           -0.3494517              -9.5091
        66        2.0000           -0.3247876              -8.8379
        67        2.0000           -0.3220688              -8.7639
        68        1.7341           -0.2769335              -7.5357 (HOMO)
        69        0.2659           -0.2733704              -7.4388 (LUMO)
        70                         -0.2273528              -6.1866
        71                         -0.2093815              -5.6976
        72                         -0.1687225              -4.5912
        73                         -0.1550361              -4.2187
        74                         -0.1315019              -3.5783
        75                         -0.1189237              -3.2361
        76                         -0.0946166              -2.5746
        77                         -0.0900922              -2.4515
        78                         -0.0875685              -2.3829
        79                         -0.0798756              -2.1735
       ...                                ...                  ...
       134                          0.7109339              19.3455
      -------------------------------------------------------------
                  HL-Gap            0.0035631 Eh            0.0970 eV

Wiberg/Mayer (AO) data.
largest (>0.10) Wiberg bond orders for each atom

     #   Z sym  total        # sym  WBO       # sym  WBO       # sym  WBO
 ---------------------------------------------------------------------------
     1   6 C    3.902 --    28 H    0.987    26 H    0.981    27 H    0.981
                             2 O    0.926
     2   8 O    2.144 --     3 C    1.030     1 C    0.926     4 O    0.105
     3   6 C    3.769 --     4 O    1.600     2 O    1.030     5 C    0.911
                            24 C    0.116
     4   8 O    1.859 --     3 C    1.600     2 O    0.105
     5   6 C    3.973 --     7 N    0.995     6 C    0.979    24 C    0.961
                             3 C    0.911
     6   6 C    3.985 --    29 H    0.988    30 H    0.987    31 H    0.986
                             5 C    0.979
     7   7 N    2.864 --     8 C    1.493     5 C    0.995    21 N    0.174
     8   6 C    3.958 --     7 N    1.493    21 N    1.396     9 C    0.951
     9   6 C    3.925 --    10 C    0.988    11 C    0.984     8 C    0.951
                            12 N    0.928
    10   6 C    3.995 --     9 C    0.988    34 H    0.987    32 H    0.985
                            33 H    0.984
    11   6 C    3.994 --    37 H    0.987    36 H    0.986    35 H    0.985
                             9 C    0.984
    12   7 N    3.320 --    13 C    1.258     9 C    0.928    38 H    0.871
                            14 O    0.165
    13   6 C    3.857 --    14 O    1.489    12 N    1.258    15 C    1.038
    14   8 O    1.777 --    13 C    1.489    12 N    0.165
    15   6 C    3.755 --    16 N    1.519    13 C    1.038    20 O    1.017
    16   7 N    2.877 --    15 C    1.519    17 N    1.185
    17   7 N    2.980 --    18 C    1.625    16 N    1.185
    18   6 C    3.846 --    17 N    1.625    20 O    1.065    19 C    1.026
    19   6 C    3.992 --    18 C    1.026    40 H    0.985    39 H    0.969
                            41 H    0.968
    20   8 O    2.248 --    18 C    1.065    15 C    1.017
    21   7 N    2.904 --     8 C    1.396    22 C    1.084     7 N    0.174
    22   6 C    3.914 --    23 O    1.358    24 C    1.347    21 N    1.084
    23   8 O    1.655 --    22 C    1.358    24 C    0.104
    24   6 C    3.621 --    22 C    1.347     5 C    0.961    25 O    0.952
                             3 C    0.116    23 O    0.104
    25   8 O    1.899 --    24 C    0.952    42 H    0.854
    26   1 H    1.016 --     1 C    0.981
    27   1 H    1.013 --     1 C    0.981
    28   1 H    1.016 --     1 C    0.987
    29   1 H    1.013 --     6 C    0.988
    30   1 H    1.018 --     6 C    0.987
    31   1 H    1.018 --     6 C    0.986
    32   1 H    1.017 --    10 C    0.985
    33   1 H    1.028 --    10 C    0.984
    34   1 H    1.010 --    10 C    0.987
    35   1 H    1.016 --    11 C    0.985
    36   1 H    1.022 --    11 C    0.986
    37   1 H    1.009 --    11 C    0.987
    38   1 H    1.001 --    12 N    0.871
    39   1 H    0.999 --    19 C    0.969
    40   1 H    1.002 --    19 C    0.985
    41   1 H    0.999 --    19 C    0.968
    42   1 H    0.906 --    25 O    0.854
 ---------------------------------------------------------------------------

           -------------------------------------------------
          | TOTAL ENERGY              -83.602457158657 Eh   |
          | GRADIENT NORM               0.000783843943 Eh/α |
          | HOMO-LUMO GAP               0.096957955579 eV   |
           -------------------------------------------------

 * finished run on 2023/06/20 at 17:37:16.371
