   * xtb version 6.5.1 (579679a) compiled by 'ehlert@majestix' on 2022-07-11
          program call               : /lustre/hpc/kemi/ree/PhD/git/ReactivityQM/dep/xtb-6.5.1/bin/xtb --gfn 1 /lustre/hpc/kemi/ree/PhD/git/ReactivityQM/calculations/R02deprot/reac01prodN03/conf09/R02deprot_reac01prodN03_conf09_gfn1.xyz --opt --vfukui --chrg 0 --uhf 0 --alpb DMSO

   ID    Z sym.   atoms
    1    6 C      1, 3, 5, 7-10, 12, 14, 17, 18, 21, 22, 24
    2    8 O      2, 4, 13, 19, 23, 25
    3    7 N      6, 11, 15, 16, 20
    4    1 H      26-42

      * Solvation model:               ALPB
        Solvent                        DMSO
        Solvent mass                       7.8130E+01 g/mol
          :  Hamiltonian                  GFN1-xTB          :
 * total energy  :   -82.9922830 Eh     change       -0.1183764E-10 Eh
 * total energy  :   -83.0037582 Eh     change       -0.1147519E-01 Eh
 * total energy  :   -83.0080956 Eh     change       -0.4337335E-02 Eh
 * total energy  :   -83.0088149 Eh     change       -0.7193811E-03 Eh
 * total energy  :   -83.0091058 Eh     change       -0.2908394E-03 Eh
 * total energy  :   -83.0091955 Eh     change       -0.8975018E-04 Eh
 * total energy  :   -83.0092725 Eh     change       -0.7700566E-04 Eh
 * total energy  :   -83.0093400 Eh     change       -0.6749279E-04 Eh
 * total energy  :   -83.0093985 Eh     change       -0.5851936E-04 Eh
 * total energy  :   -83.0094444 Eh     change       -0.4582155E-04 Eh
 * total energy  :   -83.0095541 Eh     change       -0.9356383E-05 Eh
 * total energy  :   -83.0095627 Eh     change       -0.8638352E-05 Eh
 * total energy  :   -83.0095678 Eh     change       -0.5150393E-05 Eh
 * total energy  :   -83.0095788 Eh     change       -0.1091044E-04 Eh
 * total energy  :   -83.0095874 Eh     change       -0.8638941E-05 Eh
 * total energy  :   -83.0095985 Eh     change       -0.1112406E-04 Eh
 * total energy  :   -83.0096045 Eh     change       -0.5960146E-05 Eh
 * total energy  :   -83.0096090 Eh     change       -0.4527320E-05 Eh
 * total energy  :   -83.0096115 Eh     change       -0.2501871E-05 Eh
   *** GEOMETRY OPTIMIZATION CONVERGED AFTER 24 ITERATIONS ***

 final structure:
================
42
 xtb: 6.5.1 (579679a)
C            5.93430620463236        2.58583584681268        1.31977935187010
O            5.03946633309081        1.48493790076320        1.14077077200079
C            3.92146907353866        1.73098618291858        0.46185354911217
O            3.64897422408663        2.81710417162854        0.00272228619686
C            3.03754676328155        0.53554308098255        0.32740921509991
N            1.89078101483135        0.77239365106764       -0.37905163042918
C            1.00899284381811       -0.15031589261278       -0.58265420964914
C           -0.19328485246462        0.24661703512356       -1.43105986886782
C           -0.16532308282448        1.76142214159195       -1.68174904748216
C           -0.14630265011062       -0.49963164336148       -2.77231656617450
N           -1.41043858446528       -0.06887382087799       -0.67299740302467
C           -2.65851760017547        0.03781738779020       -1.18859115267520
O           -2.93349395203860        0.23881516854096       -2.35588280925574
C           -3.67582788548946       -0.15405007746062       -0.12353974633564
N           -3.43563644658069       -0.28952238812744        1.14632742161934
N           -4.64258343502315       -0.42845060536025        1.76154362530873
C           -5.54320745062727       -0.36833822853413        0.82724067618508
C           -7.01072285953139       -0.47721049329327        0.97893697507457
O           -4.99445805570025       -0.19337630056107       -0.38388113218979
N            1.17260792870383       -1.42545415197724       -0.09895810251716
C            0.23649295017854       -2.53428530892081       -0.29595671209157
C            2.30519088432953       -1.77628767824279        0.61128304614920
O            2.48541747785170       -2.91331848035317        1.03682829250611
C            3.27558016191889       -0.71323139395182        0.82937636867427
O            4.36160200728741       -1.06561324992185        1.52569928240740
H            6.27278808927741        2.95733671703640        0.34953377901493
H            5.43407693606308        3.39291166364577        1.86040253881380
H            6.77793694312015        2.21126418476077        1.89584321106617
H           -1.04377698613729        2.04811307589036       -2.25724813918547
H           -0.16567900845392        2.29780556308070       -0.73434721652859
H            0.73112390155144        2.02795788733875       -2.23887821415579
H            0.85811947251871       -0.41911066076011       -3.18555980826897
H           -0.85086759135173       -0.05646371168386       -3.47293138383736
H           -0.39407988206515       -1.55068226948413       -2.65220630675685
H           -1.33460450297247       -0.08330371734395        0.33388083742125
H           -7.49935763008095        0.38031836482919        0.51742339571821
H           -7.26637846409452       -0.52283887546373        2.03464860204841
H           -7.36944319726241       -1.37801384292860        0.48043172356014
H           -0.74833337124430       -2.16561940914634       -0.55689309565024
H            0.61774863604406       -3.18632336944474       -1.08171727514490
H            0.18320057055671       -3.09686765403433        0.63606498954521
H            4.28889707201498       -2.00999279995592        1.76034888082348

          :  Hamiltonian                  GFN1-xTB          :
         :: total energy             -83.009611512412 Eh    ::
         :: gradient norm              0.000720213866 Eh/a0 ::
         :: HOMO-LUMO gap              2.897650707137 eV    ::
         :: SCC energy               -83.792932396867 Eh    ::
         :: -> Gsolv                  -0.052062950128 Eh    ::
         :: repulsion energy           0.809473726200 Eh    ::

    * Orbital Energies and Occupations

         #    Occupation            Energy/Eh            Energy/eV
      -------------------------------------------------------------
         1        2.0000           -0.8655509             -23.5528
       ...           ...                  ...                  ...
        55        2.0000           -0.5073939             -13.8069
        56        2.0000           -0.5016358             -13.6502
        57        2.0000           -0.4975912             -13.5401
        58        2.0000           -0.4864035             -13.2357
        59        2.0000           -0.4848266             -13.1928
        60        2.0000           -0.4771873             -12.9849
        61        2.0000           -0.4697169             -12.7816
        62        2.0000           -0.4641305             -12.6296
        63        2.0000           -0.4600954             -12.5198
        64        2.0000           -0.4543279             -12.3629
        65        2.0000           -0.4509059             -12.2698
        66        2.0000           -0.4471221             -12.1668
        67        2.0000           -0.4314247             -11.7397 (HOMO)
        68                         -0.3249380              -8.8420 (LUMO)
        69                         -0.3136593              -8.5351
        70                         -0.2868615              -7.8059
        71                         -0.2585551              -7.0356
        72                         -0.2418088              -6.5800
        73                         -0.2020859              -5.4990
        74                         -0.1592058              -4.3322
        75                         -0.1432264              -3.8974
        76                         -0.1428057              -3.8859
        77                         -0.1388610              -3.7786
        78                         -0.1252125              -3.4072
       ...                                ...                  ...
       134                          0.7286551              19.8277
      -------------------------------------------------------------
                  HL-Gap            0.1064867 Eh            2.8977 eV

Wiberg/Mayer (AO) data.
largest (>0.10) Wiberg bond orders for each atom

     #   Z sym  total        # sym  WBO       # sym  WBO       # sym  WBO
 ---------------------------------------------------------------------------
     1   6 C    3.872 --    28 H    0.986    27 H    0.980    26 H    0.979
                             2 O    0.897
     2   8 O    2.205 --     3 C    1.116     1 C    0.897     4 O    0.135
     3   6 C    3.851 --     4 O    1.657     2 O    1.116     5 C    0.998
     4   8 O    1.919 --     3 C    1.657     2 O    0.135
     5   6 C    3.963 --    24 C    1.494     6 N    1.187     3 C    0.998
     6   7 N    3.034 --     7 C    1.578     5 C    1.187
     7   6 C    3.930 --     6 N    1.578    20 N    1.165     8 C    0.975
     8   6 C    3.932 --     9 C    0.990    10 C    0.983     7 C    0.975
                            11 N    0.920
     9   6 C    3.990 --     8 C    0.990    30 H    0.984    31 H    0.984
                            29 H    0.983
    10   6 C    3.988 --    32 H    0.985     8 C    0.983    34 H    0.981
                            33 H    0.977
    11   7 N    3.337 --    12 C    1.232     8 C    0.920    35 H    0.896
                            13 O    0.172
    12   6 C    3.915 --    13 O    1.607    11 N    1.232    14 C    0.989
    13   8 O    1.920 --    12 C    1.607    11 N    0.172
    14   6 C    3.876 --    15 N    1.608    19 O    1.065    12 C    0.989
    15   7 N    3.019 --    14 C    1.608    16 N    1.201
    16   7 N    2.981 --    17 C    1.603    15 N    1.201
    17   6 C    3.870 --    16 N    1.603    19 O    1.083    18 C    1.032
    18   6 C    3.986 --    17 C    1.032    37 H    0.982    36 H    0.965
                            38 H    0.961
    19   8 O    2.332 --    17 C    1.083    14 C    1.065
    20   7 N    3.512 --     7 C    1.165    22 C    1.136    21 C    0.926
                            23 O    0.135
    21   6 C    3.919 --    39 H    0.977    40 H    0.975    41 H    0.974
                            20 N    0.926
    22   6 C    3.915 --    23 O    1.554    20 N    1.136    24 C    1.075
    23   8 O    1.898 --    22 C    1.554    20 N    0.135
    24   6 C    3.921 --     5 C    1.494    25 O    1.107    22 C    1.075
    25   8 O    2.085 --    24 C    1.107    42 H    0.805
    26   1 H    1.007 --     1 C    0.979
    27   1 H    1.007 --     1 C    0.980
    28   1 H    1.011 --     1 C    0.986
    29   1 H    1.004 --     9 C    0.983
    30   1 H    1.009 --     9 C    0.984
    31   1 H    1.010 --     9 C    0.984
    32   1 H    1.002 --    10 C    0.985
    33   1 H    1.012 --    10 C    0.977
    34   1 H    1.001 --    10 C    0.981
    35   1 H    0.954 --    11 N    0.896
    36   1 H    0.996 --    18 C    0.965
    37   1 H    0.998 --    18 C    0.982
    38   1 H    0.996 --    18 C    0.961
    39   1 H    1.009 --    21 C    0.977
    40   1 H    1.001 --    21 C    0.975
    41   1 H    1.005 --    21 C    0.974
    42   1 H    0.847 --    25 O    0.805
 ---------------------------------------------------------------------------

           -------------------------------------------------
          | TOTAL ENERGY              -83.009611512412 Eh   |
          | GRADIENT NORM               0.000720213866 Eh/α |
          | HOMO-LUMO GAP               2.897650707137 eV   |
           -------------------------------------------------

 * finished run on 2023/06/20 at 18:07:44.542
