   * xtb version 6.5.1 (579679a) compiled by 'ehlert@majestix' on 2022-07-11
          program call               : /lustre/hpc/kemi/ree/PhD/git/ReactivityQM/dep/xtb-6.5.1/bin/xtb --gfn 1 /lustre/hpc/kemi/ree/PhD/git/ReactivityQM/calculations/R02methylcation/reac01prodN13/conf18/R02methylcation_reac01prodN13_conf18_gfn1.xyz --opt --vfukui --chrg 0 --uhf 0 --alpb DMSO

   ID    Z sym.   atoms
    1    6 C      1, 3, 5, 7-10, 12, 14, 17-19, 22, 24
    2    8 O      2, 4, 13, 20, 23, 25
    3    7 N      6, 11, 15, 16, 21
    4    1 H      26-42

      * Solvation model:               ALPB
        Solvent                        DMSO
        Solvent mass                       7.8130E+01 g/mol
          :  Hamiltonian                  GFN1-xTB          :
 * total energy  :   -82.9254861 Eh     change       -0.1947029E-09 Eh
 * total energy  :   -82.9352445 Eh     change       -0.9758372E-02 Eh
 * total energy  :   -82.9389750 Eh     change       -0.3730562E-02 Eh
 * total energy  :   -82.9394688 Eh     change       -0.4937267E-03 Eh
 * total energy  :   -82.9398564 Eh     change       -0.3876338E-03 Eh
 * total energy  :   -82.9400752 Eh     change       -0.2187893E-03 Eh
 * total energy  :   -82.9402719 Eh     change       -0.1967481E-03 Eh
 * total energy  :   -82.9404320 Eh     change       -0.1600328E-03 Eh
 * total energy  :   -82.9405719 Eh     change       -0.1399424E-03 Eh
 * total energy  :   -82.9407009 Eh     change       -0.1289993E-03 Eh
 * total energy  :   -82.9419072 Eh     change       -0.5650691E-05 Eh
 * total energy  :   -82.9419188 Eh     change       -0.1160479E-04 Eh
 * total energy  :   -82.9419316 Eh     change       -0.1274690E-04 Eh
 * total energy  :   -82.9419399 Eh     change       -0.8375587E-05 Eh
 * total energy  :   -82.9419465 Eh     change       -0.6527093E-05 Eh
 * total energy  :   -82.9419532 Eh     change       -0.6716515E-05 Eh
 * total energy  :   -82.9419608 Eh     change       -0.7628446E-05 Eh
 * total energy  :   -82.9419670 Eh     change       -0.6211261E-05 Eh
 * total energy  :   -82.9419714 Eh     change       -0.4353527E-05 Eh
   *** GEOMETRY OPTIMIZATION CONVERGED AFTER 52 ITERATIONS ***

 final structure:
================
42
 xtb: 6.5.1 (579679a)
C            3.27363828427131        3.71562171966177       -1.70558133747339
O            3.46061466479065        2.33669218798671       -1.38325694589474
C            2.40671229460563        1.70406542670504       -0.86677568016888
O            1.33702274004531        2.24963143995630       -0.68056163892479
C            2.65535194658026        0.28033485917001       -0.53126822483017
N            1.57367793355477       -0.32781058446819        0.00295286077677
C            1.61376626983705       -1.56876751152685        0.38956716291792
C            0.38480807081880       -2.18774084972260        1.01522514904464
C            0.64195681516470       -2.40747278808841        2.51526345201770
C            0.00751409326532       -3.50281319165291        0.31938333491711
N           -0.69287678447670       -1.22081042410398        0.83103568946024
C           -1.94127369682080       -1.38426668716098        1.29526629550937
O           -2.35417390963237       -2.33096049106834        1.94558292697635
C           -2.83385196097937       -0.25510291862576        0.91477157991534
N           -4.11542596199352       -0.12166427228640        1.29757413710922
N           -4.59059811111644        0.94328183269853        0.76582096624660
C           -3.57402206835499        1.56729472377878       -0.03954591820614
C           -4.00159139075590        1.57184899885364       -1.51009625683028
C           -3.25338633314311        2.97000312425536        0.47912393019412
O           -2.43818080874059        0.71429779451152        0.12667780504139
N            2.74434889330297       -2.31326829097903        0.28847315121033
C            3.93253101802239       -1.84315548308262       -0.25039299386516
O            4.89862111556209       -2.57634542803743       -0.32020562479802
C            3.90837106076588       -0.40065501844670       -0.71742874806137
O            4.92487141515133        0.08897726673036       -1.20518778174127
H            3.04600334083271        4.28524357604053       -0.80120087275072
H            4.20534179455115        4.06469153735273       -2.14696325358508
H            2.45105593434532        3.82910426295885       -2.41574438420366
H           -0.22945658070121       -2.86708332212779        2.97761146672813
H            0.84638661759136       -1.45397033624532        2.99929535766199
H            1.49914322548475       -3.06490193833999        2.64364241859956
H            0.81199007361640       -4.22642394501483        0.42885837745011
H           -0.89322071594883       -3.91049455061047        0.77476434092557
H           -0.17429060754151       -3.32508674318247       -0.73912500696733
H           -0.44497365251750       -0.37420521856315        0.32638104865729
H           -4.90984961044939        2.15996181708736       -1.61368543275782
H           -4.18793981880757        0.55018268458836       -1.83385413880067
H           -3.20878485828788        2.00684688847599       -2.11353286356318
H           -2.95651335222738        2.91147529096437        1.52394889383246
H           -4.13787193124913        3.59468637331976        0.38437317464812
H           -2.44089276808602        3.39103215347824       -0.10840450758309
H            2.75544731966864       -3.27227496524173        0.60034909117687

          :  Hamiltonian                  GFN1-xTB          :
         :: total energy             -82.941971386260 Eh    ::
         :: gradient norm              0.000259375211 Eh/a0 ::
         :: HOMO-LUMO gap              0.046914673960 eV    ::
         :: SCC energy               -83.707712617647 Eh    ::
         :: -> Gsolv                  -0.061754776653 Eh    ::
         :: repulsion energy           0.791567819853 Eh    ::

    * Orbital Energies and Occupations

         #    Occupation            Energy/Eh            Energy/eV
      -------------------------------------------------------------
         1        2.0000           -0.8818675             -23.9968
       ...           ...                  ...                  ...
        55        2.0000           -0.5117381             -13.9251
        56        2.0000           -0.5102009             -13.8833
        57        2.0000           -0.5080745             -13.8254
        58        2.0000           -0.5024203             -13.6716
        59        2.0000           -0.4899871             -13.3332
        60        2.0000           -0.4865332             -13.2392
        61        2.0000           -0.4802160             -13.0673
        62        2.0000           -0.4735759             -12.8867
        63        2.0000           -0.4671083             -12.7107
        64        2.0000           -0.4643790             -12.6364
        65        2.0000           -0.4612745             -12.5519
        66        2.0000           -0.4236952             -11.5293
        67        1.4249           -0.4066089             -11.0644 (HOMO)
        68        0.5751           -0.4048848             -11.0175 (LUMO)
        69                         -0.3203473              -8.7171
        70                         -0.3093636              -8.4182
        71                         -0.2841251              -7.7314
        72                         -0.2344502              -6.3797
        73                         -0.2204859              -5.9997
        74                         -0.1560120              -4.2453
        75                         -0.1436734              -3.9096
        76                         -0.1435192              -3.9054
        77                         -0.1381329              -3.7588
        78                         -0.1327940              -3.6135
       ...                                ...                  ...
       134                          0.7478878              20.3511
      -------------------------------------------------------------
                  HL-Gap            0.0017241 Eh            0.0469 eV

Wiberg/Mayer (AO) data.
largest (>0.10) Wiberg bond orders for each atom

     #   Z sym  total        # sym  WBO       # sym  WBO       # sym  WBO
 ---------------------------------------------------------------------------
     1   6 C    3.875 --    27 H    0.986    28 H    0.979    26 H    0.979
                             2 O    0.902
     2   8 O    2.194 --     3 C    1.109     1 C    0.902     4 O    0.131
     3   6 C    3.842 --     4 O    1.630     2 O    1.109     5 C    1.025
     4   8 O    1.878 --     3 C    1.630     2 O    0.131
     5   6 C    3.713 --     6 N    1.284    24 C    1.169     3 C    1.025
     6   7 N    3.013 --     7 C    1.480     5 C    1.284
     7   6 C    3.798 --     6 N    1.480    21 N    1.191     8 C    0.989
     8   6 C    3.930 --     7 C    0.989    10 C    0.975     9 C    0.967
                            11 N    0.934
     9   6 C    3.974 --    30 H    0.985    31 H    0.984    29 H    0.978
                             8 C    0.967
    10   6 C    3.977 --    34 H    0.985    32 H    0.982    33 H    0.978
                             8 C    0.975
    11   7 N    3.358 --    12 C    1.276     8 C    0.934    35 H    0.867
                            13 O    0.194
    12   6 C    3.915 --    13 O    1.571    11 N    1.276    14 C    0.986
    13   8 O    1.884 --    12 C    1.571    11 N    0.194
    14   6 C    3.629 --    15 N    1.310    20 O    1.184    12 C    0.986
    15   7 N    2.994 --    16 N    1.545    14 C    1.310
    16   7 N    2.690 --    15 N    1.545    17 C    1.024
    17   6 C    3.835 --    16 N    1.024    19 C    0.940    18 C    0.936
                            20 O    0.872
    18   6 C    3.937 --    37 H    0.982    36 H    0.982    38 H    0.980
                            17 C    0.936
    19   6 C    3.940 --    39 H    0.982    40 H    0.982    41 H    0.980
                            17 C    0.940
    20   8 O    2.212 --    14 C    1.184    17 C    0.872
    21   7 N    3.422 --     7 C    1.191    22 C    1.104    42 H    0.882
                            23 O    0.113
    22   6 C    3.840 --    23 O    1.654    21 N    1.104    24 C    0.949
    23   8 O    1.877 --    22 C    1.654    21 N    0.113
    24   6 C    3.868 --    25 O    1.611     5 C    1.169    22 C    0.949
    25   8 O    1.792 --    24 C    1.611
    26   1 H    1.007 --     1 C    0.979
    27   1 H    1.011 --     1 C    0.986
    28   1 H    1.008 --     1 C    0.979
    29   1 H    1.006 --     9 C    0.978
    30   1 H    1.000 --     9 C    0.985
    31   1 H    0.999 --     9 C    0.984
    32   1 H    0.998 --    10 C    0.982
    33   1 H    1.004 --    10 C    0.978
    34   1 H    0.999 --    10 C    0.985
    35   1 H    0.953 --    11 N    0.867
    36   1 H    0.997 --    18 C    0.982
    37   1 H    0.996 --    18 C    0.982
    38   1 H    0.996 --    18 C    0.980
    39   1 H    0.996 --    19 C    0.982
    40   1 H    0.997 --    19 C    0.982
    41   1 H    0.996 --    19 C    0.980
    42   1 H    0.929 --    21 N    0.882
 ---------------------------------------------------------------------------

           -------------------------------------------------
          | TOTAL ENERGY              -82.941971386260 Eh   |
          | GRADIENT NORM               0.000259375211 Eh/α |
          | HOMO-LUMO GAP               0.046914673960 eV   |
           -------------------------------------------------

 * finished run on 2023/06/21 at 17:46:49.032
