   * xtb version 6.5.1 (579679a) compiled by 'ehlert@majestix' on 2022-07-11
          program call               : /lustre/hpc/kemi/ree/PhD/git/ReactivityQM/dep/xtb-6.5.1/bin/xtb --gfn 1 /lustre/hpc/kemi/ree/PhD/git/ReactivityQM/calculations/RaltegravirCLI/reac01prodN08/conf08/RaltegravirCLI_reac01prodN08_conf08_gfn1.xyz --opt --vfukui --chrg 1 --uhf 0 --alpb DMSO

   ID    Z sym.   atoms
    1    6 C      1, 3, 5, 8, 9
    2   17 Cl     2
    3    8 O      4, 10
    4    7 N      6, 7
    5    1 H      11-16

      * Solvation model:               ALPB
        Solvent                        DMSO
        Solvent mass                       7.8130E+01 g/mol
          :  Hamiltonian                  GFN1-xTB          :
 * total energy  :   -33.3859328 Eh     change       -0.2387424E-11 Eh
 * total energy  :   -33.3920270 Eh     change       -0.6094199E-02 Eh
 * total energy  :   -33.3944464 Eh     change       -0.2419404E-02 Eh
 * total energy  :   -33.3947261 Eh     change       -0.2797461E-03 Eh
 * total energy  :   -33.3948314 Eh     change       -0.1052409E-03 Eh
 * total energy  :   -33.3948817 Eh     change       -0.5035705E-04 Eh
 * total energy  :   -33.3949071 Eh     change       -0.2533187E-04 Eh
 * total energy  :   -33.3949222 Eh     change       -0.1512013E-04 Eh
 * total energy  :   -33.3949330 Eh     change       -0.1084308E-04 Eh
 * total energy  :   -33.3949387 Eh     change       -0.5648967E-05 Eh
 * total energy  :   -33.3949438 Eh     change       -0.5121450E-05 Eh
 * total energy  :   -33.3949468 Eh     change       -0.3005020E-05 Eh
   *** GEOMETRY OPTIMIZATION CONVERGED AFTER 12 ITERATIONS ***

 final structure:
================
16
 xtb: 6.5.1 (579679a)
C            3.92081965130665        0.59937641851618       -0.01957945812290
Cl           2.30602213809135        1.33146783305766       -0.23050518450699
C            1.18083108428909       -0.10386317910553        0.02211701695650
O            1.66675959628591       -1.16106276261983        0.21138300045267
C           -0.17275853997674        0.34580777445035       -0.05843575205468
N           -0.60171028607302        1.56599385978528       -0.28504578886441
N           -1.93180737762979        1.51961879439180       -0.27194941289908
C           -2.27392807820142        0.26900325225029       -0.03518271621150
C           -3.63657507944832       -0.27454958253095        0.09356233058607
O           -1.20578932699568       -0.50572951283104        0.10550109902488
H            3.82068912950997       -0.48282423463159       -0.08728549309130
H            4.30454543037589        0.88828291157290        0.95495009127429
H            4.55027129885276        0.97820923008273       -0.81915635345099
H           -3.67855412535008       -1.28118549715769       -0.31956028402278
H           -4.34592791750083        0.37719342976661       -0.41214727796878
H           -3.90288659753396       -0.33122973499812        1.15133518290712

          :  Hamiltonian                  GFN1-xTB          :
         :: total energy             -33.394946805606 Eh    ::
         :: gradient norm              0.000985671302 Eh/a0 ::
         :: HOMO-LUMO gap              2.763352085636 eV    ::
         :: SCC energy               -33.689557686850 Eh    ::
         :: -> Gsolv                  -0.083551130316 Eh    ::
         :: repulsion energy           0.301323184073 Eh    ::

    * Orbital Energies and Occupations

         #    Occupation            Energy/Eh            Energy/eV
      -------------------------------------------------------------
         1        2.0000           -1.0708413             -29.1391
       ...           ...                  ...                  ...
        15        2.0000           -0.6236883             -16.9714
        16        2.0000           -0.6128515             -16.6765
        17        2.0000           -0.6072836             -16.5250
        18        2.0000           -0.5846955             -15.9104
        19        2.0000           -0.5773920             -15.7116
        20        2.0000           -0.5711492             -15.5418
        21        2.0000           -0.5586220             -15.2009
        22        2.0000           -0.5570276             -15.1575
        23        2.0000           -0.5504020             -14.9772
        24        2.0000           -0.5456598             -14.8482
        25        2.0000           -0.5279445             -14.3661
        26        2.0000           -0.5000958             -13.6083
        27        2.0000           -0.4972172             -13.5300 (HOMO)
        28                         -0.3956659             -10.7666 (LUMO)
        29                         -0.3191603              -8.6848
        30                         -0.3008722              -8.1871
        31                         -0.2994860              -8.1494
        32                         -0.2728358              -7.4242
        33                         -0.1885671              -5.1312
        34                         -0.1835701              -4.9952
        35                         -0.1656256              -4.5069
        36                         -0.1613415              -4.3903
        37                         -0.1586436              -4.3169
        38                         -0.1121101              -3.0507
       ...                                ...                  ...
        57                          0.7634358              20.7741
      -------------------------------------------------------------
                  HL-Gap            0.1015513 Eh            2.7634 eV

Wiberg/Mayer (AO) data.
largest (>0.10) Wiberg bond orders for each atom

     #   Z sym  total        # sym  WBO       # sym  WBO       # sym  WBO
 ---------------------------------------------------------------------------
     1   6 C    3.858 --    12 H    0.980    13 H    0.977    11 H    0.968
                             2 Cl   0.910
     2  17 Cl   1.909 --     1 C    0.910     3 C    0.783     4 O    0.146
     3   6 C    3.874 --     4 O    1.846     5 C    1.111     2 Cl   0.783
     4   8 O    2.167 --     3 C    1.846     2 Cl   0.146
     5   6 C    3.889 --     6 N    1.497     3 C    1.111    10 O    1.047
     6   7 N    3.023 --     5 C    1.497     7 N    1.315
     7   7 N    2.993 --     8 C    1.483     6 N    1.315
     8   6 C    3.848 --     7 N    1.483    10 O    1.127     9 C    1.044
     9   6 C    3.973 --     8 C    1.044    15 H    0.973    14 H    0.965
                            16 H    0.939
    10   8 O    2.363 --     8 C    1.127     5 C    1.047
    11   1 H    0.994 --     1 C    0.968
    12   1 H    0.994 --     1 C    0.980
    13   1 H    0.994 --     1 C    0.977
    14   1 H    0.990 --     9 C    0.965
    15   1 H    0.992 --     9 C    0.973
    16   1 H    0.988 --     9 C    0.939
 ---------------------------------------------------------------------------

           -------------------------------------------------
          | TOTAL ENERGY              -33.394946805606 Eh   |
          | GRADIENT NORM               0.000985671302 Eh/α |
          | HOMO-LUMO GAP               2.763352085636 eV   |
           -------------------------------------------------

 * finished run on 2023/06/20 at 14:55:57.613
