   * xtb version 6.5.1 (579679a) compiled by 'ehlert@majestix' on 2022-07-11
          program call               : /lustre/hpc/kemi/ree/PhD/git/ReactivityQM/dep/xtb-6.5.1/bin/xtb --gfn 1 /lustre/hpc/kemi/ree/PhD/git/ReactivityQM/calculations/R03/reac01prodN06/conf01/R03_reac01prodN06_conf01_gfn1.xyz --opt --vfukui --chrg 1 --uhf 0 --alpb DMSO

   ID    Z sym.   atoms
    1    6 C      1, 3-7, 9, 10
    2    9 F      2
    3    7 N      8
    4    1 H      11-21

      * Solvation model:               ALPB
        Solvent                        DMSO
        Solvent mass                       7.8130E+01 g/mol
          :  Hamiltonian                  GFN1-xTB          :
 * total energy  :   -30.7195753 Eh     change       -0.2117417E-11 Eh
 * total energy  :   -30.7304916 Eh     change       -0.1091626E-01 Eh
 * total energy  :   -30.7337483 Eh     change       -0.3256717E-02 Eh
 * total energy  :   -30.7341878 Eh     change       -0.4395211E-03 Eh
 * total energy  :   -30.7344290 Eh     change       -0.2411442E-03 Eh
 * total energy  :   -30.7345950 Eh     change       -0.1660226E-03 Eh
 * total energy  :   -30.7347361 Eh     change       -0.1411042E-03 Eh
 * total energy  :   -30.7348457 Eh     change       -0.1096568E-03 Eh
 * total energy  :   -30.7349236 Eh     change       -0.7787916E-04 Eh
 * total energy  :   -30.7349810 Eh     change       -0.5739712E-04 Eh
 * total energy  :   -30.7353410 Eh     change       -0.6647904E-05 Eh
 * total energy  :   -30.7353478 Eh     change       -0.6796370E-05 Eh
 * total energy  :   -30.7353561 Eh     change       -0.8325419E-05 Eh
 * total energy  :   -30.7353696 Eh     change       -0.1347585E-04 Eh
 * total energy  :   -30.7353816 Eh     change       -0.1201450E-04 Eh
 * total energy  :   -30.7353912 Eh     change       -0.9590617E-05 Eh
 * total energy  :   -30.7353610 Eh     change        0.3018516E-04 Eh
 * total energy  :   -30.7353991 Eh     change       -0.3809712E-04 Eh
 * total energy  :   -30.7354032 Eh     change       -0.4023784E-05 Eh
   *** GEOMETRY OPTIMIZATION CONVERGED AFTER 41 ITERATIONS ***

 final structure:
================
21
 xtb: 6.5.1 (579679a)
C            3.84141920293946       -0.17668004428382        0.34859940448157
F            2.74230281276031       -0.28494991615030       -0.57616906008308
C            1.30837425506161       -0.15996932345721       -0.27434130816645
C            0.60097770068469       -1.33187266890761       -0.20529898817576
C           -0.75919313385258       -1.20164719262980        0.05221828431430
C           -1.33898003448171        0.05464844745199        0.23602294253126
C           -2.83106292943999        0.17996895973548        0.44949233958606
N           -3.50330035296548        0.31408780750077       -0.83976197993841
C           -0.54571312293918        1.20006308156753        0.15103683033302
C            0.81711758843344        1.10869785587737       -0.10790397337816
H            3.89472294939001        0.87093090398139        0.62970636897994
H            4.69695062173076       -0.51180449705818       -0.22991356850188
H            3.59967057596904       -0.83098808776401        1.18109519875089
H            1.07151067579058       -2.29461529492636       -0.34553637319280
H           -1.36696652807973       -2.09592333925334        0.11667084772666
H           -3.05558165634429        1.06338809904164        1.05271864530666
H           -3.21853759320224       -0.70749847887419        0.95664467252294
H           -3.27606851890653       -0.48921088647076       -1.41077216180908
H           -3.13979230994144        1.13168561111933       -1.31132566763751
H           -0.98680750151282        2.17921265008490        0.29264613150811
H            1.44895729890643        1.98247831341497       -0.17542158515878

          :  Hamiltonian                  GFN1-xTB          :
         :: total energy             -30.735403151695 Eh    ::
         :: gradient norm              0.000448805504 Eh/a0 ::
         :: HOMO-LUMO gap              2.979532925697 eV    ::
         :: SCC energy               -31.144172291228 Eh    ::
         :: -> Gsolv                  -0.086089395268 Eh    ::
         :: repulsion energy           0.418327744140 Eh    ::

    * Orbital Energies and Occupations

         #    Occupation            Energy/Eh            Energy/eV
      -------------------------------------------------------------
         1        2.0000           -1.0061426             -27.3785
       ...           ...                  ...                  ...
        15        2.0000           -0.5903004             -16.0629
        16        2.0000           -0.5849286             -15.9167
        17        2.0000           -0.5740583             -15.6209
        18        2.0000           -0.5725076             -15.5787
        19        2.0000           -0.5674881             -15.4421
        20        2.0000           -0.5604233             -15.2499
        21        2.0000           -0.5346354             -14.5482
        22        2.0000           -0.5285055             -14.3814
        23        2.0000           -0.5150151             -14.0143
        24        2.0000           -0.4969209             -13.5219
        25        2.0000           -0.4871584             -13.2563
        26        2.0000           -0.4813308             -13.0977
        27        2.0000           -0.4213798             -11.4663 (HOMO)
        28                         -0.3118839              -8.4868 (LUMO)
        29                         -0.3097241              -8.4280
        30                         -0.2571474              -6.9973
        31                         -0.1884629              -5.1283
        32                         -0.1813620              -4.9351
        33                         -0.1429433              -3.8897
        34                         -0.1406220              -3.8265
        35                         -0.1288488              -3.5062
        36                         -0.1259680              -3.4278
        37                         -0.1237590              -3.3677
        38                         -0.1188271              -3.2335
       ...                                ...                  ...
        62                          0.6138689              16.7042
      -------------------------------------------------------------
                  HL-Gap            0.1094958 Eh            2.9795 eV

Wiberg/Mayer (AO) data.
largest (>0.10) Wiberg bond orders for each atom

     #   Z sym  total        # sym  WBO       # sym  WBO       # sym  WBO
 ---------------------------------------------------------------------------
     1   6 C    3.678 --    11 H    0.980    13 H    0.980    12 H    0.974
                             2 F    0.718
     2   9 F    1.437 --     1 C    0.718     3 C    0.632
     3   6 C    3.687 --    10 C    1.431     4 C    1.431     2 F    0.632
     4   6 C    3.984 --     3 C    1.431     5 C    1.425    14 H    0.961
                             9 C    0.109
     5   6 C    3.988 --     4 C    1.425     6 C    1.411    15 H    0.967
                            10 C    0.109
     6   6 C    3.978 --     5 C    1.411     9 C    1.410     7 C    0.997
     7   6 C    3.977 --     6 C    0.997     8 N    0.988    17 H    0.977
                            16 H    0.976
     8   7 N    2.969 --     7 C    0.988    19 H    0.946    18 H    0.945
     9   6 C    3.988 --    10 C    1.426     6 C    1.410    20 H    0.967
                             4 C    0.109
    10   6 C    3.985 --     3 C    1.431     9 C    1.426    21 H    0.961
                             5 C    0.109
    11   1 H    0.993 --     1 C    0.980
    12   1 H    0.992 --     1 C    0.974
    13   1 H    0.993 --     1 C    0.980
    14   1 H    0.990 --     4 C    0.961
    15   1 H    0.995 --     5 C    0.967
    16   1 H    1.007 --     7 C    0.976
    17   1 H    1.007 --     7 C    0.977
    18   1 H    0.958 --     8 N    0.945
    19   1 H    0.958 --     8 N    0.946
    20   1 H    0.995 --     9 C    0.967
    21   1 H    0.990 --    10 C    0.961
 ---------------------------------------------------------------------------

           -------------------------------------------------
          | TOTAL ENERGY              -30.735403151695 Eh   |
          | GRADIENT NORM               0.000448805504 Eh/α |
          | HOMO-LUMO GAP               2.979532925697 eV   |
           -------------------------------------------------

 * finished run on 2023/06/20 at 15:14:57.938
