   * xtb version 6.5.1 (579679a) compiled by 'ehlert@majestix' on 2022-07-11
          program call               : /lustre/hpc/kemi/ree/PhD/git/ReactivityQM/dep/xtb-6.5.1/bin/xtb --gfn 1 /lustre/hpc/kemi/ree/PhD/git/ReactivityQM/calculations/RaltegravirCLI/reac02prodN08/conf20/RaltegravirCLI_reac02prodN08_conf20_gfn1.xyz --opt --vfukui --chrg 1 --uhf 0 --alpb DMSO

   ID    Z sym.   atoms
    1    6 C      1, 3-6, 9, 10, 13-18, 20-22, 24
    2    7 N      2, 7, 8, 12
    3    8 O      11, 23, 25
    4    9 F      19
    5    1 H      26-47

      * Solvation model:               ALPB
        Solvent                        DMSO
        Solvent mass                       7.8130E+01 g/mol
          :  Hamiltonian                  GFN1-xTB          :
 * total energy  :   -79.4623910 Eh     change       -0.5336176E-10 Eh
 * total energy  :   -79.4714777 Eh     change       -0.9086652E-02 Eh
 * total energy  :   -79.4738507 Eh     change       -0.2372986E-02 Eh
 * total energy  :   -79.4741915 Eh     change       -0.3408634E-03 Eh
 * total energy  :   -79.4745090 Eh     change       -0.3174402E-03 Eh
 * total energy  :   -79.4746344 Eh     change       -0.1254157E-03 Eh
 * total energy  :   -79.4747722 Eh     change       -0.1377807E-03 Eh
 * total energy  :   -79.4749755 Eh     change       -0.2033405E-03 Eh
 * total energy  :   -79.4753068 Eh     change       -0.3312562E-03 Eh
 * total energy  :   -79.4757451 Eh     change       -0.4383850E-03 Eh
 * total energy  :   -79.4844346 Eh     change       -0.2634946E-04 Eh
 * total energy  :   -79.4844470 Eh     change       -0.1234890E-04 Eh
 * total energy  :   -79.4844771 Eh     change       -0.3017377E-04 Eh
 * total energy  :   -79.4844933 Eh     change       -0.1619841E-04 Eh
 * total energy  :   -79.4845114 Eh     change       -0.1804794E-04 Eh
 * total energy  :   -79.4845187 Eh     change       -0.7298315E-05 Eh
 * total energy  :   -79.4845277 Eh     change       -0.8970834E-05 Eh
 * total energy  :   -79.4845327 Eh     change       -0.5029642E-05 Eh
 * total energy  :   -79.4845374 Eh     change       -0.4679370E-05 Eh
   *** GEOMETRY OPTIMIZATION CONVERGED AFTER 75 ITERATIONS ***

 final structure:
================
47
 xtb: 6.5.1 (579679a)
C           -3.94797646267627       -0.65428251086595       -2.38035608194253
N           -2.81006435789959       -0.51055846501632       -1.46578891834510
C           -2.91449465478952       -0.20655446423731       -0.13298151975554
C           -4.25627681596525        0.04093600385933        0.54670814157391
C           -4.04381521409815        0.13517476307898        2.06714015215206
C           -4.86143983268861        1.35657630696563        0.03741435385706
N           -5.17023375250654       -1.05846902322126        0.25079634635581
N           -1.86395765649258       -0.07546927872978        0.61957821050519
C           -0.60714116177564       -0.26563322868224        0.12983050773228
C            0.50196229158998       -0.05296689128758        1.10019513052914
O            0.43053052145473        0.67777256017136        2.06781274984553
N            1.64056755926071       -0.77544591051222        0.82028362094362
C            2.84209535433742       -0.53257661490293        1.51906363066032
C            3.77735079406909        0.53053238179385        0.70582450488580
C            2.92983301819581        1.80281633732606        0.50783074500336
C            4.92842774511284        0.75837697875125        1.58712218336274
C            6.16815296293097        0.25984249888235        1.30975137135211
C            6.36181537452189       -0.42938398935459        0.10605226382016
F            7.55268952515341       -0.90211752575551       -0.15560007313692
C            5.34599902774839       -0.61704356062149       -0.83944608907852
C            4.10356692901770       -0.12518154196299       -0.56628533027072
C           -0.43204287125853       -0.55791521606961       -1.19159254800200
O            0.77262874113958       -0.72045640529534       -1.77887511995658
C           -1.57875765347491       -0.67665066904161       -2.07082418597312
O           -1.45446344064294       -0.91680839803682       -3.26813172933150
H           -3.71021089793862       -1.44612644084698       -3.09080088189196
H           -4.84193514550376       -0.91457431031567       -1.82064560528968
H           -4.09267682033567        0.28025436760875       -2.92279378654423
H           -3.40708963305405        0.98492774681798        2.30983437039797
H           -5.00779719833079        0.25799081699995        2.55801109830897
H           -3.57125106491887       -0.77357710245804        2.43626794371657
H           -4.16107577727281        2.17518392767035        0.19838462689183
H           -5.78033564295024        1.56668565748412        0.58306686510571
H           -5.09555494141827        1.29645166226236       -1.02310366620773
H           -6.07820000348240       -0.85320549169920        0.64350124975209
H           -4.82714687221629       -1.91085474700088        0.67083533615029
H            1.67763469011978       -1.35767611628003       -0.00008324684567
H            2.62075753549572       -0.07830111866936        2.48651065967652
H            3.41779273908648       -1.44848327370169        1.63170431711933
H            3.54592978827648        2.56905346953611        0.04203807853798
H            2.56186531291152        2.16370660898046        1.46655365940863
H            2.08834128945825        1.57699997267299       -0.14397171121942
H            4.75595212168125        1.31316691846958        2.50226001064514
H            7.00559177491416        0.40322294466358        1.98150607439430
H            5.56739487459314       -1.12911111976880       -1.76753487648328
H            3.29452653270756       -0.24542771701925       -1.27799636464074
H            0.62252936787420       -0.91482179265417       -2.72624346776970

          :  Hamiltonian                  GFN1-xTB          :
         :: total energy             -79.484537368673 Eh    ::
         :: gradient norm              0.000460428639 Eh/a0 ::
         :: HOMO-LUMO gap              0.225611324822 eV    ::
         :: SCC energy               -80.368754458262 Eh    ::
         :: -> Gsolv                  -0.103955449329 Eh    ::
         :: repulsion energy           0.915630468463 Eh    ::

    * Orbital Energies and Occupations

         #    Occupation            Energy/Eh            Energy/eV
      -------------------------------------------------------------
         1        2.0000           -0.9369358             -25.4953
       ...           ...                  ...                  ...
        55        2.0000           -0.5195892             -14.1387
        56        2.0000           -0.5162427             -14.0477
        57        2.0000           -0.5138833             -13.9835
        58        2.0000           -0.5064409             -13.7810
        59        2.0000           -0.5007752             -13.6268
        60        2.0000           -0.4927090             -13.4073
        61        2.0000           -0.4889719             -13.3056
        62        2.0000           -0.4782986             -13.0152
        63        2.0000           -0.4731058             -12.8739
        64        2.0000           -0.4624860             -12.5849
        65        2.0000           -0.4493328             -12.2270
        66        2.0000           -0.4339336             -11.8079
        67        1.9749           -0.4195180             -11.4157 (HOMO)
        68        0.0251           -0.4112269             -11.1901 (LUMO)
        69                         -0.3293834              -8.9630
        70                         -0.3267712              -8.8919
        71                         -0.2866366              -7.7998
        72                         -0.2537184              -6.9040
        73                         -0.2431027              -6.6152
        74                         -0.1684259              -4.5831
        75                         -0.1519660              -4.1352
        76                         -0.1469687              -3.9992
        77                         -0.1392093              -3.7881
        78                         -0.1367842              -3.7221
       ...                                ...                  ...
       144                          0.7046878              19.1755
      -------------------------------------------------------------
                  HL-Gap            0.0082911 Eh            0.2256 eV

Wiberg/Mayer (AO) data.
largest (>0.10) Wiberg bond orders for each atom

     #   Z sym  total        # sym  WBO       # sym  WBO       # sym  WBO
 ---------------------------------------------------------------------------
     1   6 C    3.912 --    26 H    0.976    28 H    0.975    27 H    0.967
                             2 N    0.923
     2   7 N    3.522 --     3 C    1.183    24 C    1.136     1 C    0.923
                            25 O    0.134
     3   6 C    3.916 --     8 N    1.550     2 N    1.183     4 C    0.975
     4   6 C    3.961 --     5 C    0.989     6 C    0.983     7 N    0.980
                             3 C    0.975
     5   6 C    3.990 --     4 C    0.989    30 H    0.985    31 H    0.984
                            29 H    0.983
     6   6 C    3.992 --    32 H    0.986     4 C    0.983    33 H    0.982
                            34 H    0.982
     7   7 N    2.984 --     4 C    0.980    36 H    0.937    35 H    0.935
     8   7 N    3.028 --     3 C    1.550     9 C    1.204
     9   6 C    3.965 --    22 C    1.495     8 N    1.204    10 C    1.002
    10   6 C    3.885 --    11 O    1.638    12 N    1.150     9 C    1.002
    11   8 O    1.925 --    10 C    1.638    12 N    0.132
    12   7 N    3.369 --    10 C    1.150    13 C    1.046    37 H    0.883
                            11 O    0.132
    13   6 C    3.928 --    12 N    1.046    39 H    0.976    38 H    0.964
                            14 C    0.761
    14   6 C    3.980 --    21 C    1.103    16 C    1.103    15 C    0.938
                            13 C    0.761
    15   6 C    3.970 --    40 H    0.981    41 H    0.980    42 H    0.979
                            14 C    0.938
    16   6 C    3.938 --    17 C    1.592    14 C    1.103    43 H    0.964
    17   6 C    3.983 --    16 C    1.592    18 C    1.298    44 H    0.957
    18   6 C    3.819 --    17 C    1.298    20 C    1.298    19 F    1.024
    19   9 F    1.176 --    18 C    1.024
    20   6 C    3.984 --    21 C    1.593    18 C    1.298    45 H    0.957
    21   6 C    3.940 --    20 C    1.593    14 C    1.103    46 H    0.961
    22   6 C    3.909 --     9 C    1.495    24 C    1.087    23 O    1.071
    23   8 O    2.065 --    22 C    1.071    47 H    0.795
    24   6 C    3.918 --    25 O    1.549     2 N    1.136    22 C    1.087
    25   8 O    1.893 --    24 C    1.549     2 N    0.134
    26   1 H    1.006 --     1 C    0.976
    27   1 H    1.026 --     1 C    0.967
    28   1 H    1.002 --     1 C    0.975
    29   1 H    1.011 --     5 C    0.983
    30   1 H    1.003 --     5 C    0.985
    31   1 H    1.009 --     5 C    0.984
    32   1 H    1.002 --     6 C    0.986
    33   1 H    0.999 --     6 C    0.982
    34   1 H    1.003 --     6 C    0.982
    35   1 H    0.950 --     7 N    0.935
    36   1 H    0.952 --     7 N    0.937
    37   1 H    0.935 --    12 N    0.883
    38   1 H    1.003 --    13 C    0.964
    39   1 H    0.999 --    13 C    0.976
    40   1 H    0.997 --    15 C    0.981
    41   1 H    1.000 --    15 C    0.980
    42   1 H    1.000 --    15 C    0.979
    43   1 H    0.990 --    16 C    0.964
    44   1 H    0.986 --    17 C    0.957
    45   1 H    0.986 --    20 C    0.957
    46   1 H    1.001 --    21 C    0.961
    47   1 H    0.838 --    23 O    0.795
 ---------------------------------------------------------------------------

           -------------------------------------------------
          | TOTAL ENERGY              -79.484537368673 Eh   |
          | GRADIENT NORM               0.000460428639 Eh/α |
          | HOMO-LUMO GAP               0.225611324822 eV   |
           -------------------------------------------------

 * finished run on 2023/06/20 at 15:27:09.206
