                         Program Version 5.0.1 -  RELEASE  -
|  1> # ORCA input file
|  2> ! SP r2SCAN-3c CPCM
|  3>
|  4> %maxcore 1875.0
|  5> %pal nprocs 4 end
|  6> %cpcm smd true SMDsolvent "DMSO" end
|  7>
|  8> *xyz 1 1
|  9> C      -4.850582    3.416144    0.094569
| 10> O      -3.751661    2.493692    0.194101
| 11> C      -3.809230    1.419177   -0.553116
| 12> O      -4.720054    1.153744   -1.312392
| 13> C      -2.627241    0.511693   -0.400389
| 14> N      -1.657388    0.872311    0.461182
| 15> C      -0.613395    0.113598    0.612332
| 16> C       0.457294    0.463290    1.614951
| 17> C       0.452965    1.968762    1.898353
| 18> C       0.165553   -0.351809    2.887322
| 19> N       1.742178    0.059133    1.040589
| 20> C       2.911348    0.176576    1.729230
| 21> O       3.007504    0.478591    2.902469
| 22> C       4.086787   -0.141025    0.887284
| 23> N       5.336011   -0.144758    1.231803
| 24> N       6.047499   -0.503619    0.128369
| 25> C       5.189878   -0.697372   -0.824501
| 26> C       5.456570   -1.102280   -2.221125
| 27> O       3.929087   -0.483507   -0.410661
| 28> N      -0.500507   -1.056865   -0.079991
| 29> C      -1.417377   -1.484280   -0.962325
| 30> O      -1.124573   -2.618125   -1.534888
| 31> C      -1.954278   -3.248127   -2.529062
| 32> C      -2.562372   -0.661771   -1.147560
| 33> O      -3.499380   -1.041064   -2.003285
| 34> H      -5.775796    2.916095    0.386372
| 35> H      -4.935515    3.773912   -0.933014
| 36> H      -4.624017    4.236363    0.772023
| 37> H       1.198486    2.198970    2.657645
| 38> H       0.684578    2.516970    0.987052
| 39> H      -0.530426    2.269839    2.254940
| 40> H       0.873403   -0.084640    3.669646
| 41> H       0.251524   -1.414933    2.671589
| 42> H      -0.845177   -0.136316    3.229599
| 43> H       1.803840   -0.006259    0.038985
| 44> H       5.129346   -0.317218   -2.903189
| 45> H       4.894359   -2.005353   -2.457001
| 46> H       6.520643   -1.284505   -2.356120
| 47> H       0.313087   -1.647579    0.049752
| 48> H      -2.077046   -2.587573   -3.387550
| 49> H      -2.925534   -3.499547   -2.101999
| 50> H      -1.416617   -4.150876   -2.815572
| 51> H      -4.233775   -0.369459   -2.029760
| 52> **                         ****END OF INPUT****

CARTESIAN COORDINATES (ANGSTROEM)
---------------------------------
  C     -4.850582    3.416144    0.094569
  O     -3.751661    2.493692    0.194101
  C     -3.809230    1.419177   -0.553116
  O     -4.720054    1.153744   -1.312392
  C     -2.627241    0.511693   -0.400389
  N     -1.657388    0.872311    0.461182
  C     -0.613395    0.113598    0.612332
  C      0.457294    0.463290    1.614951
  C      0.452965    1.968762    1.898353
  C      0.165553   -0.351809    2.887322
  N      1.742178    0.059133    1.040589
  C      2.911348    0.176576    1.729230
  O      3.007504    0.478591    2.902469
  C      4.086787   -0.141025    0.887284
  N      5.336011   -0.144758    1.231803
  N      6.047499   -0.503619    0.128369
  C      5.189878   -0.697372   -0.824501
  C      5.456570   -1.102280   -2.221125
  O      3.929087   -0.483507   -0.410661
  N     -0.500507   -1.056865   -0.079991
  C     -1.417377   -1.484280   -0.962325
  O     -1.124573   -2.618125   -1.534888
  C     -1.954278   -3.248127   -2.529062
  C     -2.562372   -0.661771   -1.147560
  O     -3.499380   -1.041064   -2.003285
  H     -5.775796    2.916095    0.386372
  H     -4.935515    3.773912   -0.933014
  H     -4.624017    4.236363    0.772023
  H      1.198486    2.198970    2.657645
  H      0.684578    2.516970    0.987052
  H     -0.530426    2.269839    2.254940
  H      0.873403   -0.084640    3.669646
  H      0.251524   -1.414933    2.671589
  H     -0.845177   -0.136316    3.229599
  H      1.803840   -0.006259    0.038985
  H      5.129346   -0.317218   -2.903189
  H      4.894359   -2.005353   -2.457001
  H      6.520643   -1.284505   -2.356120
  H      0.313087   -1.647579    0.049752
  H     -2.077046   -2.587573   -3.387550
  H     -2.925534   -3.499547   -2.101999
  H     -1.416617   -4.150876   -2.815572
  H     -4.233775   -0.369459   -2.029760

 Total Charge           Charge          ....    1
 Multiplicity           Mult            ....    1
 Number of Electrons    NEL             ....  184
 Basis Dimension        Dim             ....  620

ORBITAL ENERGIES
----------------

  NO   OCC          E(Eh)            E(eV)
   0   2.0000     -19.070338      -518.9303
   1   2.0000     -19.058578      -518.6103
   2   2.0000     -19.030522      -517.8468
   3   2.0000     -19.022433      -517.6267
   4   2.0000     -18.980001      -516.4721
   5   2.0000     -18.944758      -515.5131
   6   2.0000     -14.287650      -388.7867
   7   2.0000     -14.213191      -386.7606
   8   2.0000     -14.209873      -386.6703
   9   2.0000     -14.206917      -386.5899
  10   2.0000     -14.201280      -386.4365
  11   2.0000     -10.217626      -278.0357
  12   2.0000     -10.198515      -277.5157
  13   2.0000     -10.167802      -276.6800
  14   2.0000     -10.167418      -276.6695
  15   2.0000     -10.165633      -276.6209
  16   2.0000     -10.151652      -276.2405
  17   2.0000     -10.147638      -276.1313
  18   2.0000     -10.136324      -275.8234
  19   2.0000     -10.121252      -275.4133
  20   2.0000     -10.101928      -274.8874
  21   2.0000     -10.090042      -274.5640
  22   2.0000     -10.047987      -273.4196
  23   2.0000     -10.031314      -272.9659
  24   2.0000     -10.027177      -272.8533
  25   2.0000      -1.159817       -31.5602
  26   2.0000      -1.125322       -30.6216
  27   2.0000      -1.112916       -30.2840
  28   2.0000      -1.077174       -29.3114
  29   2.0000      -1.036217       -28.1969
  30   2.0000      -1.028794       -27.9949
  31   2.0000      -1.022227       -27.8162
  32   2.0000      -0.980815       -26.6893
  33   2.0000      -0.934161       -25.4198
  34   2.0000      -0.927679       -25.2434
  35   2.0000      -0.838992       -22.8301
  36   2.0000      -0.823123       -22.3983
  37   2.0000      -0.770982       -20.9795
  38   2.0000      -0.749009       -20.3816
  39   2.0000      -0.735801       -20.0222
  40   2.0000      -0.717350       -19.5201
  41   2.0000      -0.692515       -18.8443
  42   2.0000      -0.678031       -18.4502
  43   2.0000      -0.672960       -18.3122
  44   2.0000      -0.662867       -18.0375
  45   2.0000      -0.611209       -16.6318
  46   2.0000      -0.606071       -16.4920
  47   2.0000      -0.599941       -16.3252
  48   2.0000      -0.583359       -15.8740
  49   2.0000      -0.576852       -15.6970
  50   2.0000      -0.556581       -15.1453
  51   2.0000      -0.552470       -15.0335
  52   2.0000      -0.536847       -14.6084
  53   2.0000      -0.522822       -14.2267
  54   2.0000      -0.509347       -13.8600
  55   2.0000      -0.506568       -13.7844
  56   2.0000      -0.499263       -13.5857
  57   2.0000      -0.480067       -13.0633
  58   2.0000      -0.478723       -13.0267
  59   2.0000      -0.474255       -12.9051
  60   2.0000      -0.458360       -12.4726
  61   2.0000      -0.443456       -12.0671
  62   2.0000      -0.439908       -11.9705
  63   2.0000      -0.430356       -11.7106
  64   2.0000      -0.427537       -11.6339
  65   2.0000      -0.417546       -11.3620
  66   2.0000      -0.414532       -11.2800
  67   2.0000      -0.412344       -11.2205
  68   2.0000      -0.406033       -11.0487
  69   2.0000      -0.401160       -10.9161
  70   2.0000      -0.397525       -10.8172
  71   2.0000      -0.390088       -10.6148
  72   2.0000      -0.384253       -10.4561
  73   2.0000      -0.383647       -10.4396
  74   2.0000      -0.367640       -10.0040
  75   2.0000      -0.361545        -9.8381
  76   2.0000      -0.356695        -9.7062
  77   2.0000      -0.351265        -9.5584
  78   2.0000      -0.349059        -9.4984
  79   2.0000      -0.348078        -9.4717
  80   2.0000      -0.341106        -9.2820
  81   2.0000      -0.332357        -9.0439
  82   2.0000      -0.325441        -8.8557
  83   2.0000      -0.318776        -8.6743
  84   2.0000      -0.304431        -8.2840
  85   2.0000      -0.303766        -8.2659
  86   2.0000      -0.273305        -7.4370
  87   2.0000      -0.271591        -7.3904
  88   2.0000      -0.268059        -7.2943
  89   2.0000      -0.261336        -7.1113
  90   2.0000      -0.253989        -6.9114
  91   2.0000      -0.249765        -6.7964
  92   0.0000      -0.141117        -3.8400
  93   0.0000      -0.094717        -2.5774
  94   0.0000      -0.082798        -2.2530
  95   0.0000      -0.030686        -0.8350
  96   0.0000      -0.024341        -0.6624

MULLIKEN ATOMIC CHARGES
-----------------------
   0 C :   -0.301688
   1 O :   -0.179607
   2 C :    0.198968
   3 O :   -0.470520
   4 C :    0.266375
   5 N :   -0.122891
   6 C :    0.399486
   7 C :   -0.079663
   8 C :   -0.604602
   9 C :   -0.581566
  10 N :   -0.124585
  11 C :   -0.095730
  12 O :   -0.432128
  13 C :    0.423053
  14 N :   -0.172766
  15 N :   -0.274746
  16 C :    0.396341
  17 C :   -0.632728
  18 O :   -0.057777
  19 N :   -0.037729
  20 C :    0.113706
  21 O :   -0.153955
  22 C :   -0.298400
  23 C :    0.149098
  24 O :   -0.366781
  25 H :    0.187299
  26 H :    0.186818
  27 H :    0.188042
  28 H :    0.202066
  29 H :    0.196758
  30 H :    0.191776
  31 H :    0.208582
  32 H :    0.197195
  33 H :    0.197905
  34 H :    0.333361
  35 H :    0.203504
  36 H :    0.200743
  37 H :    0.206162
  38 H :    0.364203
  39 H :    0.196069
  40 H :    0.197301
  41 H :    0.193116
  42 H :    0.389936
Sum of atomic charges:    1.0000000

LOEWDIN ATOMIC CHARGES
----------------------
   0 C :   -0.020677
   1 O :   -0.534839
   2 C :    0.415416
   3 O :   -0.437746
   4 C :    0.258168
   5 N :   -0.491097
   6 C :    0.388959
   7 C :    0.109435
   8 C :   -0.337251
   9 C :   -0.330418
  10 N :   -0.579350
  11 C :    0.387482
  12 O :   -0.444098
  13 C :    0.413313
  14 N :   -0.329382
  15 N :   -0.356050
  16 C :    0.381865
  17 C :   -0.316374
  18 O :   -0.393395
  19 N :   -0.367394
  20 C :    0.462426
  21 O :   -0.518217
  22 C :    0.003774
  23 C :    0.294660
  24 O :   -0.441076
  25 H :    0.189465
  26 H :    0.189425
  27 H :    0.193142
  28 H :    0.181096
  29 H :    0.177309
  30 H :    0.180807
  31 H :    0.189763
  32 H :    0.177510
  33 H :    0.177557
  34 H :    0.301650
  35 H :    0.193208
  36 H :    0.192084
  37 H :    0.191992
  38 H :    0.331969
  39 H :    0.195461
  40 H :    0.195533
  41 H :    0.197645
  42 H :    0.326251

  Mayer bond orders larger than 0.100000
B(  0-C ,  1-O ) :   0.8136 B(  0-C , 25-H ) :   0.9496 B(  0-C , 26-H ) :   0.9498
B(  0-C , 27-H ) :   0.9573 B(  1-O ,  2-C ) :   1.2437 B(  2-C ,  3-O ) :   1.7049
B(  2-C ,  4-C ) :   1.0219 B(  4-C ,  5-N ) :   1.1359 B(  4-C , 23-C ) :   1.2925
B(  5-N ,  6-C ) :   1.5413 B(  6-C ,  7-C ) :   0.8547 B(  6-C , 10-N ) :  -0.1815
B(  6-C , 19-N ) :   1.0850 B(  7-C ,  8-C ) :   0.8954 B(  7-C ,  9-C ) :   0.9008
B(  7-C , 10-N ) :   0.9342 B(  8-C , 28-H ) :   0.9602 B(  8-C , 29-H ) :   0.9650
B(  8-C , 30-H ) :   0.9529 B(  9-C , 31-H ) :   0.9505 B(  9-C , 32-H ) :   0.9560
B(  9-C , 33-H ) :   0.9547 B( 10-N , 11-C ) :   1.1266 B( 10-N , 34-H ) :   0.8683
B( 11-C , 12-O ) :   1.9205 B( 11-C , 13-C ) :   0.8470 B( 13-C , 14-N ) :   1.7064
B( 13-C , 16-C ) :   0.1068 B( 13-C , 18-O ) :   1.0734 B( 14-N , 15-N ) :   1.2715
B( 15-N , 16-C ) :   1.6244 B( 16-C , 17-C ) :   0.8329 B( 16-C , 18-O ) :   1.0682
B( 17-C , 35-H ) :   0.9382 B( 17-C , 36-H ) :   0.9444 B( 17-C , 37-H ) :   0.9877
B( 19-N , 20-C ) :   1.3369 B( 19-N , 38-H ) :   0.8570 B( 20-C , 21-O ) :   1.4417
B( 20-C , 23-C ) :   1.1133 B( 21-O , 22-C ) :   0.8049 B( 22-C , 39-H ) :   0.9435
B( 22-C , 40-H ) :   0.9430 B( 22-C , 41-H ) :   0.9495 B( 23-C , 24-O ) :   1.0829
B( 24-O , 42-H ) :   0.7420

Dispersion correction           -0.018310502
FINAL SINGLE POINT ENERGY     -1269.070103002793

DIPOLE MOMENT
-------------
                                X             Y             Z
Electronic contribution:      3.42789      -2.65406      -1.09501
Nuclear contribution   :     -8.26828       0.67251      -2.87157
                        -----------------------------------------
Total Dipole Moment    :     -4.84039      -1.98155      -3.96659
                        -----------------------------------------
Magnitude (a.u.)       :      6.56428
Magnitude (Debye)      :     16.68506

Rotational constants in cm-1:     0.011627     0.003739     0.003144
Rotational constants in MHz :   348.557914   112.085773    94.242621

                             ****ORCA TERMINATED NORMALLY****
TOTAL RUN TIME: 0 days 0 hours 2 minutes 21 seconds 58 msec
