   * xtb version 6.5.1 (579679a) compiled by 'ehlert@majestix' on 2022-07-11
          program call               : /lustre/hpc/kemi/ree/PhD/git/ReactivityQM/dep/xtb-6.5.1/bin/xtb --gfn 1 /lustre/hpc/kemi/ree/PhD/git/ReactivityQM/calculations/R02/reac01prodN19/conf11/R02_reac01prodN19_conf11_gfn1.xyz --opt --vfukui --chrg 1 --uhf 0 --alpb DMSO

   ID    Z sym.   atoms
    1    6 C      1, 3, 5, 7-10, 12, 14, 17, 18, 21, 23, 24
    2    8 O      2, 4, 13, 19, 22, 25
    3    7 N      6, 11, 15, 16, 20
    4    1 H      26-43

      * Solvation model:               ALPB
        Solvent                        DMSO
        Solvent mass                       7.8130E+01 g/mol
          :  Hamiltonian                  GFN1-xTB          :
 * total energy  :   -83.1457582 Eh     change       -0.1686828E-10 Eh
 * total energy  :   -83.1665270 Eh     change       -0.2076888E-01 Eh
 * total energy  :   -83.1739547 Eh     change       -0.7427641E-02 Eh
 * total energy  :   -83.1757342 Eh     change       -0.1779496E-02 Eh
 * total energy  :   -83.1769330 Eh     change       -0.1198849E-02 Eh
 * total energy  :   -83.1775057 Eh     change       -0.5726975E-03 Eh
 * total energy  :   -83.1779714 Eh     change       -0.4656273E-03 Eh
 * total energy  :   -83.1783075 Eh     change       -0.3361708E-03 Eh
 * total energy  :   -83.1785249 Eh     change       -0.2173554E-03 Eh
 * total energy  :   -83.1786431 Eh     change       -0.1182275E-03 Eh
 * total energy  :   -83.1791560 Eh     change       -0.1164823E-04 Eh
 * total energy  :   -83.1791700 Eh     change       -0.1392402E-04 Eh
 * total energy  :   -83.1791809 Eh     change       -0.1091116E-04 Eh
 * total energy  :   -83.1791910 Eh     change       -0.1011577E-04 Eh
 * total energy  :   -83.1792016 Eh     change       -0.1057652E-04 Eh
 * total energy  :   -83.1792115 Eh     change       -0.9973298E-05 Eh
 * total energy  :   -83.1792196 Eh     change       -0.8011333E-05 Eh
 * total energy  :   -83.1792256 Eh     change       -0.6006778E-05 Eh
 * total energy  :   -83.1792304 Eh     change       -0.4825189E-05 Eh
   *** GEOMETRY OPTIMIZATION CONVERGED AFTER 33 ITERATIONS ***

 final structure:
================
43
 xtb: 6.5.1 (579679a)
C           -4.85058151330719        3.41614433320118        0.09456942951930
O           -3.75166091483724        2.49369174665670        0.19410057319397
C           -3.80922972161779        1.41917749781050       -0.55311593568837
O           -4.72005354335755        1.15374350474888       -1.31239179814729
C           -2.62724101345552        0.51169348466642       -0.40038943429922
N           -1.65738828310186        0.87231118444823        0.46118216175264
C           -0.61339528233430        0.11359807296699        0.61233245201898
C            0.45729357121584        0.46329014971728        1.61495083581371
C            0.45296492692553        1.96876161107967        1.89835345500628
C            0.16555335239770       -0.35180899635220        2.88732249102416
N            1.74217775033690        0.05913255502039        1.04058899761869
C            2.91134765211077        0.17657628572345        1.72922974729700
O            3.00750419937151        0.47859139095854        2.90246899131664
C            4.08678652241931       -0.14102483919210        0.88728445236090
N            5.33601146099394       -0.14475810718092        1.23180307966471
N            6.04749887806413       -0.50361928580843        0.12836897853402
C            5.18987763887198       -0.69737249522274       -0.82450066215286
C            5.45657025671551       -1.10228025688857       -2.22112524443381
O            3.92908727442868       -0.48350727780191       -0.41066059437567
N           -0.50050740509413       -1.05686451673616       -0.07999053881345
C           -1.41737663815769       -1.48428000249978       -0.96232549805585
O           -1.12457260995457       -2.61812500570106       -1.53488803562306
C           -1.95427818338240       -3.24812664273101       -2.52906194503733
C           -2.56237242432440       -0.66177090608280       -1.14756025152784
O           -3.49937963082186       -1.04106406077371       -2.00328512219778
H           -5.77579597197980        2.91609463525758        0.38637231816025
H           -4.93551486157682        3.77391201154034       -0.93301367227148
H           -4.62401654972903        4.23636304335113        0.77202258023612
H            1.19848646710599        2.19897009907172        2.65764475522286
H            0.68457848498418        2.51697008467676        0.98705227002653
H           -0.53042642059185        2.26983916755543        2.25493960584735
H            0.87340324332644       -0.08464043010419        3.66964577644648
H            0.25152434608405       -1.41493253026632        2.67158914377277
H           -0.84517689765403       -0.13631609662488        3.22959871393844
H            1.80383981755554       -0.00625915096886        0.03898504394332
H            5.12934631667569       -0.31721838435165       -2.90318866204745
H            4.89435859196430       -2.00535315370257       -2.45700147214231
H            6.52064320384301       -1.28450455395358       -2.35611963511201
H            0.31308743684471       -1.64757887209989        0.04975165965841
H           -2.07704552011095       -2.58757324831835       -3.38755008977504
H           -2.92553415877437       -3.49954696508092       -2.10199895036703
H           -1.41661722498706       -4.15087556745285       -2.81557202359675
H           -4.23377462309015       -0.36945851255807       -2.02975994670999

          :  Hamiltonian                  GFN1-xTB          :
         :: total energy             -83.179230390237 Eh    ::
         :: gradient norm              0.000621952446 Eh/a0 ::
         :: HOMO-LUMO gap              2.116401688761 eV    ::
         :: SCC energy               -83.972512230309 Eh    ::
         :: -> Gsolv                  -0.116863992397 Eh    ::
         :: repulsion energy           0.818676425335 Eh    ::

    * Orbital Energies and Occupations

         #    Occupation            Energy/Eh            Energy/eV
      -------------------------------------------------------------
         1        2.0000           -0.8984182             -24.4472
       ...           ...                  ...                  ...
        55        2.0000           -0.5309681             -14.4484
        56        2.0000           -0.5260334             -14.3141
        57        2.0000           -0.5181727             -14.1002
        58        2.0000           -0.5173216             -14.0770
        59        2.0000           -0.5121520             -13.9364
        60        2.0000           -0.5113540             -13.9147
        61        2.0000           -0.4878311             -13.2746
        62        2.0000           -0.4874239             -13.2635
        63        2.0000           -0.4821621             -13.1203
        64        2.0000           -0.4767613             -12.9733
        65        2.0000           -0.4712150             -12.8224
        66        2.0000           -0.4598625             -12.5135
        67        2.0000           -0.4587188             -12.4824 (HOMO)
        68                         -0.3809425             -10.3660 (LUMO)
        69                         -0.3351417              -9.1197
        70                         -0.3220676              -8.7639
        71                         -0.2883503              -7.8464
        72                         -0.2628149              -7.1516
        73                         -0.2093534              -5.6968
        74                         -0.2057984              -5.6001
        75                         -0.1610655              -4.3828
        76                         -0.1500287              -4.0825
        77                         -0.1483440              -4.0366
        78                         -0.1453523              -3.9552
       ...                                ...                  ...
       136                          0.7255068              19.7420
      -------------------------------------------------------------
                  HL-Gap            0.0777763 Eh            2.1164 eV

Wiberg/Mayer (AO) data.
largest (>0.10) Wiberg bond orders for each atom

     #   Z sym  total        # sym  WBO       # sym  WBO       # sym  WBO
 ---------------------------------------------------------------------------
     1   6 C    3.846 --    28 H    0.985    27 H    0.977    26 H    0.977
                             2 O    0.873
     2   8 O    2.246 --     3 C    1.178     1 C    0.873     4 O    0.143
     3   6 C    3.858 --     4 O    1.622     2 O    1.178     5 C    0.984
     4   8 O    1.975 --     3 C    1.622     2 O    0.143
     5   6 C    3.968 --    24 C    1.382     6 N    1.287     3 C    0.984
     6   7 N    3.046 --     7 C    1.519     5 C    1.287
     7   6 C    3.907 --     6 N    1.519    20 N    1.179     8 C    0.988
     8   6 C    3.931 --     7 C    0.988     9 C    0.986    10 C    0.964
                            11 N    0.932
     9   6 C    3.984 --     8 C    0.986    30 H    0.984    31 H    0.983
                            29 H    0.980
    10   6 C    3.981 --    34 H    0.985    33 H    0.985    32 H    0.973
                             8 C    0.964
    11   7 N    3.306 --    12 C    1.212     8 C    0.932    35 H    0.892
                            13 O    0.165
    12   6 C    3.910 --    13 O    1.613    11 N    1.212    14 C    0.999
    13   8 O    1.925 --    12 C    1.613    11 N    0.165
    14   6 C    3.875 --    15 N    1.620    19 O    1.045    12 C    0.999
    15   7 N    3.003 --    14 C    1.620    16 N    1.203
    16   7 N    2.983 --    17 C    1.607    15 N    1.203
    17   6 C    3.866 --    16 N    1.607    19 O    1.071    18 C    1.033
    18   6 C    3.985 --    17 C    1.033    38 H    0.982    37 H    0.963
                            36 H    0.960
    19   8 O    2.314 --    17 C    1.071    14 C    1.045
    20   7 N    3.537 --    21 C    1.267     7 C    1.179    39 H    0.860
    21   6 C    3.892 --    20 N    1.267    24 C    1.195    22 O    1.191
    22   8 O    2.265 --    21 C    1.191    23 C    0.855
    23   6 C    3.822 --    42 H    0.981    40 H    0.976    41 H    0.975
                            22 O    0.855
    24   6 C    3.934 --     5 C    1.382    21 C    1.195    25 O    1.145
    25   8 O    2.102 --    24 C    1.145    43 H    0.737
    26   1 H    1.002 --     1 C    0.977
    27   1 H    1.002 --     1 C    0.977
    28   1 H    1.007 --     1 C    0.985
    29   1 H    1.004 --     9 C    0.980
    30   1 H    1.000 --     9 C    0.984
    31   1 H    1.006 --     9 C    0.983
    32   1 H    1.007 --    10 C    0.973
    33   1 H    0.999 --    10 C    0.985
    34   1 H    0.999 --    10 C    0.985
    35   1 H    0.934 --    11 N    0.892
    36   1 H    0.996 --    18 C    0.960
    37   1 H    0.996 --    18 C    0.963
    38   1 H    0.997 --    18 C    0.982
    39   1 H    0.907 --    20 N    0.860
    40   1 H    1.004 --    23 C    0.976
    41   1 H    1.004 --    23 C    0.975
    42   1 H    1.003 --    23 C    0.981
    43   1 H    0.825 --    25 O    0.737
 ---------------------------------------------------------------------------

           -------------------------------------------------
          | TOTAL ENERGY              -83.179230390237 Eh   |
          | GRADIENT NORM               0.000621952446 Eh/α |
          | HOMO-LUMO GAP               2.116401688761 eV   |
           -------------------------------------------------

 * finished run on 2023/06/20 at 15:46:23.851
