   * xtb version 6.5.1 (579679a) compiled by 'ehlert@majestix' on 2022-07-11
          program call               : /lustre/hpc/kemi/ree/PhD/git/ReactivityQM/dep/xtb-6.5.1/bin/xtb --gfn 1 /lustre/hpc/kemi/ree/PhD/git/ReactivityQM/calculations/R02deprot/reac01prodN03/conf12/R02deprot_reac01prodN03_conf12_gfn1.xyz --opt --vfukui --chrg 0 --uhf 0 --alpb DMSO

   ID    Z sym.   atoms
    1    6 C      1, 3, 5, 7-10, 12, 14, 17, 18, 21, 22, 24
    2    8 O      2, 4, 13, 19, 23, 25
    3    7 N      6, 11, 15, 16, 20
    4    1 H      26-42

      * Solvation model:               ALPB
        Solvent                        DMSO
        Solvent mass                       7.8130E+01 g/mol
          :  Hamiltonian                  GFN1-xTB          :
 * total energy  :   -82.9998190 Eh     change       -0.1676881E-10 Eh
 * total energy  :   -83.0097570 Eh     change       -0.9938015E-02 Eh
 * total energy  :   -83.0136165 Eh     change       -0.3859470E-02 Eh
 * total energy  :   -83.0146402 Eh     change       -0.1023682E-02 Eh
 * total energy  :   -83.0156385 Eh     change       -0.9983192E-03 Eh
 * total energy  :   -83.0163201 Eh     change       -0.6816636E-03 Eh
 * total energy  :   -83.0168566 Eh     change       -0.5364199E-03 Eh
 * total energy  :   -83.0172039 Eh     change       -0.3473283E-03 Eh
 * total energy  :   -83.0173696 Eh     change       -0.1657429E-03 Eh
 * total energy  :   -83.0174560 Eh     change       -0.8639882E-04 Eh
 * total energy  :   -83.0183921 Eh     change       -0.5904173E-05 Eh
 * total energy  :   -83.0183974 Eh     change       -0.5234631E-05 Eh
 * total energy  :   -83.0184049 Eh     change       -0.7479305E-05 Eh
 * total energy  :   -83.0184117 Eh     change       -0.6822699E-05 Eh
 * total energy  :   -83.0184181 Eh     change       -0.6403560E-05 Eh
 * total energy  :   -83.0184238 Eh     change       -0.5745418E-05 Eh
 * total energy  :   -83.0184323 Eh     change       -0.8429078E-05 Eh
 * total energy  :   -83.0184397 Eh     change       -0.7423756E-05 Eh
 * total energy  :   -83.0184421 Eh     change       -0.2438374E-05 Eh
   *** GEOMETRY OPTIMIZATION CONVERGED AFTER 44 ITERATIONS ***

 final structure:
================
42
 xtb: 6.5.1 (579679a)
C            5.55725936363262       -2.19530280101336        0.25741497023234
O            4.33456304458776       -1.45321239676839        0.20521013066459
C            4.29851225294627       -0.42641071232093       -0.63250897538904
O            5.24045678407540       -0.10822958135832       -1.33808299058791
C            3.01319689724014        0.30819425304024       -0.62938602671990
N            2.01433017520940       -0.16512385221272        0.17083140547034
C            0.87351312279307        0.44396290708501        0.23151727340302
C           -0.14854202342673       -0.18390085589523        1.17005612640201
C           -0.18259155275582        0.57485376654723        2.50104136785304
C            0.23327029263788       -1.64964815784770        1.42781439280533
N           -1.48536575634873       -0.16105545190999        0.57715048669920
C           -1.70596796684434       -0.62089398400475       -0.67478997420776
O           -0.82738484723067       -0.93348220365274       -1.46098872110287
C           -3.14619019951854       -0.67234559313396       -1.02268418288954
N           -3.68070073797216       -1.02126508665061       -2.15130024182847
N           -5.03043149878545       -0.91776478699031       -1.99569858467811
C           -5.23719302143351       -0.51267943598697       -0.78140826907184
C           -6.53182763999352       -0.24460412945106       -0.11926772628846
O           -4.08575785264489       -0.33703667275340       -0.11203103548306
N            0.63451927938555        1.59801449619973       -0.46510021508953
C           -0.59828726425668        2.38082950714741       -0.37829172131645
C            1.55701183063525        2.13186567284036       -1.36402987375603
O            1.28338200470886        3.12936653510020       -2.01669144966577
C            2.82881956362063        1.41621478037551       -1.41723695614207
O            3.75104602330722        1.91477113766607       -2.24536371821323
H            6.38475986538401       -1.53354976309504        0.52255716925011
H            5.42389269256479       -2.96036114910931        1.01921057092481
H            5.75791233249665       -2.65453779296146       -0.71317262962450
H           -0.87648549494001        0.08555063895449        3.18199469776843
H           -0.49794204345595        1.60666460604360        2.36593513261955
H            0.81121020562493        0.56805448375140        2.94641053707425
H            1.18844259568199       -1.69699046005891        1.94708807261343
H            0.31700093444213       -2.18709735371513        0.48407872676263
H           -0.53355693583706       -2.11775009058757        2.04168756891109
H           -2.26632244317610       -0.02706822459737        1.19553521659421
H           -6.61877619925873        0.81778434337701        0.10880140610166
H           -6.58830918179709       -0.79409295816970        0.81963838231395
H           -7.34846379214023       -0.54352999217660       -0.77209017560212
H           -1.15564543701565        2.12672121290884        0.51310552455041
H           -1.20865128780839        2.19539247055029       -1.26302649366554
H           -0.32612664291596        3.43619783723760       -0.34893332626806
H            4.57742355858463        1.38349783759990       -2.19575987141865

          :  Hamiltonian                  GFN1-xTB          :
         :: total energy             -83.018442117267 Eh    ::
         :: gradient norm              0.000361195632 Eh/a0 ::
         :: HOMO-LUMO gap              2.760129444905 eV    ::
         :: SCC energy               -83.799385346709 Eh    ::
         :: -> Gsolv                  -0.063716481598 Eh    ::
         :: repulsion energy           0.807978662702 Eh    ::

    * Orbital Energies and Occupations

         #    Occupation            Energy/Eh            Energy/eV
      -------------------------------------------------------------
         1        2.0000           -0.8670856             -23.5946
       ...           ...                  ...                  ...
        55        2.0000           -0.5067401             -13.7891
        56        2.0000           -0.5019874             -13.6598
        57        2.0000           -0.4997949             -13.6001
        58        2.0000           -0.4881229             -13.2825
        59        2.0000           -0.4824643             -13.1285
        60        2.0000           -0.4750417             -12.9265
        61        2.0000           -0.4686126             -12.7516
        62        2.0000           -0.4644769             -12.6391
        63        2.0000           -0.4584899             -12.4761
        64        2.0000           -0.4541887             -12.3591
        65        2.0000           -0.4479845             -12.1903
        66        2.0000           -0.4421413             -12.0313
        67        2.0000           -0.4254094             -11.5760 (HOMO)
        68                         -0.3239765              -8.8158 (LUMO)
        69                         -0.3137349              -8.5372
        70                         -0.2815858              -7.6623
        71                         -0.2580429              -7.0217
        72                         -0.2413681              -6.5680
        73                         -0.2012276              -5.4757
        74                         -0.1570940              -4.2747
        75                         -0.1422009              -3.8695
        76                         -0.1408355              -3.8323
        77                         -0.1385847              -3.7711
        78                         -0.1316019              -3.5811
       ...                                ...                  ...
       134                          0.7218008              19.6412
      -------------------------------------------------------------
                  HL-Gap            0.1014329 Eh            2.7601 eV

Wiberg/Mayer (AO) data.
largest (>0.10) Wiberg bond orders for each atom

     #   Z sym  total        # sym  WBO       # sym  WBO       # sym  WBO
 ---------------------------------------------------------------------------
     1   6 C    3.867 --    27 H    0.986    26 H    0.979    28 H    0.979
                             2 O    0.893
     2   8 O    2.216 --     3 C    1.134     1 C    0.893     4 O    0.129
     3   6 C    3.847 --     4 O    1.607     2 O    1.134     5 C    1.020
     4   8 O    1.940 --     3 C    1.607     2 O    0.129
     5   6 C    3.965 --    24 C    1.475     6 N    1.191     3 C    1.020
     6   7 N    3.030 --     7 C    1.563     5 C    1.191
     7   6 C    3.931 --     6 N    1.563    20 N    1.178     8 C    0.975
     8   6 C    3.936 --    10 C    0.987     9 C    0.985     7 C    0.975
                            11 N    0.927
     9   6 C    3.989 --     8 C    0.985    31 H    0.983    29 H    0.981
                            30 H    0.979
    10   6 C    3.988 --     8 C    0.987    34 H    0.985    32 H    0.983
                            33 H    0.982
    11   7 N    3.345 --    12 C    1.246     8 C    0.927    35 H    0.891
                            13 O    0.173
    12   6 C    3.917 --    13 O    1.588    11 N    1.246    14 C    0.995
    13   8 O    1.891 --    12 C    1.588    11 N    0.173
    14   6 C    3.873 --    15 N    1.621    19 O    1.047    12 C    0.995
    15   7 N    3.000 --    14 C    1.621    16 N    1.199
    16   7 N    2.981 --    17 C    1.609    15 N    1.199
    17   6 C    3.868 --    16 N    1.609    19 O    1.072    18 C    1.032
    18   6 C    3.986 --    17 C    1.032    38 H    0.982    37 H    0.965
                            36 H    0.960
    19   8 O    2.316 --    17 C    1.072    14 C    1.047
    20   7 N    3.510 --     7 C    1.178    22 C    1.113    21 C    0.932
                            23 O    0.137
    21   6 C    3.925 --    39 H    0.979    41 H    0.976    40 H    0.975
                            20 N    0.932
    22   6 C    3.913 --    23 O    1.579    20 N    1.113    24 C    1.072
    23   8 O    1.895 --    22 C    1.579    20 N    0.137
    24   6 C    3.922 --     5 C    1.475    25 O    1.118    22 C    1.072
    25   8 O    2.087 --    24 C    1.118    42 H    0.782
    26   1 H    1.006 --     1 C    0.979
    27   1 H    1.010 --     1 C    0.986
    28   1 H    1.006 --     1 C    0.979
    29   1 H    0.996 --     9 C    0.981
    30   1 H    1.000 --     9 C    0.979
    31   1 H    1.001 --     9 C    0.983
    32   1 H    1.013 --    10 C    0.983
    33   1 H    1.010 --    10 C    0.982
    34   1 H    1.001 --    10 C    0.985
    35   1 H    0.934 --    11 N    0.891
    36   1 H    0.996 --    18 C    0.960
    37   1 H    0.996 --    18 C    0.965
    38   1 H    0.998 --    18 C    0.982
    39   1 H    1.010 --    21 C    0.979
    40   1 H    1.003 --    21 C    0.975
    41   1 H    1.007 --    21 C    0.976
    42   1 H    0.854 --    25 O    0.782
 ---------------------------------------------------------------------------

           -------------------------------------------------
          | TOTAL ENERGY              -83.018442117267 Eh   |
          | GRADIENT NORM               0.000361195632 Eh/α |
          | HOMO-LUMO GAP               2.760129444905 eV   |
           -------------------------------------------------

 * finished run on 2023/06/20 at 18:07:47.009
