                         Program Version 5.0.1 -  RELEASE  -
|  1> # ORCA input file
|  2> ! SP r2SCAN-3c CPCM
|  3>
|  4> %maxcore 1875.0
|  5> %pal nprocs 4 end
|  6> %cpcm smd true SMDsolvent "DMSO" end
|  7>
|  8> *xyz 0 1
|  9> C       5.980857    1.135956    2.435277
| 10> O       4.847915    1.264450    1.565473
| 11> C       4.068533    0.207251    1.444112
| 12> O       4.236443   -0.844384    2.006481
| 13> C       2.903085    0.460589    0.511314
| 14> N       1.910404   -0.352033    0.590391
| 15> C       0.868379   -0.231759   -0.328723
| 16> C       0.034781   -1.485797   -0.540715
| 17> C       0.341374   -2.505607    0.565580
| 18> C       0.347460   -2.111797   -1.902137
| 19> N      -1.361425   -1.113362   -0.369766
| 20> C      -2.209955   -0.534835   -1.419347
| 21> C      -3.054731   -1.643824   -2.063127
| 22> O      -1.501445    0.117788   -2.423913
| 23> C      -3.154090    0.447869   -0.743463
| 24> N      -4.142148    1.058166   -1.306426
| 25> N      -4.720981    1.844685   -0.339634
| 26> C      -4.045300    1.654219    0.744033
| 27> C      -4.267765    2.257938    2.077267
| 28> O      -3.033764    0.779303    0.556694
| 29> N       0.559171    0.881140   -0.896370
| 30> C       1.393291    1.988769   -0.773927
| 31> O       1.032634    3.120241   -0.958761
| 32> C       2.853132    1.620786   -0.431203
| 33> O       3.805237    2.221827   -0.851913
| 34> H       5.644147    0.914755    3.449808
| 35> H       6.503030    2.089354    2.404739
| 36> H       6.627905    0.330565    2.082663
| 37> H       0.155845   -2.068725    1.544974
| 38> H       1.384100   -2.813253    0.510207
| 39> H      -0.301237   -3.374220    0.436335
| 40> H       1.385555   -2.441733   -1.908281
| 41> H      -0.293981   -2.976910   -2.059079
| 42> H       0.202223   -1.404305   -2.714494
| 43> H      -1.494967   -0.653279    0.522928
| 44> H      -2.408564   -2.315783   -2.622129
| 45> H      -3.573582   -2.202934   -1.288495
| 46> H      -3.779762   -1.193718   -2.739927
| 47> H      -4.463626    1.475980    2.810596
| 48> H      -5.116369    2.936638    2.034328
| 49> H      -3.379232    2.802607    2.395614
| 50> H      -0.782577    0.657381   -2.006986
| 51> **                         ****END OF INPUT****

CARTESIAN COORDINATES (ANGSTROEM)
---------------------------------
  C      5.980857    1.135956    2.435277
  O      4.847915    1.264450    1.565473
  C      4.068533    0.207251    1.444112
  O      4.236443   -0.844384    2.006481
  C      2.903085    0.460589    0.511314
  N      1.910404   -0.352033    0.590391
  C      0.868379   -0.231759   -0.328723
  C      0.034781   -1.485797   -0.540715
  C      0.341374   -2.505607    0.565580
  C      0.347460   -2.111797   -1.902137
  N     -1.361425   -1.113362   -0.369766
  C     -2.209955   -0.534835   -1.419347
  C     -3.054731   -1.643824   -2.063127
  O     -1.501445    0.117788   -2.423913
  C     -3.154090    0.447869   -0.743463
  N     -4.142148    1.058166   -1.306426
  N     -4.720981    1.844685   -0.339634
  C     -4.045300    1.654219    0.744033
  C     -4.267765    2.257938    2.077267
  O     -3.033764    0.779303    0.556694
  N      0.559171    0.881140   -0.896370
  C      1.393291    1.988769   -0.773927
  O      1.032634    3.120241   -0.958761
  C      2.853132    1.620786   -0.431203
  O      3.805237    2.221827   -0.851913
  H      5.644147    0.914755    3.449808
  H      6.503030    2.089354    2.404739
  H      6.627905    0.330565    2.082663
  H      0.155845   -2.068725    1.544974
  H      1.384100   -2.813253    0.510207
  H     -0.301237   -3.374220    0.436335
  H      1.385555   -2.441733   -1.908281
  H     -0.293981   -2.976910   -2.059079
  H      0.202223   -1.404305   -2.714494
  H     -1.494967   -0.653279    0.522928
  H     -2.408564   -2.315783   -2.622129
  H     -3.573582   -2.202934   -1.288495
  H     -3.779762   -1.193718   -2.739927
  H     -4.463626    1.475980    2.810596
  H     -5.116369    2.936638    2.034328
  H     -3.379232    2.802607    2.395614
  H     -0.782577    0.657381   -2.006986

 Total Charge           Charge          ....    0
 Multiplicity           Mult            ....    1
 Number of Electrons    NEL             ....  184
 Basis Dimension        Dim             ....  615

ORBITAL ENERGIES
----------------

  NO   OCC          E(Eh)            E(eV)
   0   2.0000     -19.059395      -518.6325
   1   2.0000     -19.020414      -517.5718
   2   2.0000     -18.992140      -516.8024
   3   2.0000     -18.974522      -516.3230
   4   2.0000     -18.957052      -515.8476
   5   2.0000     -18.947749      -515.5945
   6   2.0000     -14.210779      -386.6949
   7   2.0000     -14.191409      -386.1679
   8   2.0000     -14.191020      -386.1573
   9   2.0000     -14.190205      -386.1351
  10   2.0000     -14.177493      -385.7892
  11   2.0000     -10.181670      -277.0573
  12   2.0000     -10.167009      -276.6584
  13   2.0000     -10.160322      -276.4764
  14   2.0000     -10.154115      -276.3075
  15   2.0000     -10.148703      -276.1603
  16   2.0000     -10.137921      -275.8669
  17   2.0000     -10.137847      -275.8648
  18   2.0000     -10.133366      -275.7429
  19   2.0000     -10.102460      -274.9019
  20   2.0000     -10.084410      -274.4107
  21   2.0000     -10.042829      -273.2793
  22   2.0000     -10.024179      -272.7718
  23   2.0000     -10.021878      -272.7092
  24   2.0000     -10.021277      -272.6928
  25   2.0000      -1.147061       -31.2131
  26   2.0000      -1.097772       -29.8719
  27   2.0000      -1.065928       -29.0054
  28   2.0000      -1.041891       -28.3513
  29   2.0000      -1.010561       -27.4988
  30   2.0000      -1.006480       -27.3877
  31   2.0000      -0.983943       -26.7744
  32   2.0000      -0.964628       -26.2488
  33   2.0000      -0.900069       -24.4921
  34   2.0000      -0.887860       -24.1599
  35   2.0000      -0.827298       -22.5119
  36   2.0000      -0.779812       -21.2198
  37   2.0000      -0.743686       -20.2367
  38   2.0000      -0.718298       -19.5459
  39   2.0000      -0.706429       -19.2229
  40   2.0000      -0.697066       -18.9681
  41   2.0000      -0.665091       -18.0980
  42   2.0000      -0.647532       -17.6202
  43   2.0000      -0.642890       -17.4939
  44   2.0000      -0.633104       -17.2276
  45   2.0000      -0.593136       -16.1401
  46   2.0000      -0.576271       -15.6811
  47   2.0000      -0.563251       -15.3269
  48   2.0000      -0.545752       -14.8507
  49   2.0000      -0.533188       -14.5088
  50   2.0000      -0.524234       -14.2651
  51   2.0000      -0.510099       -13.8805
  52   2.0000      -0.502044       -13.6613
  53   2.0000      -0.485855       -13.2208
  54   2.0000      -0.473103       -12.8738
  55   2.0000      -0.465255       -12.6602
  56   2.0000      -0.459148       -12.4941
  57   2.0000      -0.454014       -12.3543
  58   2.0000      -0.451828       -12.2949
  59   2.0000      -0.446403       -12.1473
  60   2.0000      -0.430848       -11.7240
  61   2.0000      -0.424303       -11.5459
  62   2.0000      -0.410518       -11.1708
  63   2.0000      -0.403374       -10.9764
  64   2.0000      -0.400723       -10.9042
  65   2.0000      -0.393969       -10.7204
  66   2.0000      -0.392011       -10.6672
  67   2.0000      -0.385499       -10.4899
  68   2.0000      -0.381232       -10.3738
  69   2.0000      -0.379687       -10.3318
  70   2.0000      -0.367821       -10.0089
  71   2.0000      -0.364271        -9.9123
  72   2.0000      -0.359912        -9.7937
  73   2.0000      -0.355117        -9.6632
  74   2.0000      -0.349766        -9.5176
  75   2.0000      -0.343115        -9.3366
  76   2.0000      -0.337879        -9.1942
  77   2.0000      -0.335189        -9.1209
  78   2.0000      -0.334712        -9.1080
  79   2.0000      -0.323513        -8.8032
  80   2.0000      -0.316248        -8.6055
  81   2.0000      -0.306965        -8.3529
  82   2.0000      -0.303969        -8.2714
  83   2.0000      -0.295193        -8.0326
  84   2.0000      -0.290390        -7.9019
  85   2.0000      -0.277722        -7.5572
  86   2.0000      -0.272527        -7.4158
  87   2.0000      -0.267671        -7.2837
  88   2.0000      -0.260576        -7.0906
  89   2.0000      -0.247378        -6.7315
  90   2.0000      -0.221204        -6.0193
  91   2.0000      -0.216035        -5.8786
  92   0.0000      -0.184955        -5.0329
  93   0.0000      -0.087868        -2.3910
  94   0.0000      -0.066241        -1.8025
  95   0.0000      -0.043093        -1.1726
  96   0.0000      -0.007908        -0.2152

MULLIKEN ATOMIC CHARGES
-----------------------
   0 C :   -0.309481
   1 O :   -0.145223
   2 C :    0.175397
   3 O :   -0.387168
   4 C :    0.386191
   5 N :   -0.102196
   6 C :    0.041481
   7 C :    0.180234
   8 C :   -0.541900
   9 C :   -0.593463
  10 N :   -0.213654
  11 C :   -0.222727
  12 C :   -0.562151
  13 O :   -0.409727
  14 C :    0.440572
  15 N :   -0.198542
  16 N :   -0.300806
  17 C :    0.384160
  18 C :   -0.636369
  19 O :   -0.068869
  20 N :   -0.153151
  21 C :    0.146398
  22 O :   -0.320826
  23 C :    0.165114
  24 O :   -0.277106
  25 H :    0.183376
  26 H :    0.183611
  27 H :    0.184010
  28 H :    0.184327
  29 H :    0.191299
  30 H :    0.183744
  31 H :    0.188062
  32 H :    0.197007
  33 H :    0.205298
  34 H :    0.329838
  35 H :    0.188800
  36 H :    0.190783
  37 H :    0.182110
  38 H :    0.197520
  39 H :    0.202713
  40 H :    0.197364
  41 H :    0.333950
Sum of atomic charges:    0.0000000

LOEWDIN ATOMIC CHARGES
----------------------
   0 C :   -0.028055
   1 O :   -0.555993
   2 C :    0.397719
   3 O :   -0.377686
   4 C :    0.296417
   5 N :   -0.475336
   6 C :    0.399053
   7 C :    0.094743
   8 C :   -0.334799
   9 C :   -0.343024
  10 N :   -0.636392
  11 C :    0.285626
  12 C :   -0.320091
  13 O :   -0.529674
  14 C :    0.406800
  15 N :   -0.361905
  16 N :   -0.374587
  17 C :    0.366412
  18 C :   -0.320274
  19 O :   -0.406387
  20 N :   -0.521086
  21 C :    0.377763
  22 O :   -0.332149
  23 C :    0.326939
  24 O :   -0.340418
  25 H :    0.187497
  26 H :    0.190371
  27 H :    0.187968
  28 H :    0.175352
  29 H :    0.177774
  30 H :    0.170380
  31 H :    0.174345
  32 H :    0.178513
  33 H :    0.184665
  34 H :    0.289493
  35 H :    0.175706
  36 H :    0.176538
  37 H :    0.175654
  38 H :    0.189023
  39 H :    0.189700
  40 H :    0.188829
  41 H :    0.294578

  Mayer bond orders larger than 0.100000
B(  0-C ,  1-O ) :   0.8285 B(  0-C , 25-H ) :   0.9495 B(  0-C , 26-H ) :   0.9603
B(  0-C , 27-H ) :   0.9491 B(  1-O ,  2-C ) :   1.1580 B(  2-C ,  3-O ) :   1.8985
B(  2-C ,  4-C ) :   0.9864 B(  4-C ,  5-N ) :   1.4694 B(  4-C , 23-C ) :   0.8479
B(  5-N ,  6-C ) :   1.1141 B(  6-C ,  7-C ) :   0.9232 B(  6-C ,  9-C ) :   0.1066
B(  6-C , 20-N ) :   1.6279 B(  7-C ,  8-C ) :   1.0030 B(  7-C ,  9-C ) :   0.8233
B(  7-C , 10-N ) :   0.8595 B(  8-C , 28-H ) :   0.9516 B(  8-C , 29-H ) :   0.9674
B(  8-C , 30-H ) :   0.9691 B(  9-C , 31-H ) :   0.9492 B(  9-C , 32-H ) :   0.9635
B(  9-C , 33-H ) :   0.9527 B( 10-N , 11-C ) :   0.8431 B( 10-N , 34-H ) :   0.8709
B( 11-C , 12-C ) :   1.0005 B( 11-C , 13-O ) :   0.9999 B( 11-C , 14-C ) :   0.7249
B( 12-C , 35-H ) :   0.9479 B( 12-C , 36-H ) :   0.9653 B( 12-C , 37-H ) :   0.9624
B( 13-O , 41-H ) :   0.7306 B( 14-C , 15-N ) :   1.7449 B( 14-C , 17-C ) :   0.1359
B( 14-C , 19-O ) :   1.1591 B( 15-N , 16-N ) :   1.2324 B( 16-N , 17-C ) :   1.6774
B( 17-C , 18-C ) :   0.8128 B( 17-C , 19-O ) :   1.0405 B( 18-C , 38-H ) :   0.9458
B( 18-C , 39-H ) :   0.9918 B( 18-C , 40-H ) :   0.9464 B( 20-N , 21-C ) :   0.9636
B( 20-N , 41-H ) :   0.1879 B( 21-C , 22-O ) :   2.0300 B( 21-C , 23-C ) :   0.9018
B( 23-C , 24-O ) :   1.9928

Dispersion correction           -0.019312611
FINAL SINGLE POINT ENERGY     -1268.556560740953

DIPOLE MOMENT
-------------
                                X             Y             Z
Electronic contribution:      8.05270      14.22828      -1.39192
Nuclear contribution   :     -6.22798     -16.07048       4.32871
                        -----------------------------------------
Total Dipole Moment    :      1.82472      -1.84220       2.93679
                        -----------------------------------------
Magnitude (a.u.)       :      3.91765
Magnitude (Debye)      :      9.95788

Rotational constants in cm-1:     0.012923     0.004102     0.003788
Rotational constants in MHz :   387.434305   122.983003   113.561022

                             ****ORCA TERMINATED NORMALLY****
TOTAL RUN TIME: 0 days 0 hours 2 minutes 32 seconds 589 msec
