   * xtb version 6.5.1 (579679a) compiled by 'ehlert@majestix' on 2022-07-11
          program call               : /lustre/hpc/kemi/ree/PhD/git/ReactivityQM/dep/xtb-6.5.1/bin/xtb --gfn 1 /lustre/hpc/kemi/ree/PhD/git/ReactivityQM/calculations/R02methylcation/reac01prodN11/conf06/R02methylcation_reac01prodN11_conf06_gfn1.xyz --opt --vfukui --chrg 0 --uhf 0 --alpb DMSO

   ID    Z sym.   atoms
    1    6 C      1, 3, 5, 7-10, 12, 13, 15, 18, 19, 22, 24
    2    8 O      2, 4, 14, 20, 23, 25
    3    7 N      6, 11, 16, 17, 21
    4    1 H      26-42

      * Solvation model:               ALPB
        Solvent                        DMSO
        Solvent mass                       7.8130E+01 g/mol
          :  Hamiltonian                  GFN1-xTB          :
 * total energy  :   -82.8649274 Eh     change       -0.5983765E-09 Eh
 * total energy  :   -82.8777622 Eh     change       -0.1283476E-01 Eh
 * total energy  :   -82.8845215 Eh     change       -0.6759322E-02 Eh
 * total energy  :   -82.8862327 Eh     change       -0.1711157E-02 Eh
 * total energy  :   -82.8878429 Eh     change       -0.1610215E-02 Eh
 * total energy  :   -82.8900891 Eh     change       -0.2246169E-02 Eh
 * total energy  :   -82.8927660 Eh     change       -0.2676907E-02 Eh
 * total energy  :   -82.8962880 Eh     change       -0.3522059E-02 Eh
 * total energy  :   -82.9010124 Eh     change       -0.4724343E-02 Eh
 * total energy  :   -82.9053174 Eh     change       -0.4305047E-02 Eh
 * total energy  :   -82.9139917 Eh     change       -0.5384696E-04 Eh
 * total energy  :   -82.9140054 Eh     change       -0.1367565E-04 Eh
 * total energy  :   -82.9140341 Eh     change       -0.2866985E-04 Eh
 * total energy  :   -82.9140442 Eh     change       -0.1011235E-04 Eh
 * total energy  :   -82.9140555 Eh     change       -0.1129110E-04 Eh
 * total energy  :   -82.9140611 Eh     change       -0.5604127E-05 Eh
 * total energy  :   -82.9140654 Eh     change       -0.4299067E-05 Eh
 * total energy  :   -82.9140687 Eh     change       -0.3377058E-05 Eh
 * total energy  :   -82.9140703 Eh     change       -0.1600362E-05 Eh
   *** GEOMETRY OPTIMIZATION CONVERGED AFTER 44 ITERATIONS ***

 final structure:
================
42
 xtb: 6.5.1 (579679a)
C            5.98085660572979        1.13595578157420        2.43527745570270
O            4.84791545944896        1.26445023947036        1.56547346422804
C            4.06853332255315        0.20725118378398        1.44411210668295
O            4.23644345289333       -0.84438357550723        2.00648054216572
C            2.90308501291663        0.46058896319618        0.51131400040537
N            1.91040428853267       -0.35203335892868        0.59039138388461
C            0.86837906185610       -0.23175915730905       -0.32872294572097
C            0.03478105990981       -1.48579717540572       -0.54071549748507
C            0.34137393379071       -2.50560718682042        0.56557989308260
C            0.34746012261305       -2.11179717514733       -1.90213725143016
N           -1.36142498083451       -1.11336243133970       -0.36976555739206
C           -2.20995481377863       -0.53483469390160       -1.41934688354414
C           -3.05473125690095       -1.64382362289697       -2.06312738481028
O           -1.50144508834436        0.11778840676546       -2.42391262270621
C           -3.15408992797048        0.44786924035705       -0.74346347697114
N           -4.14214806276094        1.05816586703566       -1.30642587188501
N           -4.72098103230030        1.84468495795930       -0.33963404484668
C           -4.04530017915966        1.65421920460446        0.74403287002202
C           -4.26776535123296        2.25793829750215        2.07726695393524
O           -3.03376414658659        0.77930301272409        0.55669413154735
N            0.55917106902666        0.88114020798815       -0.89636953927474
C            1.39329076597416        1.98876870289685       -0.77392697630042
O            1.03263354086970        3.12024057011566       -0.95876122202669
C            2.85313193472533        1.62078628754708       -0.43120321324949
O            3.80523717065434        2.22182666202242       -0.85191317374244
H            5.64414676348151        0.91475483374312        3.44980825789252
H            6.50302960561823        2.08935445146642        2.40473868003897
H            6.62790511319683        0.33056535097727        2.08266299578563
H            0.15584487249675       -2.06872524069873        1.54497417931298
H            1.38409952373686       -2.81325310913801        0.51020659695861
H           -0.30123662973279       -3.37421993715747        0.43633509532615
H            1.38555533820804       -2.44173347018672       -1.90828143965930
H           -0.29398063038668       -2.97691020181049       -2.05907869759339
H            0.20222301200365       -1.40430500727557       -2.71449432759263
H           -1.49496734212457       -0.65327904254227        0.52292816329969
H           -2.40856439081692       -2.31578254925810       -2.62212903753177
H           -3.57358220789950       -2.20293424492405       -1.28849540802560
H           -3.77976169386527       -1.19371823779727       -2.73992653631365
H           -4.46362588036373        1.47597963363873        2.81059601526749
H           -5.11636905825199        2.93663845233224        2.03432840959673
H           -3.37923206582744        2.80260723559059        2.39561357732577
H           -0.78257729108241        0.65738087476647       -2.00698566436778

          :  Hamiltonian                  GFN1-xTB          :
         :: total energy             -82.914070340307 Eh    ::
         :: gradient norm              0.000465051577 Eh/a0 ::
         :: HOMO-LUMO gap              0.488862106454 eV    ::
         :: SCC energy               -83.675106143378 Eh    ::
         :: -> Gsolv                  -0.048704387770 Eh    ::
         :: repulsion energy           0.787924087317 Eh    ::

    * Orbital Energies and Occupations

         #    Occupation            Energy/Eh            Energy/eV
      -------------------------------------------------------------
         1        2.0000           -0.8593316             -23.3836
       ...           ...                  ...                  ...
        55        2.0000           -0.5071918             -13.8014
        56        2.0000           -0.5032334             -13.6937
        57        2.0000           -0.5029660             -13.6864
        58        2.0000           -0.4980708             -13.5532
        59        2.0000           -0.4963756             -13.5071
        60        2.0000           -0.4895217             -13.3206
        61        2.0000           -0.4860857             -13.2271
        62        2.0000           -0.4812414             -13.0952
        63        2.0000           -0.4691510             -12.7662
        64        2.0000           -0.4497006             -12.2370
        65        2.0000           -0.4466177             -12.1531
        66        2.0000           -0.4319516             -11.7540
        67        1.9998           -0.4255888             -11.5809 (HOMO)
        68        0.0002           -0.4076234             -11.0920 (LUMO)
        69                         -0.3235241              -8.8035
        70                         -0.3072589              -8.3609
        71                         -0.2655167              -7.2251
        72                         -0.2553682              -6.9489
        73                         -0.2472262              -6.7274
        74                         -0.2043453              -5.5605
        75                         -0.1413181              -3.8455
        76                         -0.1408278              -3.8321
        77                         -0.1356284              -3.6906
        78                         -0.1228934              -3.3441
       ...                                ...                  ...
       134                          0.7761481              21.1201
      -------------------------------------------------------------
                  HL-Gap            0.0179654 Eh            0.4889 eV

Wiberg/Mayer (AO) data.
largest (>0.10) Wiberg bond orders for each atom

     #   Z sym  total        # sym  WBO       # sym  WBO       # sym  WBO
 ---------------------------------------------------------------------------
     1   6 C    3.856 --    27 H    0.985    28 H    0.978    26 H    0.978
                             2 O    0.883
     2   8 O    2.227 --     3 C    1.149     1 C    0.883     4 O    0.149
     3   6 C    3.856 --     4 O    1.683     2 O    1.149     5 C    0.948
     4   8 O    1.950 --     3 C    1.683     2 O    0.149
     5   6 C    3.942 --     6 N    1.720    24 C    0.983     3 C    0.948
     6   7 N    3.058 --     5 C    1.720     7 C    1.082
     7   6 C    3.905 --    21 N    1.636     6 N    1.082     8 C    0.960
     8   6 C    3.947 --     9 C    0.985    10 C    0.980     7 C    0.960
                            11 N    0.954
     9   6 C    3.988 --     8 C    0.985    31 H    0.985    29 H    0.983
                            30 H    0.982
    10   6 C    3.987 --    32 H    0.984     8 C    0.980    33 H    0.979
                            34 H    0.978
    11   7 N    3.146 --     8 C    0.954    12 C    0.939    35 H    0.907
    12   6 C    3.905 --    14 O    0.981    13 C    0.970    15 C    0.954
                            11 N    0.939
    13   6 C    3.983 --    37 H    0.987    38 H    0.983    36 H    0.980
                            12 C    0.970
    14   8 O    1.921 --    12 C    0.981    42 H    0.786
    15   6 C    3.870 --    16 N    1.668    20 O    1.061    12 C    0.954
    16   7 N    2.991 --    15 C    1.668    17 N    1.162
    17   7 N    2.980 --    18 C    1.650    16 N    1.162
    18   6 C    3.870 --    17 N    1.650    20 O    1.049    19 C    1.029
    19   6 C    3.988 --    18 C    1.029    40 H    0.983    41 H    0.966
                            39 H    0.965
    20   8 O    2.312 --    15 C    1.061    18 C    1.049
    21   7 N    3.145 --     7 C    1.636    22 C    1.087
    22   6 C    3.875 --    23 O    1.755    21 N    1.087    24 C    0.886
    23   8 O    2.005 --    22 C    1.755
    24   6 C    3.852 --    25 O    1.822     5 C    0.983    22 C    0.886
    25   8 O    2.006 --    24 C    1.822
    26   1 H    1.003 --     1 C    0.978
    27   1 H    1.008 --     1 C    0.985
    28   1 H    1.003 --     1 C    0.978
    29   1 H    1.003 --     9 C    0.983
    30   1 H    1.007 --     9 C    0.982
    31   1 H    1.003 --     9 C    0.985
    32   1 H    1.001 --    10 C    0.984
    33   1 H    1.001 --    10 C    0.979
    34   1 H    1.010 --    10 C    0.978
    35   1 H    0.950 --    11 N    0.907
    36   1 H    1.006 --    13 C    0.980
    37   1 H    1.007 --    13 C    0.987
    38   1 H    1.007 --    13 C    0.983
    39   1 H    0.998 --    19 C    0.965
    40   1 H    0.999 --    19 C    0.983
    41   1 H    0.998 --    19 C    0.966
    42   1 H    0.902 --    14 O    0.786
 ---------------------------------------------------------------------------

           -------------------------------------------------
          | TOTAL ENERGY              -82.914070340307 Eh   |
          | GRADIENT NORM               0.000465051577 Eh/α |
          | HOMO-LUMO GAP               0.488862106454 eV   |
           -------------------------------------------------

 * finished run on 2023/06/21 at 17:43:42.937
