   * xtb version 6.5.1 (579679a) compiled by 'ehlert@majestix' on 2022-07-11
          program call               : /lustre/hpc/kemi/ree/PhD/git/ReactivityQM/dep/xtb-6.5.1/bin/xtb --gfn 1 /lustre/hpc/kemi/ree/PhD/git/ReactivityQM/calculations/R03/reac02prodE02/conf13/R03_reac02prodE02_conf13_gfn1.xyz --opt --vfukui --chrg -1 --uhf 0 --alpb DMSO

   ID    Z sym.   atoms
    1    6 C      1, 3, 4, 6, 8-11, 13, 15, 18, 19, 22, 23, 25
    2    8 O      2, 5, 14, 20, 24, 26
    3    7 N      7, 12, 16, 17, 21
    4    1 H      27-46

      * Solvation model:               ALPB
        Solvent                        DMSO
        Solvent mass                       7.8130E+01 g/mol
          :  Hamiltonian                  GFN1-xTB          :
 * total energy  :   -87.0322166 Eh     change       -0.2866329E-10 Eh
 * total energy  :   -87.0441033 Eh     change       -0.1188672E-01 Eh
 * total energy  :   -87.0495182 Eh     change       -0.5414862E-02 Eh
 * total energy  :   -87.0527407 Eh     change       -0.3222538E-02 Eh
 * total energy  :   -87.0555686 Eh     change       -0.2827902E-02 Eh
 * total energy  :   -87.0578953 Eh     change       -0.2326732E-02 Eh
 * total energy  :   -87.0612734 Eh     change       -0.3378028E-02 Eh
 * total energy  :   -87.0641077 Eh     change       -0.2834355E-02 Eh
 * total energy  :   -87.0659246 Eh     change       -0.1816856E-02 Eh
 * total energy  :   -87.0664233 Eh     change       -0.4987518E-03 Eh
 * total energy  :   -87.0722447 Eh     change       -0.1443606E-04 Eh
 * total energy  :   -87.0722563 Eh     change       -0.1166867E-04 Eh
 * total energy  :   -87.0722695 Eh     change       -0.1319090E-04 Eh
 * total energy  :   -87.0722779 Eh     change       -0.8324017E-05 Eh
 * total energy  :   -87.0722860 Eh     change       -0.8152979E-05 Eh
 * total energy  :   -87.0722946 Eh     change       -0.8588003E-05 Eh
 * total energy  :   -87.0723031 Eh     change       -0.8536427E-05 Eh
 * total energy  :   -87.0723093 Eh     change       -0.6197662E-05 Eh
 * total energy  :   -87.0723139 Eh     change       -0.4557442E-05 Eh
   *** GEOMETRY OPTIMIZATION CONVERGED AFTER 51 ITERATIONS ***

 final structure:
================
46
 xtb: 6.5.1 (579679a)
C           -2.31632221274401       -0.93153858172233       -3.54634086311756
O           -1.90963300517942       -0.15205408774143       -2.43920854212576
C           -2.37709393494241       -0.58317390253502       -1.14333312157951
C           -1.70265786539731       -1.91194617716186       -0.75688235687157
O           -3.75815990854154       -0.76898022647201       -1.15248705449457
C           -1.99092206222557        0.53302996067319       -0.17077103201025
N           -0.74022263639288        0.47557688314917        0.35243556325306
C           -0.29244781554655        1.37199036175497        1.17532910413998
C            1.11856690191579        1.12885577580439        1.72768051273797
C            1.04647681682220        0.60319619833373        3.17191585650109
C            2.06373971621326        2.33358732280109        1.60350531412822
N            1.66500195887631        0.05527752198884        0.88628007301639
C            2.83523356476389       -0.56219845368861        1.06910519317792
O            3.67321804466459       -0.29483254141533        1.92216834375867
C            3.06250369237623       -1.65592882977302        0.08158598645261
N            4.09781891819500       -2.43271274523433       -0.00858799497581
N            3.86789724465072       -3.27672408896662       -1.05630411360045
C            2.70686075560234       -2.96149526155347       -1.54022431633033
C            2.01369738900822       -3.57392880948939       -2.69479929820554
O            2.14387342651657       -1.94603069620773       -0.86619348134585
N           -1.08912223215806        2.43947766015203        1.55090795947779
C           -0.63141732887190        3.50084453883650        2.44430015033050
C           -2.38101570833025        2.60812691895707        1.05049183959176
O           -3.03717676086435        3.60591282088686        1.37049466819695
C           -2.88852146232078        1.55047012731958        0.13989349064614
O           -4.08083264316475        1.62205332767417       -0.30467890724583
H           -2.12739485010394       -0.33867186527462       -4.44459996684700
H           -1.74437151030999       -1.86626622832174       -3.61901661464671
H           -3.38540351670458       -1.17439389590062       -3.49934244392363
H           -2.05137501807082       -2.71030134540426       -1.40852714742297
H           -1.96114564348952       -2.15675369512362        0.27171468212243
H           -0.62214736745878       -1.81684860813080       -0.84424824071028
H            2.05042323092481        0.43184803671033        3.55693989274346
H            0.49313447402875       -0.33491650048300        3.18965085559867
H            0.54471796991594        1.31560792839925        3.82147278691426
H            1.92955540047689        2.82030155575902        0.63857609216033
H            1.89604303987585        3.05507897117580        2.39732531798996
H            3.09478440161913        1.99243485931904        1.68365219166902
H            1.01831721878491       -0.29456454947622        0.18037925684714
H            2.56541218591881       -4.44853496938887       -3.02973092554379
H            1.94723438022895       -2.85532253393391       -3.51217697801530
H            1.00109675629899       -3.86213555393490       -2.41469224851359
H           -0.01815637250109        4.21853167641975        1.89803656813239
H           -0.06974315820910        3.09178782245257        3.27786986233630
H           -1.50783486677531        4.01821947133840        2.83722469379138
H           -4.15249060738967        0.13804340741320       -0.92195860817043

          :  Hamiltonian                  GFN1-xTB          :
         :: total energy             -87.072313883828 Eh    ::
         :: gradient norm              0.000642257048 Eh/a0 ::
         :: HOMO-LUMO gap              1.387660019029 eV    ::
         :: SCC energy               -87.857220711339 Eh    ::
         :: -> Gsolv                  -0.108087188452 Eh    ::
         :: repulsion energy           0.815353702012 Eh    ::

    * Orbital Energies and Occupations

         #    Occupation            Energy/Eh            Energy/eV
      -------------------------------------------------------------
         1        2.0000           -0.8582350             -23.3538
       ...           ...                  ...                  ...
        59        2.0000           -0.4721657             -12.8483
        60        2.0000           -0.4549967             -12.3811
        61        2.0000           -0.4513185             -12.2810
        62        2.0000           -0.4512717             -12.2797
        63        2.0000           -0.4448023             -12.1037
        64        2.0000           -0.4428773             -12.0513
        65        2.0000           -0.4360119             -11.8645
        66        2.0000           -0.4341607             -11.8141
        67        2.0000           -0.4255965             -11.5811
        68        2.0000           -0.4221299             -11.4867
        69        2.0000           -0.4121309             -11.2147
        70        2.0000           -0.3664180              -9.9707
        71        2.0000           -0.3502925              -9.5319 (HOMO)
        72                         -0.2992970              -8.1443 (LUMO)
        73                         -0.2509083              -6.8276
        74                         -0.2457555              -6.6873
        75                         -0.2310611              -6.2875
        76                         -0.1877697              -5.1095
        77                         -0.1424603              -3.8765
        78                         -0.1320312              -3.5928
        79                         -0.1227035              -3.3389
        80                         -0.1148517              -3.1253
        81                         -0.1101622              -2.9977
        82                         -0.1036907              -2.8216
       ...                                ...                  ...
       144                          0.7339209              19.9710
      -------------------------------------------------------------
                  HL-Gap            0.0509956 Eh            1.3877 eV

Wiberg/Mayer (AO) data.
largest (>0.10) Wiberg bond orders for each atom

     #   Z sym  total        # sym  WBO       # sym  WBO       # sym  WBO
 ---------------------------------------------------------------------------
     1   6 C    3.921 --    27 H    0.984    28 H    0.982    29 H    0.979
                             2 O    0.951
     2   8 O    1.982 --     1 C    0.951     3 C    0.890
     3   6 C    3.861 --     5 O    0.988     4 C    0.978     6 C    0.958
                             2 O    0.890
     4   6 C    3.996 --    31 H    0.986    32 H    0.985    30 H    0.984
                             3 C    0.978
     5   8 O    1.888 --     3 C    0.988    46 H    0.745
     6   6 C    3.933 --    25 C    1.372     7 N    1.228     3 C    0.958
                            26 O    0.135
     7   7 N    3.079 --     8 C    1.543     6 C    1.228
     8   6 C    3.928 --     7 N    1.543    21 N    1.123     9 C    0.973
     9   6 C    3.933 --    11 C    0.988    10 C    0.981     8 C    0.973
                            12 N    0.925
    10   6 C    3.989 --    34 H    0.985     9 C    0.981    33 H    0.980
                            35 H    0.978
    11   6 C    3.990 --     9 C    0.988    36 H    0.986    37 H    0.982
                            38 H    0.979
    12   7 N    3.383 --    13 C    1.304     9 C    0.925    39 H    0.862
                            14 O    0.187
    13   6 C    3.923 --    14 O    1.554    12 N    1.304    15 C    0.984
    14   8 O    1.880 --    13 C    1.554    12 N    0.187
    15   6 C    3.868 --    16 N    1.626    20 O    1.048    13 C    0.984
    16   7 N    2.995 --    15 C    1.626    17 N    1.193
    17   7 N    2.979 --    18 C    1.615    16 N    1.193
    18   6 C    3.871 --    17 N    1.615    20 O    1.074    19 C    1.030
    19   6 C    3.988 --    18 C    1.030    40 H    0.983    42 H    0.967
                            41 H    0.961
    20   8 O    2.321 --    18 C    1.074    15 C    1.048
    21   7 N    3.465 --    23 C    1.124     8 C    1.123    22 C    0.946
                            24 O    0.132
    22   6 C    3.945 --    43 H    0.980    44 H    0.977    45 H    0.973
                            21 N    0.946
    23   6 C    3.889 --    24 O    1.534    21 N    1.124    25 C    1.027
    24   8 O    1.850 --    23 C    1.534    21 N    0.132
    25   6 C    3.956 --     6 C    1.372    26 O    1.368    23 C    1.027
    26   8 O    1.820 --    25 C    1.368     6 C    0.135    46 H    0.129
    27   1 H    1.020 --     1 C    0.984
    28   1 H    1.015 --     1 C    0.982
    29   1 H    1.021 --     1 C    0.979
    30   1 H    1.007 --     4 C    0.984
    31   1 H    1.011 --     4 C    0.986
    32   1 H    1.021 --     4 C    0.985
    33   1 H    1.010 --    10 C    0.980
    34   1 H    1.005 --    10 C    0.985
    35   1 H    1.006 --    10 C    0.978
    36   1 H    1.004 --    11 C    0.986
    37   1 H    1.005 --    11 C    0.982
    38   1 H    1.009 --    11 C    0.979
    39   1 H    0.968 --    12 N    0.862
    40   1 H    0.999 --    19 C    0.983
    41   1 H    0.998 --    19 C    0.961
    42   1 H    0.999 --    19 C    0.967
    43   1 H    1.006 --    22 C    0.980
    44   1 H    1.011 --    22 C    0.977
    45   1 H    1.016 --    22 C    0.973
    46   1 H    0.888 --     5 O    0.745    26 O    0.129
 ---------------------------------------------------------------------------

           -------------------------------------------------
          | TOTAL ENERGY              -87.072313883828 Eh   |
          | GRADIENT NORM               0.000642257048 Eh/α |
          | HOMO-LUMO GAP               1.387660019029 eV   |
           -------------------------------------------------

 * finished run on 2023/06/20 at 15:15:31.692
