   * xtb version 6.5.1 (579679a) compiled by 'ehlert@majestix' on 2022-07-11
          program call               : /lustre/hpc/kemi/ree/PhD/git/ReactivityQM/dep/xtb-6.5.1/bin/xtb --gfn 1 /lustre/hpc/kemi/ree/PhD/git/ReactivityQM/calculations/RaltegravirCLI/reac02prodE02/conf03/RaltegravirCLI_reac02prodE02_conf03_gfn1.xyz --opt --vfukui --chrg -1 --uhf 0 --alpb DMSO

   ID    Z sym.   atoms
    1    6 C      1, 3, 5, 7, 8, 11-15, 17, 18, 20-24
    2    7 N      2, 10, 19, 25
    3    8 O      4, 6, 9
    4    9 F      16
    5    1 H      26-47

      * Solvation model:               ALPB
        Solvent                        DMSO
        Solvent mass                       7.8130E+01 g/mol
          :  Hamiltonian                  GFN1-xTB          :
 * total energy  :   -80.2066721 Eh     change       -0.4760636E-11 Eh
 * total energy  :   -80.2144830 Eh     change       -0.7810887E-02 Eh
 * total energy  :   -80.2165744 Eh     change       -0.2091404E-02 Eh
 * total energy  :   -80.2170390 Eh     change       -0.4645552E-03 Eh
 * total energy  :   -80.2175131 Eh     change       -0.4741214E-03 Eh
 * total energy  :   -80.2177489 Eh     change       -0.2357957E-03 Eh
 * total energy  :   -80.2179285 Eh     change       -0.1796103E-03 Eh
 * total energy  :   -80.2180497 Eh     change       -0.1211682E-03 Eh
 * total energy  :   -80.2181177 Eh     change       -0.6800311E-04 Eh
 * total energy  :   -80.2181714 Eh     change       -0.5375429E-04 Eh
 * total energy  :   -80.2185776 Eh     change       -0.1292866E-04 Eh
 * total energy  :   -80.2185906 Eh     change       -0.1297043E-04 Eh
 * total energy  :   -80.2185995 Eh     change       -0.8860935E-05 Eh
 * total energy  :   -80.2186062 Eh     change       -0.6707007E-05 Eh
 * total energy  :   -80.2186127 Eh     change       -0.6518512E-05 Eh
 * total energy  :   -80.2186204 Eh     change       -0.7658656E-05 Eh
 * total energy  :   -80.2186287 Eh     change       -0.8308664E-05 Eh
 * total energy  :   -80.2186354 Eh     change       -0.6703172E-05 Eh
 * total energy  :   -80.2186395 Eh     change       -0.4137028E-05 Eh
   *** GEOMETRY OPTIMIZATION CONVERGED AFTER 34 ITERATIONS ***

 final structure:
================
47
 xtb: 6.5.1 (579679a)
C           -3.39746495824172        0.84343508279891        2.16160657793949
N           -2.43046811378209        0.80202957390429        1.06934885279254
C           -1.51831232749811        1.84015682574650        1.02619800162119
O           -1.68649968141090        2.87665702226154        1.71281251655224
C           -0.38712310662858        1.65894743301566        0.18739783110858
O            0.49344945514577        2.75696838176020        0.12526688287930
C           -0.10964970219070        0.41241926552479       -0.36871434612940
C            1.17098643897250        0.06038256820091       -1.06794649708190
O            1.31571676421191       -0.99823686990469       -1.68287023263021
N            2.17552272138380        0.97205707947583       -1.01496382901391
C            3.49458295511696        0.65185033913987       -1.53738623440858
C            4.34369492315508       -0.02232507943556       -0.47846163047075
C            4.13244406642374       -1.36393645483790       -0.16201153672780
C            4.88115313988052       -1.98367612746710        0.82768787648556
C            5.84017794990563       -1.23741436774303        1.48896976484969
F            6.57076782859124       -1.83174589898975        2.45078887707030
C            6.08139659897429        0.09236799114123        1.19891904284922
C            5.32042524505030        0.69632100463005        0.20618581106135
N           -0.95296879240440       -0.60502977725293       -0.29375551637747
C           -2.27280006966361       -0.42545161515846        0.25979354547860
C           -2.52375567042855       -1.66742481431126        1.14368086766033
C           -3.28321501747550       -0.38535850824334       -0.96975513375903
C           -3.07087397899182       -1.62062750480751       -1.85621723743635
C           -3.03540342014231        0.88096483082898       -1.80144767790870
N           -4.69182212097613       -0.36414214187463       -0.57712049771017
H           -4.28592720046904        0.26617821229850        1.91589003166141
H           -2.96839212626062        0.45092253802754        3.09127757508585
H           -3.69074110905187        1.88241024092467        2.32714398381038
H            0.11721736567081        3.41929365120209        0.73199922513538
H            2.11722242794114        1.76664133343253       -0.39572678019593
H            3.37055785624621       -0.01212223788858       -2.40007442373589
H            3.96871028819221        1.57942295947891       -1.86861269201558
H            3.37694743291454       -1.92958108826938       -0.69727816229681
H            4.73088047594471       -3.02483599256581        1.08253244380505
H            6.84520625498948        0.63993681509344        1.73489207783431
H            5.49714558504991        1.73759047059076       -0.03728613197638
H           -2.20696884352195       -2.55627044861833        0.60027670609843
H           -3.56861477556839       -1.78017621605159        1.42315964967119
H           -1.92188127450083       -1.59265856638140        2.04867919532635
H           -3.40447267274225       -2.52386811428838       -1.34600672583669
H           -2.01384873890436       -1.72695600623435       -2.10543684934348
H           -3.64694536320895       -1.52000640093655       -2.77721987142600
H           -3.73709000158105        0.91488934104099       -2.63598448096081
H           -2.01953999725475        0.89022918576605       -2.19705920692593
H           -3.18461107435447        1.77261599628469       -1.19181249316504
H           -4.92768990750168       -1.16628332934277       -0.00950198826607
H           -4.90712672900725        0.47344041803472       -0.05243416097902

          :  Hamiltonian                  GFN1-xTB          :
         :: total energy             -80.218639513686 Eh    ::
         :: gradient norm              0.000294041702 Eh/a0 ::
         :: HOMO-LUMO gap              1.122390412664 eV    ::
         :: SCC energy               -81.073102552531 Eh    ::
         :: -> Gsolv                  -0.099751924476 Eh    ::
         :: repulsion energy           0.886504326727 Eh    ::

    * Orbital Energies and Occupations

         #    Occupation            Energy/Eh            Energy/eV
      -------------------------------------------------------------
         1        2.0000           -0.8576899             -23.3389
       ...           ...                  ...                  ...
        56        2.0000           -0.4568975             -12.4328
        57        2.0000           -0.4547801             -12.3752
        58        2.0000           -0.4462906             -12.1442
        59        2.0000           -0.4436129             -12.0713
        60        2.0000           -0.4311408             -11.7319
        61        2.0000           -0.4194036             -11.4126
        62        2.0000           -0.4171137             -11.3502
        63        2.0000           -0.4062502             -11.0546
        64        2.0000           -0.3913342             -10.6487
        65        2.0000           -0.3879509             -10.5567
        66        2.0000           -0.3748980             -10.2015
        67        2.0000           -0.3598625              -9.7924
        68        2.0000           -0.3067968              -8.3484 (HOMO)
        69                         -0.2655497              -7.2260 (LUMO)
        70                         -0.2589672              -7.0469
        71                         -0.2475827              -6.7371
        72                         -0.1751796              -4.7669
        73                         -0.1376115              -3.7446
        74                         -0.1135295              -3.0893
        75                         -0.1103305              -3.0022
        76                         -0.1043295              -2.8390
        77                         -0.0994917              -2.7073
        78                         -0.0974378              -2.6514
        79                         -0.0963377              -2.6215
       ...                                ...                  ...
       144                          0.7239095              19.6986
      -------------------------------------------------------------
                  HL-Gap            0.0412471 Eh            1.1224 eV

Wiberg/Mayer (AO) data.
largest (>0.10) Wiberg bond orders for each atom

     #   Z sym  total        # sym  WBO       # sym  WBO       # sym  WBO
 ---------------------------------------------------------------------------
     1   6 C    3.966 --    26 H    0.984    27 H    0.982    28 H    0.980
                             2 N    0.960
     2   7 N    3.278 --     3 C    1.128     1 C    0.960    20 C    0.912
                             4 O    0.111
     3   6 C    3.922 --     4 O    1.428     5 C    1.202     2 N    1.128
     4   8 O    1.782 --     3 C    1.428     2 N    0.111
     5   6 C    3.844 --     7 C    1.336     3 C    1.202     6 O    0.952
                            19 N    0.171
     6   8 O    1.950 --     5 C    0.952    29 H    0.838
     7   6 C    3.973 --    19 N    1.431     5 C    1.336     8 C    0.997
     8   6 C    3.880 --     9 O    1.558    10 N    1.232     7 C    0.997
     9   8 O    1.854 --     8 C    1.558    10 N    0.151
    10   7 N    3.312 --     8 C    1.232    11 C    0.953    30 H    0.887
                             9 O    0.151
    11   6 C    3.962 --    12 C    0.993    32 H    0.978    31 H    0.969
                            10 N    0.953
    12   6 C    3.988 --    18 C    1.423    13 C    1.413    11 C    0.993
    13   6 C    3.992 --    14 C    1.447    12 C    1.413    33 H    0.968
                            17 C    0.111
    14   6 C    3.992 --    13 C    1.447    15 C    1.399    34 H    0.970
                            18 C    0.109
    15   6 C    3.858 --    17 C    1.405    14 C    1.399    16 F    0.918
    16   9 F    1.044 --    15 C    0.918
    17   6 C    3.992 --    18 C    1.438    15 C    1.405    35 H    0.970
                            13 C    0.111
    18   6 C    3.994 --    17 C    1.438    12 C    1.423    36 H    0.971
                            14 C    0.109
    19   7 N    2.936 --     7 C    1.431    20 C    1.014     5 C    0.171
    20   6 C    3.939 --    19 N    1.014    21 C    0.986    22 C    0.917
                             2 N    0.912
    21   6 C    3.996 --    20 C    0.986    39 H    0.984    37 H    0.983
                            38 H    0.982
    22   6 C    3.956 --    23 C    1.001    24 C    1.001    25 N    0.981
                            20 C    0.917
    23   6 C    3.996 --    22 C    1.001    42 H    0.986    40 H    0.984
                            41 H    0.982
    24   6 C    3.997 --    22 C    1.001    43 H    0.987    44 H    0.985
                            45 H    0.984
    25   7 N    2.962 --    22 C    0.981    46 H    0.947    47 H    0.946
    26   1 H    1.016 --     1 C    0.984
    27   1 H    1.008 --     1 C    0.982
    28   1 H    1.023 --     1 C    0.980
    29   1 H    0.888 --     6 O    0.838
    30   1 H    0.958 --    10 N    0.887
    31   1 H    1.015 --    11 C    0.969
    32   1 H    1.006 --    11 C    0.978
    33   1 H    1.015 --    13 C    0.968
    34   1 H    1.000 --    14 C    0.970
    35   1 H    0.999 --    17 C    0.970
    36   1 H    1.001 --    18 C    0.971
    37   1 H    1.019 --    21 C    0.983
    38   1 H    1.007 --    21 C    0.982
    39   1 H    1.011 --    21 C    0.984
    40   1 H    1.007 --    23 C    0.984
    41   1 H    1.028 --    23 C    0.982
    42   1 H    1.010 --    23 C    0.986
    43   1 H    1.011 --    24 C    0.987
    44   1 H    1.012 --    24 C    0.985
    45   1 H    1.011 --    24 C    0.984
    46   1 H    0.970 --    25 N    0.947
    47   1 H    0.968 --    25 N    0.946
 ---------------------------------------------------------------------------

           -------------------------------------------------
          | TOTAL ENERGY              -80.218639513686 Eh   |
          | GRADIENT NORM               0.000294041702 Eh/α |
          | HOMO-LUMO GAP               1.122390412664 eV   |
           -------------------------------------------------

 * finished run on 2023/06/20 at 14:56:29.005
