   * xtb version 6.5.1 (579679a) compiled by 'ehlert@majestix' on 2022-07-11
          program call               : /lustre/hpc/kemi/ree/PhD/git/ReactivityQM/dep/xtb-6.5.1/bin/xtb --gfn 1 /lustre/hpc/kemi/ree/PhD/git/ReactivityQM/calculations/R02deprot/reac01prodE14/conf01/R02deprot_reac01prodE14_conf01_gfn1.xyz --opt --vfukui --chrg -2 --uhf 0 --alpb DMSO

   ID    Z sym.   atoms
    1    6 C      1, 3, 5, 7-10, 12, 14, 17, 18, 21, 23, 24
    2    8 O      2, 4, 13, 19, 22, 25
    3    7 N      6, 11, 15, 16, 20
    4    1 H      26-42

      * Solvation model:               ALPB
        Solvent                        DMSO
        Solvent mass                       7.8130E+01 g/mol
          :  Hamiltonian                  GFN1-xTB          :
 * total energy  :   -83.5956913 Eh     change       -0.1751204E-09 Eh
 * total energy  :   -83.6175076 Eh     change       -0.2181633E-01 Eh
 * total energy  :   -83.6272584 Eh     change       -0.9750791E-02 Eh
 * total energy  :   -83.6289340 Eh     change       -0.1675589E-02 Eh
 * total energy  :   -83.6299204 Eh     change       -0.9863701E-03 Eh
 * total energy  :   -83.6302085 Eh     change       -0.2881371E-03 Eh
 * total energy  :   -83.6304069 Eh     change       -0.1983388E-03 Eh
 * total energy  :   -83.6305404 Eh     change       -0.1335127E-03 Eh
 * total energy  :   -83.6306523 Eh     change       -0.1118846E-03 Eh
 * total energy  :   -83.6307453 Eh     change       -0.9304035E-04 Eh
 * total energy  :   -83.6310584 Eh     change       -0.5286900E-04 Eh
 * total energy  :   -83.6310929 Eh     change       -0.3446548E-04 Eh
 * total energy  :   -83.6311202 Eh     change       -0.2737246E-04 Eh
 * total energy  :   -83.6311360 Eh     change       -0.1577192E-04 Eh
 * total energy  :   -83.6311470 Eh     change       -0.1101390E-04 Eh
 * total energy  :   -83.6311543 Eh     change       -0.7266761E-05 Eh
 * total energy  :   -83.6311648 Eh     change       -0.1055586E-04 Eh
 * total energy  :   -83.6311721 Eh     change       -0.7266489E-05 Eh
 * total energy  :   -83.6311763 Eh     change       -0.4186829E-05 Eh
   *** GEOMETRY OPTIMIZATION CONVERGED AFTER 23 ITERATIONS ***

 final structure:
================
42
 xtb: 6.5.1 (579679a)
C           -5.19315839707597        1.98089690251204       -1.58386953883045
O           -4.46314114784470        1.37877486605817       -0.53996621300666
C           -3.19132338776422        0.88915133997979       -0.91126692404761
O           -2.84392754485924        1.01344274466899       -2.10781994469255
C           -2.46579556766143        0.30993261270342        0.13351967461989
N           -1.27522041811551       -0.30522416844135       -0.20671834973793
C           -0.55039069426614       -0.87073470083464        0.70845175402520
C            0.71900705444080       -1.58775218618269        0.24771944773610
C            1.16008058061462       -2.62535362641111        1.28514393581430
C            0.48021634760199       -2.24283645817556       -1.11761267283022
N            1.76675818822878       -0.55145162228224        0.11844382928853
C            3.02947143503877       -0.76823979804762       -0.28482900345765
O            3.50692018278320       -1.85551895398456       -0.61044551640181
C            3.80928698249420        0.48927155778493       -0.29662195838665
N            3.36561634339114        1.67417019201709        0.03286263830169
N            4.41103471632441        2.54159424286390       -0.11657999923171
C            5.42023530613240        1.84036926850859       -0.52393156818237
C            6.78448927818152        2.32411474150677       -0.83607901628799
O            5.11462219216122        0.53748639630014       -0.66098703463102
N           -0.72298746608743       -0.79871670332275        2.06762432727985
C           -1.80750074053585       -0.19687217818537        2.52796990381770
O           -1.98725113257129        0.09077367542217        3.73617625099395
C           -2.96987822355353        0.17646850272969        1.55422881153024
C           -4.03905313110321       -0.94015996347325        1.66697377182472
O           -3.53314775468566        1.39818364698777        2.04868072151759
H           -5.38401538403944        1.27529682965469       -2.40378862329729
H           -6.14897771989561        2.30928698691692       -1.17074233784685
H           -4.66521796770514        2.85057963552512       -1.99817713117078
H            1.33646673146278       -2.13687533944204        2.24392909768676
H            2.06909982127755       -3.13369929942717        0.96751384604030
H            0.36973465512529       -3.36421720879708        1.41388244747861
H            0.16543063568237       -1.48668977347600       -1.83814467921399
H            1.37972685703377       -2.73608625433201       -1.48193086013421
H           -0.31320946816006       -2.98381718031920       -1.02391175736117
H            1.51209732147946        0.39497741143113        0.37034349552173
H            6.97663051117334        2.24294230722344       -1.90587687742669
H            6.88075145257325        3.36357178822148       -0.53378411812567
H            7.52569949779763        1.72106212000003       -0.31417330143880
H           -4.33332611483811       -1.06803992059763        2.70901404409139
H           -4.91904415016684       -0.67198536819564        1.08242045483148
H           -3.63510315974852       -1.88045425280231        1.29284272341065
H           -3.34170652032284        1.40237318771499        3.00534224993093

          :  Hamiltonian                  GFN1-xTB          :
         :: total energy             -83.631176303077 Eh    ::
         :: gradient norm              0.000643358145 Eh/a0 ::
         :: HOMO-LUMO gap              0.129979899467 eV    ::
         :: SCC energy               -84.363174794432 Eh    ::
         :: -> Gsolv                  -0.280205896586 Eh    ::
         :: repulsion energy           0.757574442080 Eh    ::

    * Orbital Energies and Occupations

         #    Occupation            Energy/Eh            Energy/eV
      -------------------------------------------------------------
         1        2.0000           -0.8405308             -22.8720
       ...           ...                  ...                  ...
        56        2.0000           -0.4371351             -11.8951
        57        2.0000           -0.4358237             -11.8594
        58        2.0000           -0.4289577             -11.6725
        59        2.0000           -0.4236033             -11.5268
        60        2.0000           -0.4226145             -11.4999
        61        2.0000           -0.4140293             -11.2663
        62        2.0000           -0.4119473             -11.2097
        63        2.0000           -0.3973599             -10.8127
        64        2.0000           -0.3830702             -10.4239
        65        2.0000           -0.3614030              -9.8343
        66        2.0000           -0.3545041              -9.6465
        67        2.0000           -0.3292164              -8.9584
        68        1.8502           -0.2901933              -7.8966 (HOMO)
        69        0.1498           -0.2854166              -7.7666 (LUMO)
        70                         -0.2388391              -6.4991
        71                         -0.2033179              -5.5326
        72                         -0.1702510              -4.6328
        73                         -0.1371878              -3.7331
        74                         -0.1358955              -3.6979
        75                         -0.1147828              -3.1234
        76                         -0.1043002              -2.8382
        77                         -0.0930370              -2.5317
        78                         -0.0896436              -2.4393
        79                         -0.0775492              -2.1102
       ...                                ...                  ...
       134                          0.7233291              19.6828
      -------------------------------------------------------------
                  HL-Gap            0.0047767 Eh            0.1300 eV

Wiberg/Mayer (AO) data.
largest (>0.10) Wiberg bond orders for each atom

     #   Z sym  total        # sym  WBO       # sym  WBO       # sym  WBO
 ---------------------------------------------------------------------------
     1   6 C    3.925 --    27 H    0.987    28 H    0.980    26 H    0.980
                             2 O    0.957
     2   8 O    2.066 --     1 C    0.957     3 C    0.924
     3   6 C    3.843 --     4 O    1.433     5 C    1.354     2 O    0.924
     4   8 O    1.721 --     3 C    1.433     5 C    0.112
     5   6 C    3.796 --     3 C    1.354     6 N    1.163    23 C    0.982
                             4 O    0.112
     6   7 N    3.003 --     7 C    1.556     5 C    1.163
     7   6 C    3.915 --     6 N    1.556    20 N    1.177     8 C    0.961
     8   6 C    3.915 --     9 C    0.995    10 C    0.994     7 C    0.961
                            11 N    0.894
     9   6 C    3.994 --     8 C    0.995    31 H    0.986    30 H    0.985
                            29 H    0.983
    10   6 C    3.994 --     8 C    0.994    34 H    0.987    33 H    0.985
                            32 H    0.983
    11   7 N    3.339 --    12 C    1.274    35 H    0.903     8 C    0.894
                            13 O    0.175
    12   6 C    3.883 --    13 O    1.526    11 N    1.274    14 C    1.009
    13   8 O    1.828 --    12 C    1.526    11 N    0.175
    14   6 C    3.803 --    15 N    1.563    19 O    1.038    12 C    1.009
    15   7 N    2.935 --    14 C    1.563    16 N    1.186
    16   7 N    2.980 --    17 C    1.622    15 N    1.186
    17   6 C    3.859 --    16 N    1.622    19 O    1.072    18 C    1.028
    18   6 C    3.990 --    17 C    1.028    37 H    0.983    38 H    0.970
                            36 H    0.964
    19   8 O    2.283 --    17 C    1.072    14 C    1.038
    20   7 N    2.921 --    21 C    1.393     7 C    1.177    22 O    0.132
    21   6 C    3.898 --    22 O    1.460    20 N    1.393    23 C    0.907
    22   8 O    1.771 --    21 C    1.460    20 N    0.132
    23   6 C    3.900 --     5 C    0.982    24 C    0.962    25 O    0.930
                            21 C    0.907
    24   6 C    3.988 --    41 H    0.988    39 H    0.987    40 H    0.986
                            23 C    0.962
    25   8 O    1.873 --    23 C    0.930    42 H    0.855
    26   1 H    1.023 --     1 C    0.980
    27   1 H    1.021 --     1 C    0.987
    28   1 H    1.022 --     1 C    0.980
    29   1 H    1.030 --     9 C    0.983
    30   1 H    1.014 --     9 C    0.985
    31   1 H    1.011 --     9 C    0.986
    32   1 H    1.028 --    10 C    0.983
    33   1 H    1.015 --    10 C    0.985
    34   1 H    1.011 --    10 C    0.987
    35   1 H    0.971 --    11 N    0.903
    36   1 H    0.999 --    18 C    0.964
    37   1 H    1.001 --    18 C    0.983
    38   1 H    0.999 --    18 C    0.970
    39   1 H    1.014 --    24 C    0.987
    40   1 H    1.021 --    24 C    0.986
    41   1 H    1.013 --    24 C    0.988
    42   1 H    0.914 --    25 O    0.855
 ---------------------------------------------------------------------------

           -------------------------------------------------
          | TOTAL ENERGY              -83.631176303077 Eh   |
          | GRADIENT NORM               0.000643358145 Eh/α |
          | HOMO-LUMO GAP               0.129979899467 eV   |
           -------------------------------------------------

 * finished run on 2023/06/20 at 18:04:13.840
