   * xtb version 6.5.1 (579679a) compiled by 'ehlert@majestix' on 2022-07-11
          program call               : /lustre/hpc/kemi/ree/PhD/git/ReactivityQM/dep/xtb-6.5.1/bin/xtb --gfn 1 /lustre/hpc/kemi/ree/PhD/git/ReactivityQM/calculations/R02methylcation/reac01prodN15/conf07/R02methylcation_reac01prodN15_conf07_gfn1.xyz --opt --vfukui --chrg 0 --uhf 0 --alpb DMSO

   ID    Z sym.   atoms
    1    6 C      1, 3, 5, 7-10, 12, 14, 17, 18, 21, 23, 24
    2    8 O      2, 4, 13, 19, 22, 25
    3    7 N      6, 11, 15, 16, 20
    4    1 H      26-42

      * Solvation model:               ALPB
        Solvent                        DMSO
        Solvent mass                       7.8130E+01 g/mol
          :  Hamiltonian                  GFN1-xTB          :
 * total energy  :   -82.8938277 Eh     change       -0.4018830E-10 Eh
 * total energy  :   -82.9133723 Eh     change       -0.1954457E-01 Eh
 * total energy  :   -82.9330094 Eh     change       -0.1963709E-01 Eh
 * total energy  :   -82.9528987 Eh     change       -0.1988936E-01 Eh
 * total energy  :   -82.9770003 Eh     change       -0.2410163E-01 Eh
 * total energy  :   -82.9083972 Eh     change        0.6860318E-01 Eh
 * total energy  :   -82.9971257 Eh     change       -0.8872852E-01 Eh
 * total energy  :   -82.9990997 Eh     change       -0.1974013E-02 Eh
 * total energy  :   -83.0020422 Eh     change       -0.2942508E-02 Eh
 * total energy  :   -83.0028945 Eh     change       -0.8522664E-03 Eh
 * total energy  :   -83.0065221 Eh     change       -0.2985958E-04 Eh
 * total energy  :   -83.0065341 Eh     change       -0.1202007E-04 Eh
 * total energy  :   -83.0065411 Eh     change       -0.6984225E-05 Eh
 * total energy  :   -83.0065568 Eh     change       -0.1567227E-04 Eh
 * total energy  :   -83.0065639 Eh     change       -0.7150673E-05 Eh
 * total energy  :   -83.0065812 Eh     change       -0.1734216E-04 Eh
 * total energy  :   -83.0065573 Eh     change        0.2393292E-04 Eh
 * total energy  :   -83.0065912 Eh     change       -0.3390452E-04 Eh
 * total energy  :   -83.0065957 Eh     change       -0.4460415E-05 Eh
   *** GEOMETRY OPTIMIZATION CONVERGED AFTER 61 ITERATIONS ***

 final structure:
================
42
 xtb: 6.5.1 (579679a)
C            4.58805145298661        2.77562458394737        0.23635704393480
O            3.57649482790400        1.75881099205540        0.25873186496518
C            3.94939590031725        0.54049886737282       -0.09411571382029
O            5.06543625648521        0.23957518740776       -0.43479853811064
C            2.77933005643844       -0.43001085904834       -0.05642175034806
N            1.68725881744751       -0.00217014991105        0.73284295039264
C            0.56808535646135       -0.59955873331615        0.61560015321581
C           -0.55615176933677       -0.29464904610044        1.58286265350587
C           -0.28108962610768        1.01140708641009        2.33240923400542
C           -0.64820555775114       -1.48574349232785        2.54950072652326
N           -1.79264761032895       -0.16879178537010        0.80331185578767
C           -3.01086172559723       -0.02204434150995        1.37644063268319
O           -3.25040849541606       -0.11055257357616        2.56729765404931
C           -4.07551467075372        0.23516951478180        0.37520182484622
N           -5.35252054441006        0.32669504164642        0.57971996466644
N           -5.93011171635819        0.55564314019426       -0.63261318511824
C           -4.96999310442639        0.59220828916922       -1.50342986640710
C           -5.07275809244926        0.82442875004908       -2.96019774574134
O           -3.77044297429250        0.39625737599835       -0.93135369543149
N            0.30339436608699       -1.55678983388024       -0.34243224858583
C            1.14063259204387       -1.82154667004331       -1.40124951069565
O            0.73936956464384       -2.35270533827900       -2.41377012766565
C            2.56126081269010       -1.38616139824267       -1.19590196596289
C            3.44672487221390       -1.45117185504863       -2.41697780001523
O            3.11323643542257       -1.78274520923547        0.03372873652510
H            5.33729558021415        2.56994529873442        1.00359378929378
H            4.08357973186061        3.71715605759326        0.44015327771277
H            5.06693392369729        2.80138781666255       -0.74444986118389
H            0.65792213006152        0.92799945925638        2.87722137863179
H           -0.20684989492072        1.83586712926554        1.62564211723647
H           -1.08841755822430        1.21063693520535        3.03479043350795
H           -1.36361084433193       -1.27800093718933        3.34207770836550
H           -0.96007715796202       -2.37876152368127        2.01115565897860
H            0.33085351399151       -1.66106591673046        2.99323407939285
H           -1.70744535950361        0.08352623921695       -0.16756302753647
H           -4.49146816591914        0.07610817661701       -3.49727040897914
H           -6.11481217387650        0.77721927569753       -3.26801774355879
H           -4.66818379889240        1.80661403212195       -3.20710688700105
H           -0.65158906004211       -1.86075858160982       -0.46033868229908
H            4.49084046095239       -1.34496144897963       -2.13292024004880
H            3.30186427111871       -2.41328523855443       -2.90797644526759
H            3.17519497786976       -0.66129831677451       -3.11480529444614

          :  Hamiltonian                  GFN1-xTB          :
         :: total energy             -83.006595675482 Eh    ::
         :: gradient norm              0.000420310117 Eh/a0 ::
         :: HOMO-LUMO gap              3.645746709091 eV    ::
         :: SCC energy               -83.778507945774 Eh    ::
         :: -> Gsolv                  -0.054847157469 Eh    ::
         :: repulsion energy           0.797333639634 Eh    ::

    * Orbital Energies and Occupations

         #    Occupation            Energy/Eh            Energy/eV
      -------------------------------------------------------------
         1        2.0000           -0.8665578             -23.5802
       ...           ...                  ...                  ...
        55        2.0000           -0.5063639             -13.7789
        56        2.0000           -0.5058814             -13.7657
        57        2.0000           -0.5040748             -13.7166
        58        2.0000           -0.5011630             -13.6373
        59        2.0000           -0.4816612             -13.1067
        60        2.0000           -0.4772875             -12.9877
        61        2.0000           -0.4690610             -12.7638
        62        2.0000           -0.4653790             -12.6636
        63        2.0000           -0.4638510             -12.6220
        64        2.0000           -0.4626693             -12.5899
        65        2.0000           -0.4531681             -12.3313
        66        2.0000           -0.4526530             -12.3173
        67        2.0000           -0.4470515             -12.1649 (HOMO)
        68                         -0.3130728              -8.5191 (LUMO)
        69                         -0.3031455              -8.2490
        70                         -0.2885875              -7.8529
        71                         -0.2585343              -7.0351
        72                         -0.2574406              -7.0053
        73                         -0.2012141              -5.4753
        74                         -0.1426117              -3.8807
        75                         -0.1419808              -3.8635
        76                         -0.1292285              -3.5165
        77                         -0.1271802              -3.4607
        78                         -0.1250391              -3.4025
       ...                                ...                  ...
       134                          0.7296899              19.8559
      -------------------------------------------------------------
                  HL-Gap            0.1339787 Eh            3.6457 eV

Wiberg/Mayer (AO) data.
largest (>0.10) Wiberg bond orders for each atom

     #   Z sym  total        # sym  WBO       # sym  WBO       # sym  WBO
 ---------------------------------------------------------------------------
     1   6 C    3.861 --    27 H    0.985    28 H    0.980    26 H    0.979
                             2 O    0.885
     2   8 O    2.218 --     3 C    1.144     1 C    0.885     4 O    0.141
     3   6 C    3.850 --     4 O    1.683     2 O    1.144     5 C    0.938
     4   8 O    1.952 --     3 C    1.683     2 O    0.141
     5   6 C    3.868 --     6 N    1.028     3 C    0.938    25 O    0.905
                            23 C    0.832
     6   7 N    3.024 --     7 C    1.708     5 C    1.028
     7   6 C    3.929 --     6 N    1.708    20 N    1.111     8 C    0.979
     8   6 C    3.934 --     9 C    0.990     7 C    0.979    10 C    0.975
                            11 N    0.924
     9   6 C    3.988 --     8 C    0.990    30 H    0.985    29 H    0.983
                            31 H    0.983
    10   6 C    3.987 --    34 H    0.985    33 H    0.985    32 H    0.977
                             8 C    0.975
    11   7 N    3.330 --    12 C    1.239     8 C    0.924    35 H    0.893
                            13 O    0.172
    12   6 C    3.914 --    13 O    1.597    11 N    1.239    14 C    0.993
    13   8 O    1.911 --    12 C    1.597    11 N    0.172
    14   6 C    3.872 --    15 N    1.622    19 O    1.046    12 C    0.993
    15   7 N    3.001 --    14 C    1.622    16 N    1.200
    16   7 N    2.982 --    17 C    1.610    15 N    1.200
    17   6 C    3.868 --    16 N    1.610    19 O    1.072    18 C    1.032
    18   6 C    3.986 --    17 C    1.032    37 H    0.981    36 H    0.967
                            38 H    0.959
    19   8 O    2.316 --    17 C    1.072    14 C    1.046
    20   7 N    3.417 --    21 C    1.140     7 C    1.111    39 H    0.883
                            22 O    0.125
    21   6 C    3.892 --    22 O    1.658    20 N    1.140    23 C    0.979
    22   8 O    1.936 --    21 C    1.658    20 N    0.125
    23   6 C    3.860 --    24 C    1.002    21 C    0.979    25 O    0.896
                             5 C    0.832
    24   6 C    3.984 --    23 C    1.002    42 H    0.980    40 H    0.979
                            41 H    0.975
    25   8 O    1.967 --     5 C    0.905    23 C    0.896
    26   1 H    1.004 --     1 C    0.979
    27   1 H    1.009 --     1 C    0.985
    28   1 H    1.005 --     1 C    0.980
    29   1 H    1.008 --     9 C    0.983
    30   1 H    1.004 --     9 C    0.985
    31   1 H    1.005 --     9 C    0.983
    32   1 H    1.011 --    10 C    0.977
    33   1 H    1.001 --    10 C    0.985
    34   1 H    1.001 --    10 C    0.985
    35   1 H    0.937 --    11 N    0.893
    36   1 H    0.996 --    18 C    0.967
    37   1 H    0.998 --    18 C    0.981
    38   1 H    0.996 --    18 C    0.959
    39   1 H    0.930 --    20 N    0.883
    40   1 H    1.010 --    24 C    0.979
    41   1 H    1.002 --    24 C    0.975
    42   1 H    1.000 --    24 C    0.980
 ---------------------------------------------------------------------------

           -------------------------------------------------
          | TOTAL ENERGY              -83.006595675482 Eh   |
          | GRADIENT NORM               0.000420310117 Eh/α |
          | HOMO-LUMO GAP               3.645746709091 eV   |
           -------------------------------------------------

 * finished run on 2023/06/21 at 17:57:11.771
