   * xtb version 6.5.1 (579679a) compiled by 'ehlert@majestix' on 2022-07-11
          program call               : /lustre/hpc/kemi/ree/PhD/git/ReactivityQM/dep/xtb-6.5.1/bin/xtb --gfn 1 /lustre/hpc/kemi/ree/PhD/git/ReactivityQM/calculations/R02deprot/reac01prodE07/conf01/R02deprot_reac01prodE07_conf01_gfn1.xyz --opt --vfukui --chrg -2 --uhf 0 --alpb DMSO

   ID    Z sym.   atoms
    1    6 C      1, 3, 5, 7-10, 12, 14, 15, 18, 19, 22, 24
    2    8 O      2, 4, 13, 20, 23, 25
    3    7 N      6, 11, 16, 17, 21
    4    1 H      26-42

      * Solvation model:               ALPB
        Solvent                        DMSO
        Solvent mass                       7.8130E+01 g/mol
          :  Hamiltonian                  GFN1-xTB          :
 * total energy  :   -83.5662548 Eh     change       -0.1790568E-11 Eh
 * total energy  :   -83.5805361 Eh     change       -0.1428130E-01 Eh
 * total energy  :   -83.5868310 Eh     change       -0.6294893E-02 Eh
 * total energy  :   -83.5883070 Eh     change       -0.1476053E-02 Eh
 * total energy  :   -83.5892619 Eh     change       -0.9549070E-03 Eh
 * total energy  :   -83.5896275 Eh     change       -0.3655499E-03 Eh
 * total energy  :   -83.5898615 Eh     change       -0.2340063E-03 Eh
 * total energy  :   -83.5900092 Eh     change       -0.1477446E-03 Eh
 * total energy  :   -83.5901523 Eh     change       -0.1430601E-03 Eh
 * total energy  :   -83.5903183 Eh     change       -0.1659744E-03 Eh
 * total energy  :   -83.5991335 Eh     change       -0.1666915E-04 Eh
 * total energy  :   -83.5991509 Eh     change       -0.1738275E-04 Eh
 * total energy  :   -83.5991577 Eh     change       -0.6742451E-05 Eh
 * total energy  :   -83.5991718 Eh     change       -0.1413852E-04 Eh
 * total energy  :   -83.5991796 Eh     change       -0.7806851E-05 Eh
 * total energy  :   -83.5991894 Eh     change       -0.9776136E-05 Eh
 * total energy  :   -83.5991948 Eh     change       -0.5423864E-05 Eh
 * total energy  :   -83.5992001 Eh     change       -0.5302690E-05 Eh
 * total energy  :   -83.5992039 Eh     change       -0.3764849E-05 Eh
   *** GEOMETRY OPTIMIZATION CONVERGED AFTER 76 ITERATIONS ***

 final structure:
================
42
 xtb: 6.5.1 (579679a)
C           -4.49169646379627        2.78226340539350        3.32834274852643
O           -3.80509334102028        1.53200723106642        3.30660578547869
C           -3.00441340973665        1.31919506906295        2.22882215864075
O           -2.89174817404427        2.16533415745153        1.36334381397767
C           -2.33365124613039        0.00555617651620        2.22487918602000
N           -1.52148927258335       -0.18299416285028        1.14150797182384
C           -0.90865095292374       -1.34631097893758        1.03135894940008
C           -0.01352372159123       -1.52166116299635       -0.19149063115642
C            0.46445653538264       -2.97186473597320       -0.30741020935043
C           -0.80910064997934       -1.11614915547921       -1.44680638686440
N            1.16300446611794       -0.63737141097354        0.00267473399373
C            2.03238585426096       -0.55153852086366       -1.15480507054339
O            3.12170538761036       -1.44563737853615       -1.15770822856695
C            4.22015145619872       -1.07220054870872       -0.33803623770046
C            2.03852477570209        0.61026159767785       -1.88400590053051
N            1.06705895903784        1.55495122952448       -1.86694323636335
N            1.42111188469993        2.48058964795739       -2.82909648508732
C            2.51924248718091        2.09161589157013       -3.37020134956458
C            3.28110300827324        2.76368310182888       -4.45755435429988
O            2.99658836015946        0.91307377085792       -2.84277007100302
N           -0.98926765713425       -2.36472965578219        1.88402330745592
C           -1.75973488515117       -2.26128864582240        2.99761276444507
O           -1.85413351905998       -3.18986572293726        3.82494421132560
C           -2.47866817230353       -0.98916545776756        3.16860582302269
O           -3.25640716726639       -0.91165603777179        4.28402375649942
H           -5.16166329958175        2.86251102844229        2.46791302082337
H           -5.06657192255885        2.81313059158329        4.25081322134002
H           -3.77790090861770        3.61029458024620        3.30468717415435
H            1.04304685374705       -3.24440241352257        0.57616831003542
H           -0.38937105588458       -3.64539482780163       -0.38441779832333
H            1.09275046431520       -3.09576823234443       -1.18949285410819
H           -0.20377241890272       -1.26420318940112       -2.34178565228514
H           -1.09062072413337       -0.06364430613996       -1.38240125543845
H           -1.71301422414649       -1.72033386942021       -1.52948322710289
H            0.79701769921032        0.30104773855828        0.19503980536453
H            4.68050702516876       -0.13729841406345       -0.68673675092748
H            4.96194654289081       -1.87274764906819       -0.39437856537322
H            3.91338401785990       -0.94354862964854        0.71008673738323
H            4.28449050793168        3.02988177068626       -4.12088792127267
H            3.38198179033387        2.10825410688416       -5.32428701701803
H            2.75708543708282        3.66921554329093       -4.75719624825080
H           -3.71705132661611       -0.06309053180578        4.35354497141198

          :  Hamiltonian                  GFN1-xTB          :
         :: total energy             -83.599203864058 Eh    ::
         :: gradient norm              0.000362190645 Eh/a0 ::
         :: HOMO-LUMO gap              0.229515498033 eV    ::
         :: SCC energy               -84.323652751979 Eh    ::
         :: -> Gsolv                  -0.276848696144 Eh    ::
         :: repulsion energy           0.750107628162 Eh    ::

    * Orbital Energies and Occupations

         #    Occupation            Energy/Eh            Energy/eV
      -------------------------------------------------------------
         1        2.0000           -0.8119424             -22.0941
       ...           ...                  ...                  ...
        56        2.0000           -0.4378485             -11.9145
        57        2.0000           -0.4160071             -11.3201
        58        2.0000           -0.4130904             -11.2408
        59        2.0000           -0.4086258             -11.1193
        60        2.0000           -0.4028240             -10.9614
        61        2.0000           -0.3896333             -10.6025
        62        2.0000           -0.3861505             -10.5077
        63        2.0000           -0.3790071             -10.3133
        64        2.0000           -0.3637215              -9.8974
        65        2.0000           -0.3587585              -9.7623
        66        2.0000           -0.3548649              -9.6564
        67        2.0000           -0.3540509              -9.6342
        68        1.9767           -0.2766264              -7.5274 (HOMO)
        69        0.0233           -0.2681919              -7.2979 (LUMO)
        70                         -0.2091324              -5.6908
        71                         -0.1793772              -4.8811
        72                         -0.1782616              -4.8507
        73                         -0.1344428              -3.6584
        74                         -0.1244392              -3.3862
        75                         -0.1127808              -3.0689
        76                         -0.1028497              -2.7987
        77                         -0.0916979              -2.4952
        78                         -0.0865029              -2.3539
        79                         -0.0821424              -2.2352
       ...                                ...                  ...
       134                          0.7409058              20.1611
      -------------------------------------------------------------
                  HL-Gap            0.0084345 Eh            0.2295 eV

Wiberg/Mayer (AO) data.
largest (>0.10) Wiberg bond orders for each atom

     #   Z sym  total        # sym  WBO       # sym  WBO       # sym  WBO
 ---------------------------------------------------------------------------
     1   6 C    3.884 --    27 H    0.987    26 H    0.981    28 H    0.981
                             2 O    0.907
     2   8 O    2.173 --     3 C    1.042     1 C    0.907     4 O    0.115
     3   6 C    3.817 --     4 O    1.636     5 C    1.043     2 O    1.042
     4   8 O    1.895 --     3 C    1.636     2 O    0.115
     5   6 C    3.960 --    24 C    1.457     6 N    1.213     3 C    1.043
     6   7 N    2.990 --     7 C    1.445     5 C    1.213
     7   6 C    3.949 --     6 N    1.445    21 N    1.371     8 C    0.974
     8   6 C    3.969 --     9 C    1.001    10 C    0.983     7 C    0.974
                            11 N    0.948
     9   6 C    3.997 --     8 C    1.001    30 H    0.988    31 H    0.985
                            29 H    0.985
    10   6 C    3.996 --    34 H    0.988    32 H    0.985     8 C    0.983
                            33 H    0.982
    11   7 N    3.012 --    12 C    0.964     8 C    0.948    35 H    0.944
    12   6 C    3.682 --    15 C    1.467    11 N    0.964    13 O    0.921
                            16 N    0.142
    13   8 O    1.997 --    14 C    0.949    12 C    0.921
    14   6 C    3.939 --    37 H    0.986    38 H    0.982    36 H    0.982
                            13 O    0.949
    15   6 C    3.865 --    12 C    1.467    16 N    1.289    20 O    0.961
    16   7 N    2.817 --    15 C    1.289    17 N    1.150    12 C    0.142
                            18 C    0.116
    17   7 N    2.987 --    18 C    1.675    16 N    1.150
    18   6 C    3.881 --    17 N    1.675    19 C    1.017    20 O    0.996
                            16 N    0.116
    19   6 C    3.996 --    18 C    1.017    41 H    0.987    40 H    0.976
                            39 H    0.976
    20   8 O    2.175 --    18 C    0.996    15 C    0.961
    21   7 N    2.974 --     7 C    1.371    22 C    1.242    23 O    0.125
    22   6 C    3.930 --    23 O    1.476    21 N    1.242    24 C    1.080
    23   8 O    1.761 --    22 C    1.476    21 N    0.125
    24   6 C    3.887 --     5 C    1.457    22 C    1.080    25 O    1.047
    25   8 O    2.032 --    24 C    1.047    42 H    0.828
    26   1 H    1.011 --     1 C    0.981
    27   1 H    1.013 --     1 C    0.987
    28   1 H    1.012 --     1 C    0.981
    29   1 H    1.026 --     9 C    0.985
    30   1 H    1.016 --     9 C    0.988
    31   1 H    1.017 --     9 C    0.985
    32   1 H    1.019 --    10 C    0.985
    33   1 H    1.033 --    10 C    0.982
    34   1 H    1.009 --    10 C    0.988
    35   1 H    1.002 --    11 N    0.944
    36   1 H    1.021 --    14 C    0.982
    37   1 H    1.022 --    14 C    0.986
    38   1 H    1.023 --    14 C    0.982
    39   1 H    1.007 --    19 C    0.976
    40   1 H    1.007 --    19 C    0.976
    41   1 H    1.008 --    19 C    0.987
    42   1 H    0.880 --    25 O    0.828
 ---------------------------------------------------------------------------

           -------------------------------------------------
          | TOTAL ENERGY              -83.599203864058 Eh   |
          | GRADIENT NORM               0.000362190645 Eh/α |
          | HOMO-LUMO GAP               0.229515498033 eV   |
           -------------------------------------------------

 * finished run on 2023/06/20 at 17:49:23.517
