   * xtb version 6.5.1 (579679a) compiled by 'ehlert@majestix' on 2022-07-11
          program call               : /lustre/hpc/kemi/ree/PhD/git/ReactivityQM/dep/xtb-6.5.1/bin/xtb --gfn 1 /lustre/hpc/kemi/ree/PhD/git/ReactivityQM/calculations/R02/reac01prodE02/conf04/R02_reac01prodE02_conf04_gfn1.xyz --opt --vfukui --chrg -1 --uhf 0 --alpb DMSO

   ID    Z sym.   atoms
    1    6 C      1, 3, 4, 6, 8-11, 13, 15, 18, 19, 22, 24
    2    8 O      2, 5, 14, 20, 23, 25
    3    7 N      7, 12, 16, 17, 21
    4    1 H      26-43

      * Solvation model:               ALPB
        Solvent                        DMSO
        Solvent mass                       7.8130E+01 g/mol
          :  Hamiltonian                  GFN1-xTB          :
 * total energy  :   -83.8467740 Eh     change       -0.1282245E-09 Eh
 * total energy  :   -83.8599696 Eh     change       -0.1319560E-01 Eh
 * total energy  :   -83.8650761 Eh     change       -0.5106444E-02 Eh
 * total energy  :   -83.8665660 Eh     change       -0.1489946E-02 Eh
 * total energy  :   -83.8675544 Eh     change       -0.9883416E-03 Eh
 * total energy  :   -83.8682879 Eh     change       -0.7335966E-03 Eh
 * total energy  :   -83.8688828 Eh     change       -0.5948332E-03 Eh
 * total energy  :   -83.8693798 Eh     change       -0.4970563E-03 Eh
 * total energy  :   -83.8697076 Eh     change       -0.3277844E-03 Eh
 * total energy  :   -83.8698983 Eh     change       -0.1907252E-03 Eh
 * total energy  :   -83.8719927 Eh     change       -0.3075096E-04 Eh
 * total energy  :   -83.8720165 Eh     change       -0.2380064E-04 Eh
 * total energy  :   -83.8720584 Eh     change       -0.4182631E-04 Eh
 * total energy  :   -83.8720824 Eh     change       -0.2402836E-04 Eh
 * total energy  :   -83.8720986 Eh     change       -0.1616054E-04 Eh
 * total energy  :   -83.8721147 Eh     change       -0.1614317E-04 Eh
 * total energy  :   -83.8721226 Eh     change       -0.7890214E-05 Eh
 * total energy  :   -83.8721311 Eh     change       -0.8528564E-05 Eh
 * total energy  :   -83.8721360 Eh     change       -0.4860778E-05 Eh
   *** GEOMETRY OPTIMIZATION CONVERGED AFTER 46 ITERATIONS ***

 final structure:
================
43
 xtb: 6.5.1 (579679a)
C           -4.12222349307164        2.60227821227326       -0.92727383624547
O           -4.53940742364883        1.55415915931096       -0.09329444286584
C           -4.01887134994109        0.19162671015480       -0.51666311588906
C           -5.02275039850672       -0.78182564287290        0.19576977228183
O           -3.92249147071785        0.03512388454699       -1.78805050736737
C           -2.63566060899051        0.04158923725865        0.26828440483272
N           -1.59258217469850       -0.42301806988844       -0.49489863341938
C           -0.43672796019414       -0.62248166783345        0.03241528975652
C            0.70163081778445       -1.19303753679703       -0.79171924832340
C            0.86115743697636       -2.67908035189859       -0.45664022673526
C            0.43543267273170       -0.99423259455490       -2.28590063652788
N            1.95010025934876       -0.52294351173153       -0.40848741642833
C            2.08774034349022        0.81822144165761       -0.45062810390334
O            1.19317807672230        1.60444228230858       -0.71234738277819
C            3.46194751179062        1.26952465754260       -0.11091503925869
N            3.89299863767083        2.48932010919620       -0.02243031537118
N            5.21094452997434        2.41706665102098        0.31918829261785
C            5.50254888767737        1.15797728632971        0.41695771505556
C            6.80621120731936        0.55181169453310        0.76266781907940
O            4.44042016008311        0.37762132352318        0.15766156998790
N           -0.18178165208616       -0.40056987198782        1.35562853519363
C           -1.14669189393338        0.06337551964235        2.22159787978329
O           -0.90640329315308        0.25862003419719        3.41593070347330
C           -2.43275786458632        0.28107802259878        1.59927599849977
O           -3.40881724128136        0.72472114789464        2.44395178420165
H           -4.26106756072673        2.35998283570623       -1.99361670257938
H           -3.06043803136305        2.86187172717682       -0.77121484458225
H           -4.72751400658903        3.48469213610511       -0.69345006190399
H           -4.65379973373977       -1.80081189941342        0.09604818557879
H           -5.14429923448904       -0.53593653873491        1.24778071177481
H           -5.98412969657394       -0.69969844410223       -0.30942629500849
H            1.05707345499598       -2.80552758678587        0.60650632101904
H           -0.05004922573245       -3.21686390026587       -0.71503015391126
H            1.69085648388081       -3.10160610307262       -1.01955089087551
H            1.24845581379368       -1.42489281427907       -2.86593483960293
H           -0.49953052090763       -1.48691193092726       -2.55162784217257
H            0.35308327577910        0.06759979519642       -2.51621652923867
H            2.76248884497512       -1.09219182131095       -0.25629536134232
H            7.13653980492335       -0.10301295611692       -0.04324981145445
H            7.54401231716564        1.33371981697345        0.92464592718863
H            6.70797763650731       -0.05133674939334        1.66508754870835
H            0.73049273404389       -0.59556611439767        1.73199111441257
H           -3.02729407269663        0.79532142121785        3.33347066433576

          :  Hamiltonian                  GFN1-xTB          :
         :: total energy             -83.872135983020 Eh    ::
         :: gradient norm              0.000893095945 Eh/a0 ::
         :: HOMO-LUMO gap              0.913493999950 eV    ::
         :: SCC energy               -84.637556698716 Eh    ::
         :: -> Gsolv                  -0.155072504557 Eh    ::
         :: repulsion energy           0.792222989349 Eh    ::

    * Orbital Energies and Occupations

         #    Occupation            Energy/Eh            Energy/eV
      -------------------------------------------------------------
         1        2.0000           -0.8622488             -23.4630
       ...           ...                  ...                  ...
        56        2.0000           -0.4621870             -12.5767
        57        2.0000           -0.4591104             -12.4930
        58        2.0000           -0.4564654             -12.4211
        59        2.0000           -0.4488915             -12.2150
        60        2.0000           -0.4467102             -12.1556
        61        2.0000           -0.4451028             -12.1119
        62        2.0000           -0.4380029             -11.9187
        63        2.0000           -0.4330700             -11.7844
        64        2.0000           -0.4159682             -11.3191
        65        2.0000           -0.4012948             -10.9198
        66        2.0000           -0.3918606             -10.6631
        67        2.0000           -0.3595524              -9.7839
        68        2.0000           -0.3400805              -9.2541 (HOMO)
        69                         -0.3065102              -8.3406 (LUMO)
        70                         -0.2708014              -7.3689
        71                         -0.2537359              -6.9045
        72                         -0.2453603              -6.6766
        73                         -0.1941726              -5.2837
        74                         -0.1400244              -3.8103
        75                         -0.1395866              -3.7983
        76                         -0.1272386              -3.4623
        77                         -0.1158800              -3.1533
        78                         -0.1020560              -2.7771
        79                         -0.0977335              -2.6595
       ...                                ...                  ...
       136                          0.7317128              19.9109
      -------------------------------------------------------------
                  HL-Gap            0.0335703 Eh            0.9135 eV

Wiberg/Mayer (AO) data.
largest (>0.10) Wiberg bond orders for each atom

     #   Z sym  total        # sym  WBO       # sym  WBO       # sym  WBO
 ---------------------------------------------------------------------------
     1   6 C    3.938 --    28 H    0.984     2 O    0.980    27 H    0.980
                            26 H    0.974
     2   8 O    1.942 --     1 C    0.980     3 C    0.778
     3   6 C    3.897 --     5 O    1.269     4 C    0.925     6 C    0.871
                             2 O    0.778
     4   6 C    3.991 --    29 H    0.989    30 H    0.988    31 H    0.986
                             3 C    0.925
     5   8 O    1.540 --     3 C    1.269
     6   6 C    3.914 --    24 C    1.530     7 N    1.193     3 C    0.871
     7   7 N    3.032 --     8 C    1.597     6 C    1.193
     8   6 C    3.937 --     7 N    1.597    21 N    1.161     9 C    0.973
     9   6 C    3.933 --    11 C    0.991    10 C    0.986     8 C    0.973
                            12 N    0.919
    10   6 C    3.991 --     9 C    0.986    32 H    0.984    33 H    0.984
                            34 H    0.983
    11   6 C    3.990 --     9 C    0.991    35 H    0.987    36 H    0.983
                            37 H    0.982
    12   7 N    3.348 --    13 C    1.257     9 C    0.919    38 H    0.894
                            14 O    0.178
    13   6 C    3.918 --    14 O    1.588    12 N    1.257    15 C    0.990
    14   8 O    1.890 --    13 C    1.588    12 N    0.178
    15   6 C    3.871 --    16 N    1.624    20 O    1.048    13 C    0.990
    16   7 N    2.998 --    15 C    1.624    17 N    1.196
    17   7 N    2.981 --    18 C    1.613    16 N    1.196
    18   6 C    3.869 --    17 N    1.613    20 O    1.072    19 C    1.032
    19   6 C    3.987 --    18 C    1.032    40 H    0.983    39 H    0.963
                            41 H    0.963
    20   8 O    2.316 --    18 C    1.072    15 C    1.048
    21   7 N    3.453 --     8 C    1.161    22 C    1.122    42 H    0.893
                            23 O    0.122
    22   6 C    3.907 --    23 O    1.518    21 N    1.122    24 C    1.120
    23   8 O    1.845 --    22 C    1.518    21 N    0.122
    24   6 C    3.911 --     6 C    1.530    22 C    1.120    25 O    1.038
    25   8 O    2.028 --    24 C    1.038    43 H    0.832
    26   1 H    1.036 --     1 C    0.974
    27   1 H    1.018 --     1 C    0.980
    28   1 H    1.024 --     1 C    0.984
    29   1 H    1.016 --     4 C    0.989
    30   1 H    1.019 --     4 C    0.988
    31   1 H    1.020 --     4 C    0.986
    32   1 H    1.000 --    10 C    0.984
    33   1 H    1.001 --    10 C    0.984
    34   1 H    0.998 --    10 C    0.983
    35   1 H    1.003 --    11 C    0.987
    36   1 H    1.013 --    11 C    0.983
    37   1 H    1.011 --    11 C    0.982
    38   1 H    0.935 --    12 N    0.894
    39   1 H    0.997 --    19 C    0.963
    40   1 H    0.999 --    19 C    0.983
    41   1 H    0.997 --    19 C    0.963
    42   1 H    0.941 --    21 N    0.893
    43   1 H    0.872 --    25 O    0.832
 ---------------------------------------------------------------------------

           -------------------------------------------------
          | TOTAL ENERGY              -83.872135983020 Eh   |
          | GRADIENT NORM               0.000893095945 Eh/α |
          | HOMO-LUMO GAP               0.913493999950 eV   |
           -------------------------------------------------

 * finished run on 2023/06/20 at 14:54:27.474
