   * xtb version 6.5.1 (579679a) compiled by 'ehlert@majestix' on 2022-07-11
          program call               : /lustre/hpc/kemi/ree/PhD/git/ReactivityQM/dep/xtb-6.5.1/bin/xtb --gfn 1 /lustre/hpc/kemi/ree/PhD/git/ReactivityQM/calculations/R02deprot/reac01prodE11/conf15/R02deprot_reac01prodE11_conf15_gfn1.xyz --opt --vfukui --chrg -2 --uhf 0 --alpb DMSO

   ID    Z sym.   atoms
    1    6 C      1, 3, 5, 7-10, 12, 14, 17-19, 22, 24
    2    8 O      2, 4, 13, 20, 23, 25
    3    7 N      6, 11, 15, 16, 21
    4    1 H      26-42

      * Solvation model:               ALPB
        Solvent                        DMSO
        Solvent mass                       7.8130E+01 g/mol
          :  Hamiltonian                  GFN1-xTB          :
 * total energy  :   -83.6410794 Eh     change       -0.4689582E-11 Eh
 * total energy  :   -83.6513171 Eh     change       -0.1023770E-01 Eh
 * total energy  :   -83.6541961 Eh     change       -0.2879008E-02 Eh
 * total energy  :   -83.6545633 Eh     change       -0.3672819E-03 Eh
 * total energy  :   -83.6549046 Eh     change       -0.3412151E-03 Eh
 * total energy  :   -83.6550542 Eh     change       -0.1496326E-03 Eh
 * total energy  :   -83.6552023 Eh     change       -0.1480954E-03 Eh
 * total energy  :   -83.6553054 Eh     change       -0.1030998E-03 Eh
 * total energy  :   -83.6553663 Eh     change       -0.6093769E-04 Eh
 * total energy  :   -83.6554039 Eh     change       -0.3761387E-04 Eh
 * total energy  :   -83.6554305 Eh     change       -0.2660667E-04 Eh
 * total energy  :   -83.6554515 Eh     change       -0.2095634E-04 Eh
 * total energy  :   -83.6554622 Eh     change       -0.1071902E-04 Eh
 * total energy  :   -83.6554802 Eh     change       -0.1798710E-04 Eh
 * total energy  :   -83.6554877 Eh     change       -0.7544404E-05 Eh
 * total energy  :   -83.6554967 Eh     change       -0.8942263E-05 Eh
 * total energy  :   -83.6555012 Eh     change       -0.4529653E-05 Eh
   *** GEOMETRY OPTIMIZATION CONVERGED AFTER 17 ITERATIONS ***

 final structure:
================
42
 xtb: 6.5.1 (579679a)
C            5.10163499614286        2.36795486882963       -1.69391123895385
O            4.13780437831544        1.46975136775193       -1.15415048530276
C            4.24601863109372        1.20500814385145        0.15702681336558
O            5.12898059099587        1.71118011677515        0.83908332215760
C            3.22926250192648        0.27877401406447        0.66927027216001
N            2.31527025764368       -0.20784860183864       -0.22198723081794
C            1.40515128204558       -1.03487922484266        0.25208150051217
C            0.38699723449135       -1.60504188433122       -0.73608885561790
C            0.67996459970406       -1.09987989444688       -2.15630953656383
C            0.48273790867557       -3.13847445997179       -0.67571102506040
N           -0.93286575499221       -1.16588353524220       -0.27881155429051
C           -2.08678312747154       -1.41347021152298       -1.01986463697781
O           -2.13392495050650       -2.29944422860753       -1.90315935594938
C           -3.19992888612053       -0.62108164131095       -0.64265758532346
N           -4.42332093940231       -0.67514358731350       -1.14470458166704
N           -5.20797168688174        0.19701917113241       -0.57824197195225
C           -4.41274428304975        0.91854018807559        0.42865560729701
C           -4.38622641232611        2.41961030496434        0.09286221112633
C           -5.01605100141505        0.68865951454532        1.82620169077191
O           -3.10396273814923        0.37048331524827        0.36048722356114
N            1.28117327346558       -1.44795888845269        1.51080776945843
C            2.15327682470124       -1.02067917742985        2.46284866092771
O            2.07715978066467       -1.39433083387697        3.64785223380424
C            3.19425379804778       -0.09009950578059        1.99691800953504
O            4.07992830793332        0.35628164357626        2.92020235395048
H            6.11129275788715        1.97315144543706       -1.55411775864984
H            4.88395888564526        2.46776423551476       -2.75589565102330
H            5.03104270854196        3.34235645069530       -1.20336349810706
H           -0.01866723240079       -1.53419755642973       -2.87034256778351
H            1.69434603399844       -1.37884448932168       -2.44019958442742
H            0.59858111310915       -0.01361173772616       -2.19107660606847
H            1.49263558484285       -3.45130108127927       -0.94110926602077
H            0.26567814719881       -3.47676974725425        0.33855764544000
H           -0.22011903348895       -3.60202146050882       -1.36635231181051
H           -0.92742781098460       -0.27911858281174        0.20875271194345
H           -3.81160519966880        2.96717148088448        0.83787925941392
H           -5.40355317576207        2.80487685586589        0.07002439115726
H           -3.93067685739934        2.56366038760641       -0.88558429839567
H           -4.42657000869434        1.20294522496447        2.58339218201538
H           -5.02538570242266       -0.37833624080367        2.04470628664881
H           -6.03707402471488        1.06382480224950        1.84893018354611
H            4.72770922877863        0.95940003906236        2.50448827197747

          :  Hamiltonian                  GFN1-xTB          :
         :: total energy             -83.655501220757 Eh    ::
         :: gradient norm              0.000859495123 Eh/a0 ::
         :: HOMO-LUMO gap              0.912625337561 eV    ::
         :: SCC energy               -84.384776436695 Eh    ::
         :: -> Gsolv                  -0.263529343785 Eh    ::
         :: repulsion energy           0.754491025647 Eh    ::

    * Orbital Energies and Occupations

         #    Occupation            Energy/Eh            Energy/eV
      -------------------------------------------------------------
         1        2.0000           -0.8128424             -22.1186
       ...           ...                  ...                  ...
        56        2.0000           -0.4436585             -12.0726
        57        2.0000           -0.4402831             -11.9807
        58        2.0000           -0.4249552             -11.5636
        59        2.0000           -0.4194282             -11.4132
        60        2.0000           -0.4077188             -11.0946
        61        2.0000           -0.4040323             -10.9943
        62        2.0000           -0.3926585             -10.6848
        63        2.0000           -0.3883273             -10.5669
        64        2.0000           -0.3792472             -10.3198
        65        2.0000           -0.3613839              -9.8338
        66        2.0000           -0.3584503              -9.7539
        67        2.0000           -0.3579876              -9.7413
        68        2.0000           -0.3060777              -8.3288 (HOMO)
        69                         -0.2725393              -7.4162 (LUMO)
        70                         -0.2278544              -6.2002
        71                         -0.2146926              -5.8421
        72                         -0.1815846              -4.9412
        73                         -0.1245074              -3.3880
        74                         -0.1163912              -3.1672
        75                         -0.1005769              -2.7368
        76                         -0.0955707              -2.6006
        77                         -0.0944786              -2.5709
        78                         -0.0897613              -2.4425
        79                         -0.0870911              -2.3699
       ...                                ...                  ...
       134                          0.7320706              19.9207
      -------------------------------------------------------------
                  HL-Gap            0.0335384 Eh            0.9126 eV

Wiberg/Mayer (AO) data.
largest (>0.10) Wiberg bond orders for each atom

     #   Z sym  total        # sym  WBO       # sym  WBO       # sym  WBO
 ---------------------------------------------------------------------------
     1   6 C    3.887 --    27 H    0.987    26 H    0.980    28 H    0.980
                             2 O    0.912
     2   8 O    2.189 --     3 C    1.092     1 C    0.912     4 O    0.117
     3   6 C    3.833 --     4 O    1.583     2 O    1.092     5 C    1.054
     4   8 O    1.913 --     3 C    1.583     2 O    0.117
     5   6 C    3.963 --    24 C    1.453     6 N    1.207     3 C    1.054
     6   7 N    2.991 --     7 C    1.453     5 C    1.207
     7   6 C    3.953 --     6 N    1.453    21 N    1.373     8 C    0.968
     8   6 C    3.953 --     9 C    0.993    10 C    0.988     7 C    0.968
                            11 N    0.941
     9   6 C    3.995 --     8 C    0.993    30 H    0.986    31 H    0.986
                            29 H    0.984
    10   6 C    3.995 --    32 H    0.989     8 C    0.988    33 H    0.985
                            34 H    0.982
    11   7 N    3.218 --    12 C    1.105     8 C    0.941    35 H    0.918
                            13 O    0.108
    12   6 C    3.926 --    13 O    1.440    14 C    1.209    11 N    1.105
    13   8 O    1.776 --    12 C    1.440    11 N    0.108
    14   6 C    3.842 --    15 N    1.415    12 C    1.209    20 O    0.920
                            16 N    0.165
    15   7 N    3.023 --    16 N    1.449    14 C    1.415
    16   7 N    2.862 --    15 N    1.449    17 C    0.983    14 C    0.165
    17   6 C    3.900 --    16 N    0.983    18 C    0.978    19 C    0.977
                            20 O    0.925
    18   6 C    3.994 --    37 H    0.988    36 H    0.987    38 H    0.985
                            17 C    0.978
    19   6 C    3.994 --    41 H    0.988    39 H    0.987    40 H    0.986
                            17 C    0.977
    20   8 O    2.051 --    17 C    0.925    14 C    0.920
    21   7 N    2.976 --     7 C    1.373    22 C    1.239    23 O    0.126
    22   6 C    3.931 --    23 O    1.487    21 N    1.239    24 C    1.073
    23   8 O    1.775 --    22 C    1.487    21 N    0.126
    24   6 C    3.902 --     5 C    1.453    22 C    1.073    25 O    1.069
    25   8 O    2.046 --    24 C    1.069    42 H    0.809
    26   1 H    1.011 --     1 C    0.980
    27   1 H    1.014 --     1 C    0.987
    28   1 H    1.011 --     1 C    0.980
    29   1 H    1.019 --     9 C    0.984
    30   1 H    1.017 --     9 C    0.986
    31   1 H    1.016 --     9 C    0.986
    32   1 H    1.008 --    10 C    0.989
    33   1 H    1.023 --    10 C    0.985
    34   1 H    1.025 --    10 C    0.982
    35   1 H    0.973 --    11 N    0.918
    36   1 H    1.008 --    18 C    0.987
    37   1 H    1.012 --    18 C    0.988
    38   1 H    1.016 --    18 C    0.985
    39   1 H    1.009 --    19 C    0.987
    40   1 H    1.016 --    19 C    0.986
    41   1 H    1.011 --    19 C    0.988
    42   1 H    0.878 --    25 O    0.809
 ---------------------------------------------------------------------------

           -------------------------------------------------
          | TOTAL ENERGY              -83.655501220757 Eh   |
          | GRADIENT NORM               0.000859495123 Eh/α |
          | HOMO-LUMO GAP               0.912625337561 eV   |
           -------------------------------------------------

 * finished run on 2023/06/20 at 17:55:19.685
