   * xtb version 6.5.1 (579679a) compiled by 'ehlert@majestix' on 2022-07-11
          program call               : /lustre/hpc/kemi/ree/PhD/git/ReactivityQM/dep/xtb-6.5.1/bin/xtb --gfn 1 /lustre/hpc/kemi/ree/PhD/git/ReactivityQM/calculations/RaltegravirCLI/reac02prodE09/conf20/RaltegravirCLI_reac02prodE09_conf20_gfn1.xyz --opt --vfukui --chrg -1 --uhf 0 --alpb DMSO

   ID    Z sym.   atoms
    1    6 C      1, 3-6, 9, 10, 13-18, 20-22, 24
    2    7 N      2, 7, 8, 12
    3    8 O      11, 23, 25
    4    9 F      19
    5    1 H      26-47

      * Solvation model:               ALPB
        Solvent                        DMSO
        Solvent mass                       7.8130E+01 g/mol
          :  Hamiltonian                  GFN1-xTB          :
 * total energy  :   -80.1869317 Eh     change       -0.1945935E-08 Eh
 * total energy  :   -80.1968353 Eh     change       -0.9903646E-02 Eh
 * total energy  :   -80.2006434 Eh     change       -0.3808091E-02 Eh
 * total energy  :   -80.2019005 Eh     change       -0.1257132E-02 Eh
 * total energy  :   -80.2032752 Eh     change       -0.1374657E-02 Eh
 * total energy  :   -80.2046406 Eh     change       -0.1365428E-02 Eh
 * total energy  :   -80.2069796 Eh     change       -0.2338960E-02 Eh
 * total energy  :   -80.2102554 Eh     change       -0.3275828E-02 Eh
 * total energy  :   -80.2121488 Eh     change       -0.1893378E-02 Eh
 * total energy  :   -80.2149333 Eh     change       -0.2784540E-02 Eh
 * total energy  :   -80.2321669 Eh     change       -0.1619768E-04 Eh
 * total energy  :   -80.2321788 Eh     change       -0.1183859E-04 Eh
 * total energy  :   -80.2321878 Eh     change       -0.9066706E-05 Eh
 * total energy  :   -80.2321960 Eh     change       -0.8162126E-05 Eh
 * total energy  :   -80.2322030 Eh     change       -0.6994236E-05 Eh
 * total energy  :   -80.2322090 Eh     change       -0.5995611E-05 Eh
 * total energy  :   -80.2322149 Eh     change       -0.5937476E-05 Eh
 * total energy  :   -80.2322204 Eh     change       -0.5499727E-05 Eh
 * total energy  :   -80.2322225 Eh     change       -0.2056418E-05 Eh
   *** GEOMETRY OPTIMIZATION CONVERGED AFTER 94 ITERATIONS ***

 final structure:
================
47
 xtb: 6.5.1 (579679a)
C           -4.45059404885006       -2.33168715868303        0.51255256066297
N           -3.28088679212580       -1.45493803159595        0.43863456472819
C           -3.30938835980227       -0.19553340577583       -0.10695689446011
C           -4.58879796936787        0.42730899028576       -0.65296314782164
C           -5.39315507696708        1.00033721916755        0.52378297872759
C           -4.22267944623517        1.56845633145181       -1.61735946116076
N           -5.39452631179272       -0.56778122321481       -1.35300358100409
N           -2.25631110275488        0.55871339170524       -0.13914077504934
C           -1.05828186952743        0.14285921262216        0.36859141871876
C            0.05980975789878        1.14023226311703        0.23563476813648
O            0.03733289655998        2.02279979246470       -0.61316817812070
N            1.06244013672072        0.99014432810173        1.12008930691483
C            2.22263825683288        1.86710592017625        1.11804434431315
C            3.48808934114538        1.15316804959601        0.68987965526168
C            4.71129512705833        1.80612206995292        0.83379209584049
C            5.88928676347635        1.19221675856549        0.43814089904685
C            5.87862904265066       -0.09134617738832       -0.10948293067849
C            7.15655577764839       -0.76399513156771       -0.50946106034282
F            8.38050847975334       -2.12215173220700        1.91547205695116
C            4.65253055221470       -0.73930981877646       -0.24847367633523
C            3.47095256529823       -0.12528370892873        0.14270462722358
C           -0.95367646695445       -1.11218623976888        0.89069531127610
O            0.19097686388561       -1.63636442948108        1.38387116209363
C           -2.10487692314229       -1.99152605120934        0.93187012760360
O           -2.03357923671803       -3.13140155219039        1.39092404920030
H           -4.25134124830282       -3.09951600412556        1.25999885476576
H           -5.32952778045186       -1.76325423741316        0.79716006139537
H           -4.62283993964778       -2.79802977348977       -0.45611551125463
H           -4.78083354388848        1.70883217269175        1.08108222439237
H           -6.27367175907146        1.51752444885347        0.14592375542346
H           -5.71891762076444        0.21180847317312        1.19967161491008
H           -5.13410077800719        1.98278177272229       -2.04402109105394
H           -3.68503179205356        2.35595001008228       -1.09017367942279
H           -3.59399037295206        1.19186627079470       -2.42332030462904
H           -4.98729965677682       -0.76187878184983       -2.25875130020722
H           -6.32012143675797       -0.19599418982003       -1.50934664831802
H            1.01728099101897        0.27641098962926        1.82747636860918
H            2.01205159834682        2.69757373827123        0.43339772664385
H            2.34965275975210        2.28374723026274        2.12334590427543
H            4.73969371313502        2.80604214782503        1.25366551174979
H            6.82865801464766        1.72404649864218        0.55262709441389
H            6.97765863180240       -1.51877534986797       -1.27544544341326
H            7.60274767221568       -1.26216810266519        0.36756984003876
H            7.87709143104222       -0.03811022552368       -0.88728457687332
H            4.61359361695786       -1.73698885736040       -0.67453128239275
H            2.52898045843486       -0.64964022351881        0.02125400880288
H           -0.00402491572933       -2.53818667374337        1.70169665033571

          :  Hamiltonian                  GFN1-xTB          :
         :: total energy             -80.232222489471 Eh    ::
         :: gradient norm              0.000188365054 Eh/a0 ::
         :: HOMO-LUMO gap              0.694436442169 eV    ::
         :: SCC energy               -81.126548625984 Eh    ::
         :: -> Gsolv                  -0.160063367638 Eh    ::
         :: repulsion energy           0.923576727387 Eh    ::

    * Orbital Energies and Occupations

         #    Occupation            Energy/Eh            Energy/eV
      -------------------------------------------------------------
         1        2.0000           -0.8235201             -22.4091
       ...           ...                  ...                  ...
        56        2.0000           -0.4628510             -12.5948
        57        2.0000           -0.4570571             -12.4372
        58        2.0000           -0.4505545             -12.2602
        59        2.0000           -0.4453761             -12.1193
        60        2.0000           -0.4315809             -11.7439
        61        2.0000           -0.4304202             -11.7123
        62        2.0000           -0.4243661             -11.5476
        63        2.0000           -0.4178972             -11.3716
        64        2.0000           -0.4120179             -11.2116
        65        2.0000           -0.4074367             -11.0869
        66        2.0000           -0.3318860              -9.0311
        67        2.0000           -0.3318831              -9.0310
        68        2.0000           -0.3313291              -9.0159 (HOMO)
        69        0.0000           -0.3058090              -8.3215 (LUMO)
        70                         -0.2712363              -7.3807
        71                         -0.2461583              -6.6983
        72                         -0.2420709              -6.5871
        73                         -0.2244159              -6.1067
        74                         -0.1489889              -4.0542
        75                         -0.1311226              -3.5680
        76                         -0.1232313              -3.3533
        77                         -0.1215055              -3.3063
        78                         -0.1159151              -3.1542
        79                         -0.1142065              -3.1077
       ...                                ...                  ...
       144                          0.7174944              19.5240
      -------------------------------------------------------------
                  HL-Gap            0.0255201 Eh            0.6944 eV

Wiberg/Mayer (AO) data.
largest (>0.10) Wiberg bond orders for each atom

     #   Z sym  total        # sym  WBO       # sym  WBO       # sym  WBO
 ---------------------------------------------------------------------------
     1   6 C    3.923 --    27 H    0.978    26 H    0.976    28 H    0.976
                             2 N    0.929
     2   7 N    3.514 --     3 C    1.173    24 C    1.134     1 C    0.929
                            25 O    0.132
     3   6 C    3.923 --     8 N    1.562     2 N    1.173     4 C    0.976
     4   6 C    3.966 --     6 C    0.989     7 N    0.985     5 C    0.981
                             3 C    0.976
     5   6 C    3.994 --    29 H    0.985    30 H    0.983     4 C    0.981
                            31 H    0.980
     6   6 C    3.995 --     4 C    0.989    32 H    0.986    34 H    0.985
                            33 H    0.983
     7   7 N    2.977 --     4 C    0.985    35 H    0.941    36 H    0.939
     8   7 N    3.029 --     3 C    1.562     9 C    1.200
     9   6 C    3.964 --    22 C    1.512     8 N    1.200    10 C    0.981
    10   6 C    3.908 --    11 O    1.576    12 N    1.272     9 C    0.981
    11   8 O    1.873 --    10 C    1.576    12 N    0.174
    12   7 N    3.361 --    10 C    1.272    13 C    0.947    37 H    0.896
                            11 O    0.174
    13   6 C    3.944 --    14 C    0.994    39 H    0.969    38 H    0.963
                            12 N    0.947
    14   6 C    3.985 --    21 C    1.419    15 C    1.406    13 C    0.994
                            17 C    0.105
    15   6 C    3.995 --    16 C    1.458    14 C    1.406    40 H    0.974
                            20 C    0.108
    16   6 C    3.995 --    15 C    1.458    17 C    1.399    41 H    0.973
                            21 C    0.107
    17   6 C    3.987 --    20 C    1.410    16 C    1.399    18 C    1.032
                            14 C    0.105
    18   6 C    3.988 --    17 C    1.032    42 H    0.985    44 H    0.983
                            43 H    0.926
    19   9 F    0.101
    20   6 C    3.995 --    21 C    1.446    17 C    1.410    45 H    0.973
                            15 C    0.108
    21   6 C    3.995 --    20 C    1.446    14 C    1.419    46 H    0.971
                            16 C    0.107
    22   6 C    3.917 --     9 C    1.512    24 C    1.096    23 O    1.065
    23   8 O    2.058 --    22 C    1.065    47 H    0.806
    24   6 C    3.917 --    25 O    1.534     2 N    1.134    22 C    1.096
    25   8 O    1.884 --    24 C    1.534     2 N    0.132
    26   1 H    1.010 --     1 C    0.976
    27   1 H    1.022 --     1 C    0.978
    28   1 H    1.018 --     1 C    0.976
    29   1 H    1.004 --     5 C    0.985
    30   1 H    1.000 --     5 C    0.983
    31   1 H    1.004 --     5 C    0.980
    32   1 H    1.004 --     6 C    0.986
    33   1 H    1.015 --     6 C    0.983
    34   1 H    1.007 --     6 C    0.985
    35   1 H    0.957 --     7 N    0.941
    36   1 H    0.954 --     7 N    0.939
    37   1 H    0.948 --    12 N    0.896
    38   1 H    1.015 --    13 C    0.963
    39   1 H    1.007 --    13 C    0.969
    40   1 H    1.001 --    15 C    0.974
    41   1 H    1.003 --    16 C    0.973
    42   1 H    1.006 --    18 C    0.985
    43   1 H    1.038 --    18 C    0.926
    44   1 H    1.006 --    18 C    0.983
    45   1 H    1.003 --    20 C    0.973
    46   1 H    1.011 --    21 C    0.971
    47   1 H    0.849 --    23 O    0.806
 ---------------------------------------------------------------------------

           -------------------------------------------------
          | TOTAL ENERGY              -80.232222489471 Eh   |
          | GRADIENT NORM               0.000188365054 Eh/α |
          | HOMO-LUMO GAP               0.694436442169 eV   |
           -------------------------------------------------

 * finished run on 2023/06/20 at 15:09:45.835
