   * xtb version 6.5.1 (579679a) compiled by 'ehlert@majestix' on 2022-07-11
          program call               : /lustre/hpc/kemi/ree/PhD/git/ReactivityQM/dep/xtb-6.5.1/bin/xtb --gfn 1 /lustre/hpc/kemi/ree/PhD/git/ReactivityQM/calculations/RaltegravirCLI/reac02prodN09/conf03/RaltegravirCLI_reac02prodN09_conf03_gfn1.xyz --opt --vfukui --chrg 1 --uhf 0 --alpb DMSO

   ID    Z sym.   atoms
    1    6 C      1-4, 6-9, 11, 13, 15-18, 21, 22, 24
    2    9 F      5
    3    7 N      10, 14, 19, 20
    4    8 O      12, 23, 25
    5    1 H      26-47

      * Solvation model:               ALPB
        Solvent                        DMSO
        Solvent mass                       7.8130E+01 g/mol
          :  Hamiltonian                  GFN1-xTB          :
 * total energy  :   -79.4733127 Eh     change       -0.1119389E-09 Eh
 * total energy  :   -79.4823169 Eh     change       -0.9004294E-02 Eh
 * total energy  :   -79.4848758 Eh     change       -0.2558887E-02 Eh
 * total energy  :   -79.4854014 Eh     change       -0.5256124E-03 Eh
 * total energy  :   -79.4859011 Eh     change       -0.4996969E-03 Eh
 * total energy  :   -79.4862624 Eh     change       -0.3612289E-03 Eh
 * total energy  :   -79.4865724 Eh     change       -0.3100579E-03 Eh
 * total energy  :   -79.4868565 Eh     change       -0.2840634E-03 Eh
 * total energy  :   -79.4870609 Eh     change       -0.2044245E-03 Eh
 * total energy  :   -79.4871985 Eh     change       -0.1376048E-03 Eh
 * total energy  :   -79.5224935 Eh     change       -0.1266765E-04 Eh
 * total energy  :   -79.5225048 Eh     change       -0.1124970E-04 Eh
 * total energy  :   -79.5225145 Eh     change       -0.9748221E-05 Eh
 * total energy  :   -79.5225230 Eh     change       -0.8436224E-05 Eh
 * total energy  :   -79.5225303 Eh     change       -0.7386118E-05 Eh
 * total energy  :   -79.5225369 Eh     change       -0.6585251E-05 Eh
 * total energy  :   -79.5225431 Eh     change       -0.6146232E-05 Eh
 * total energy  :   -79.5225491 Eh     change       -0.6042410E-05 Eh
 * total energy  :   -79.5225533 Eh     change       -0.4190125E-05 Eh
   *** GEOMETRY OPTIMIZATION CONVERGED AFTER 122 ITERATIONS ***

 final structure:
================
47
 xtb: 6.5.1 (579679a)
C            3.57204396282994        0.51694872520657       -1.94905175063241
C            4.19178973611074       -0.17811047600331       -0.72977192768658
C            5.23891943454200        0.69529345894316       -0.08662198365944
C            5.45446031351605        0.64043582906998        1.22513487111370
F            6.42271241146713        1.37276201456452        1.79124377132382
C            4.69211966997132       -0.19616703556235        2.12356188551664
C            3.61147437505946       -0.83820695649079        1.67497469748720
C            3.11012371839067       -0.65781269164927        0.26052756788259
C            2.35446493958362       -1.90819557268152       -0.24992525726906
N            0.97406110547868       -1.45865104588278       -0.23597599904456
C            0.88237991276863       -0.19589309966254        0.08353408735818
O            2.03643145621085        0.35826210918320        0.34501372387299
C           -0.36532919578143        0.51396858921189        0.14618121554641
N           -1.45617004514948       -0.26278109761982       -0.13153286581192
C           -2.65379642013727        0.24086909688194       -0.09528622519688
C           -3.78141307180570       -0.74607958989463       -0.36159625943131
C           -4.30329829334872       -1.25499857493971        0.99143947838485
C           -3.23055229497777       -1.93239182051472       -1.17015101984927
N           -4.86527305387558       -0.11434517595318       -1.10139583663394
N           -2.87025663079847        1.55313075870802        0.22364423903744
C           -4.21603400324070        2.13812056490104        0.29386083043774
C           -1.83265838100277        2.44923596075685        0.46988957260297
O           -2.04056462395148        3.62738997985701        0.69823027229572
C           -0.49368954398351        1.84915455445815        0.44646921534625
O            0.50944359276218        2.67526938174748        0.72172727519915
H            2.81595391012676       -0.12092089759328       -2.40338692550995
H            3.10880125860182        1.45784247613503       -1.65735243719822
H            4.34899180637870        0.71743569894970       -2.68538000323916
H            4.70448468086401       -1.08549820232859       -1.08379109246182
H            5.84252707262989        1.31071068982671       -0.74046392142453
H            5.02495611765316       -0.28069413307070        3.15075030837794
H            2.99476518989596       -1.44652904952158        2.32399921059164
H            2.63442174765187       -2.19426478589722       -1.26675701881668
H            2.47339756515587       -2.76925155312835        0.41026091430958
H            0.18298857931647       -2.03452009440544       -0.47959016884704
H           -3.48435053007993       -1.69533080407027        1.55821166596607
H           -4.74096348204494       -0.44700235278505        1.57544171397074
H           -5.06377469942712       -2.01562745355118        0.82162328738545
H           -2.77650711974703       -1.57766500552383       -2.09354056594825
H           -2.47874385362905       -2.47002639626579       -0.59589088010646
H           -4.04626154147767       -2.61130895380579       -1.41279712412983
H           -4.57379439887404        0.02205905847373       -2.06055999870642
H           -5.65830888896216       -0.74181234978527       -1.11095614535229
H           -4.56110366420766        2.37376559912549       -0.71137029367088
H           -4.16215300664733        3.04900761182444        0.88963622148427
H           -4.90184713030414        1.43621972731661        0.75505130101730
H            1.37513231647828        2.23620428345364        0.72215937412580

          :  Hamiltonian                  GFN1-xTB          :
         :: total energy             -79.522553303874 Eh    ::
         :: gradient norm              0.000186396445 Eh/a0 ::
         :: HOMO-LUMO gap              1.558242960524 eV    ::
         :: SCC energy               -80.389717290814 Eh    ::
         :: -> Gsolv                  -0.109203824437 Eh    ::
         :: repulsion energy           0.898566719757 Eh    ::

    * Orbital Energies and Occupations

         #    Occupation            Energy/Eh            Energy/eV
      -------------------------------------------------------------
         1        2.0000           -0.8944169             -24.3383
       ...           ...                  ...                  ...
        55        2.0000           -0.5136363             -13.9768
        56        2.0000           -0.5106398             -13.8952
        57        2.0000           -0.5091118             -13.8536
        58        2.0000           -0.5064842             -13.7821
        59        2.0000           -0.5040163             -13.7150
        60        2.0000           -0.4988890             -13.5755
        61        2.0000           -0.4884625             -13.2917
        62        2.0000           -0.4849355             -13.1958
        63        2.0000           -0.4781420             -13.0109
        64        2.0000           -0.4702261             -12.7955
        65        2.0000           -0.4481765             -12.1955
        66        2.0000           -0.4433369             -12.0638
        67        2.0000           -0.4227186             -11.5028 (HOMO)
        68                         -0.3654542              -9.9445 (LUMO)
        69                         -0.3211554              -8.7391
        70                         -0.3022978              -8.2259
        71                         -0.2761020              -7.5131
        72                         -0.2145445              -5.8381
        73                         -0.1844328              -5.0187
        74                         -0.1567979              -4.2667
        75                         -0.1445303              -3.9329
        76                         -0.1422279              -3.8702
        77                         -0.1393022              -3.7906
        78                         -0.1323817              -3.6023
       ...                                ...                  ...
       144                          0.6900289              18.7766
      -------------------------------------------------------------
                  HL-Gap            0.0572644 Eh            1.5582 eV

Wiberg/Mayer (AO) data.
largest (>0.10) Wiberg bond orders for each atom

     #   Z sym  total        # sym  WBO       # sym  WBO       # sym  WBO
 ---------------------------------------------------------------------------
     1   6 C    3.990 --     2 C    0.997    27 H    0.986    26 H    0.984
                            28 H    0.983
     2   6 C    3.987 --     3 C    1.011     1 C    0.997     8 C    0.971
                            29 H    0.944
     3   6 C    3.987 --     4 C    1.769     2 C    1.011    30 H    0.964
                             7 C    0.121
     4   6 C    3.868 --     3 C    1.769     6 C    1.099     5 F    0.933
     5   9 F    1.067 --     4 C    0.933
     6   6 C    3.988 --     7 C    1.847     4 C    1.099    31 H    0.963
     7   6 C    3.985 --     6 C    1.847     8 C    0.990    32 H    0.965
                             3 C    0.121
     8   6 C    3.846 --     7 C    0.990     9 C    0.978     2 C    0.971
                            12 O    0.820
     9   6 C    3.925 --     8 C    0.978    34 H    0.965    33 H    0.963
                            10 N    0.941
    10   7 N    3.474 --    11 C    1.446     9 C    0.941    35 H    0.863
                            12 O    0.103
    11   6 C    3.869 --    10 N    1.446    12 O    1.172    13 C    1.111
    12   8 O    2.242 --    11 C    1.172     8 C    0.820    10 N    0.103
    13   6 C    3.957 --    24 C    1.434    14 N    1.171    11 C    1.111
    14   7 N    3.027 --    15 C    1.546    13 C    1.171
    15   6 C    3.912 --    14 N    1.546    20 N    1.190    16 C    0.977
    16   6 C    3.964 --    19 N    0.989    18 C    0.987    15 C    0.977
                            17 C    0.977
    17   6 C    3.992 --    36 H    0.985    38 H    0.981    37 H    0.980
                            16 C    0.977
    18   6 C    3.993 --    16 C    0.987    39 H    0.984    41 H    0.984
                            40 H    0.983
    19   7 N    2.977 --    16 C    0.989    42 H    0.939    43 H    0.936
    20   7 N    3.520 --    15 C    1.190    22 C    1.120    21 C    0.921
                            23 O    0.141
    21   6 C    3.911 --    46 H    0.977    45 H    0.975    44 H    0.973
                            20 N    0.921
    22   6 C    3.918 --    23 O    1.602    20 N    1.120    24 C    1.052
    23   8 O    1.917 --    22 C    1.602    20 N    0.141
    24   6 C    3.912 --    13 C    1.434    25 O    1.135    22 C    1.052
    25   8 O    2.125 --    24 C    1.135    47 H    0.807
    26   1 H    0.998 --     1 C    0.984
    27   1 H    1.004 --     1 C    0.986
    28   1 H    0.999 --     1 C    0.983
    29   1 H    1.000 --     2 C    0.944
    30   1 H    0.992 --     3 C    0.964
    31   1 H    0.994 --     6 C    0.963
    32   1 H    0.993 --     7 C    0.965
    33   1 H    0.993 --     9 C    0.963
    34   1 H    0.994 --     9 C    0.965
    35   1 H    0.918 --    10 N    0.863
    36   1 H    1.002 --    17 C    0.985
    37   1 H    1.003 --    17 C    0.980
    38   1 H    0.998 --    17 C    0.981
    39   1 H    1.005 --    18 C    0.984
    40   1 H    1.012 --    18 C    0.983
    41   1 H    1.001 --    18 C    0.984
    42   1 H    0.954 --    19 N    0.939
    43   1 H    0.950 --    19 N    0.936
    44   1 H    1.014 --    21 C    0.973
    45   1 H    1.007 --    21 C    0.975
    46   1 H    1.021 --    21 C    0.977
    47   1 H    0.846 --    25 O    0.807
 ---------------------------------------------------------------------------

           -------------------------------------------------
          | TOTAL ENERGY              -79.522553303874 Eh   |
          | GRADIENT NORM               0.000186396445 Eh/α |
          | HOMO-LUMO GAP               1.558242960524 eV   |
           -------------------------------------------------

 * finished run on 2023/06/20 at 15:28:37.408
