   * xtb version 6.5.1 (579679a) compiled by 'ehlert@majestix' on 2022-07-11
          program call               : /lustre/hpc/kemi/ree/PhD/git/ReactivityQM/dep/xtb-6.5.1/bin/xtb --gfn 1 /lustre/hpc/kemi/ree/PhD/git/ReactivityQM/calculations/R02deprot/reac01prodE09/conf07/R02deprot_reac01prodE09_conf07_gfn1.xyz --opt --vfukui --chrg -2 --uhf 0 --alpb DMSO

   ID    Z sym.   atoms
    1    6 C      1, 3, 5, 7-10, 12, 14, 16, 17, 20, 22, 24
    2    8 O      2, 4, 13, 15, 23, 25
    3    7 N      6, 11, 18, 19, 21
    4    1 H      26-42

      * Solvation model:               ALPB
        Solvent                        DMSO
        Solvent mass                       7.8130E+01 g/mol
          :  Hamiltonian                  GFN1-xTB          :
 * total energy  :   -83.5793573 Eh     change       -0.7504610E-09 Eh
 * total energy  :   -83.5932039 Eh     change       -0.1384655E-01 Eh
 * total energy  :   -83.5982209 Eh     change       -0.5017076E-02 Eh
 * total energy  :   -83.5994189 Eh     change       -0.1197926E-02 Eh
 * total energy  :   -83.6018548 Eh     change       -0.2435899E-02 Eh
 * total energy  :   -83.6037850 Eh     change       -0.1930259E-02 Eh
 * total energy  :   -83.6062615 Eh     change       -0.2476481E-02 Eh
 * total energy  :   -83.6087719 Eh     change       -0.2510372E-02 Eh
 * total energy  :   -83.6099473 Eh     change       -0.1175383E-02 Eh
 * total energy  :   -83.6106560 Eh     change       -0.7087788E-03 Eh
 * total energy  :   -83.6157872 Eh     change       -0.8419993E-05 Eh
 * total energy  :   -83.6158052 Eh     change       -0.1802727E-04 Eh
 * total energy  :   -83.6158153 Eh     change       -0.1015554E-04 Eh
 * total energy  :   -83.6158334 Eh     change       -0.1803863E-04 Eh
 * total energy  :   -83.6158398 Eh     change       -0.6439701E-05 Eh
 * total energy  :   -83.6158585 Eh     change       -0.1866307E-04 Eh
 * total energy  :   -83.6158638 Eh     change       -0.5356813E-05 Eh
 * total energy  :   -83.6158690 Eh     change       -0.5192337E-05 Eh
 * total energy  :   -83.6158714 Eh     change       -0.2410900E-05 Eh
   *** GEOMETRY OPTIMIZATION CONVERGED AFTER 54 ITERATIONS ***

 final structure:
================
42
 xtb: 6.5.1 (579679a)
C            6.81454264855473        1.36829728462220        0.95742331593654
O            5.60883730253954        1.34591792652028        0.19357546599426
C            4.65297171833181        0.48958115332184        0.63353001756148
O            4.84197268926551       -0.20541485271093        1.61229608041421
C            3.41287024913704        0.50451624164926       -0.16578713012453
N            2.43745102632290       -0.30778135843431        0.34409235976636
C            1.28213042593438       -0.34634271911170       -0.28671536566087
C            0.19379385514827       -1.26823083446169        0.26740544284742
C            0.61529904044285       -1.82181553136387        1.63388032954642
C            0.01982907351435       -2.41680451865748       -0.75058109507910
N           -1.01459505001009       -0.45541925778116        0.39813238450146
C           -2.27726411477022       -1.10549739881642        0.63213808426571
O           -2.32212630533275       -2.24911911031906        1.18353264122206
C           -3.37383608106118       -0.28388152915079        0.45969856884490
O           -3.32496155525866        0.89547668603023       -0.35852531082250
C           -4.54182246313713        0.98538644064545       -0.89696560973199
C           -4.82644405847708        2.11097357045117       -1.83414897633970
N           -5.40186781786843        0.09665830902431       -0.56878177949960
N           -4.74650283315309       -0.79993424036160        0.35680464587293
C           -5.46906749050235       -0.69660632965777        1.63536805581008
N            0.96022913545294        0.32529939331152       -1.39032070122508
C            1.87028005282241        1.14405132219612       -1.97732304913093
O            1.61769556373223        1.78255321327991       -3.01631449172096
C            3.18205197165759        1.23401250170684       -1.31032578461197
O            4.07918829610883        2.06049073931318       -1.91199434321768
H            7.29471952638497        0.38654838463737        0.93611590366519
H            6.60091936462181        1.64075160140942        1.99444823215632
H            7.46504891470226        2.11200800952065        0.50344752977957
H            0.72160977015846       -1.00352040569338        2.34731056331335
H            1.57450278816110       -2.33287994985492        1.54687486045308
H           -0.12654010990703       -2.52526256464533        2.01016457309385
H           -0.73835796497885       -3.12297637820615       -0.41333605001860
H           -0.27400766330293       -2.00912472902441       -1.71873043725711
H            0.96499224909165       -2.94786836455153       -0.86787069632156
H           -1.07894296779552        0.20384362512691       -0.37783831738086
H           -5.88236564334950        2.11097297733796       -2.09422279605982
H           -4.56905559939426        3.05971227674122       -1.36440051365745
H           -4.23341708500809        2.01043643319708       -2.74397343694091
H           -4.98922784167789       -1.37304498081949        2.34188797643035
H           -5.44707784246215        0.32433871404037        2.03133893160012
H           -6.50277861504799       -1.00317480185504        1.47901628126149
H            4.92932444041301        2.08287605139616       -1.45032635953326

          :  Hamiltonian                  GFN1-xTB          :
         :: total energy             -83.615871435233 Eh    ::
         :: gradient norm              0.000741100010 Eh/a0 ::
         :: HOMO-LUMO gap              0.400784543668 eV    ::
         :: SCC energy               -84.349255548385 Eh    ::
         :: -> Gsolv                  -0.276985660256 Eh    ::
         :: repulsion energy           0.758558628987 Eh    ::

    * Orbital Energies and Occupations

         #    Occupation            Energy/Eh            Energy/eV
      -------------------------------------------------------------
         1        2.0000           -0.8137977             -22.1446
       ...           ...                  ...                  ...
        56        2.0000           -0.4421785             -12.0323
        57        2.0000           -0.4365697             -11.8797
        58        2.0000           -0.4156422             -11.3102
        59        2.0000           -0.4132903             -11.2462
        60        2.0000           -0.4056271             -11.0377
        61        2.0000           -0.4044738             -11.0063
        62        2.0000           -0.3834898             -10.4353
        63        2.0000           -0.3763532             -10.2411
        64        2.0000           -0.3673006              -9.9948
        65        2.0000           -0.3572489              -9.7212
        66        2.0000           -0.3555909              -9.6761
        67        2.0000           -0.3516851              -9.5698
        68        1.9991           -0.2840977              -7.7307 (HOMO)
        69        0.0009           -0.2693691              -7.3299 (LUMO)
        70                         -0.2096094              -5.7038
        71                         -0.2011881              -5.4746
        72                         -0.1793898              -4.8814
        73                         -0.1329064              -3.6166
        74                         -0.1245711              -3.3898
        75                         -0.1192117              -3.2439
        76                         -0.0928212              -2.5258
        77                         -0.0886879              -2.4133
        78                         -0.0848045              -2.3076
        79                         -0.0798465              -2.1727
       ...                                ...                  ...
       134                          0.7424304              20.2026
      -------------------------------------------------------------
                  HL-Gap            0.0147286 Eh            0.4008 eV

Wiberg/Mayer (AO) data.
largest (>0.10) Wiberg bond orders for each atom

     #   Z sym  total        # sym  WBO       # sym  WBO       # sym  WBO
 ---------------------------------------------------------------------------
     1   6 C    3.882 --    28 H    0.987    26 H    0.981    27 H    0.981
                             2 O    0.905
     2   8 O    2.178 --     3 C    1.049     1 C    0.905     4 O    0.117
     3   6 C    3.828 --     4 O    1.640     2 O    1.049     5 C    1.041
     4   8 O    1.902 --     3 C    1.640     2 O    0.117
     5   6 C    3.963 --    24 C    1.466     6 N    1.206     3 C    1.041
     6   7 N    2.991 --     7 C    1.454     5 C    1.206
     7   6 C    3.949 --     6 N    1.454    21 N    1.367     8 C    0.969
     8   6 C    3.965 --     9 C    0.999    10 C    0.975     7 C    0.969
                            11 N    0.963
     9   6 C    3.997 --     8 C    0.999    30 H    0.987    29 H    0.987
                            31 H    0.982
    10   6 C    3.995 --    34 H    0.988    33 H    0.986    32 H    0.982
                             8 C    0.975
    11   7 N    3.097 --    12 C    0.990     8 C    0.963    35 H    0.927
    12   6 C    3.924 --    14 C    1.461    13 O    1.354    11 N    0.990
    13   8 O    1.706 --    12 C    1.354    14 C    0.160
    14   6 C    3.596 --    12 C    1.461    19 N    0.944    15 O    0.862
                            13 O    0.160
    15   8 O    2.188 --    16 C    1.099    14 C    0.862    18 N    0.137
    16   6 C    3.909 --    18 N    1.703    15 O    1.099    17 C    1.012
    17   6 C    3.995 --    16 C    1.012    36 H    0.987    37 H    0.975
                            38 H    0.972
    18   7 N    2.943 --    16 C    1.703    19 N    0.982    15 O    0.137
    19   7 N    3.051 --    18 N    0.982    20 C    0.973    14 C    0.944
    20   6 C    3.984 --    41 H    0.989    39 H    0.988    40 H    0.983
                            19 N    0.973
    21   7 N    2.989 --     7 C    1.367    22 C    1.244    23 O    0.126
    22   6 C    3.932 --    23 O    1.484    21 N    1.244    24 C    1.072
    23   8 O    1.770 --    22 C    1.484    21 N    0.126
    24   6 C    3.897 --     5 C    1.466    22 C    1.072    25 O    1.051
    25   8 O    2.039 --    24 C    1.051    42 H    0.828
    26   1 H    1.011 --     1 C    0.981
    27   1 H    1.011 --     1 C    0.981
    28   1 H    1.012 --     1 C    0.987
    29   1 H    1.019 --     9 C    0.987
    30   1 H    1.021 --     9 C    0.987
    31   1 H    1.032 --     9 C    0.982
    32   1 H    1.025 --    10 C    0.982
    33   1 H    1.017 --    10 C    0.986
    34   1 H    1.009 --    10 C    0.988
    35   1 H    0.995 --    11 N    0.927
    36   1 H    1.007 --    17 C    0.987
    37   1 H    1.004 --    17 C    0.975
    38   1 H    1.004 --    17 C    0.972
    39   1 H    1.033 --    20 C    0.988
    40   1 H    1.024 --    20 C    0.983
    41   1 H    1.027 --    20 C    0.989
    42   1 H    0.879 --    25 O    0.828
 ---------------------------------------------------------------------------

           -------------------------------------------------
          | TOTAL ENERGY              -83.615871435233 Eh   |
          | GRADIENT NORM               0.000741100010 Eh/α |
          | HOMO-LUMO GAP               0.400784543668 eV   |
           -------------------------------------------------

 * finished run on 2023/06/20 at 17:53:12.146
