   * xtb version 6.5.1 (579679a) compiled by 'ehlert@majestix' on 2022-07-11
          program call               : /lustre/hpc/kemi/ree/PhD/git/ReactivityQM/dep/xtb-6.5.1/bin/xtb --gfn 1 /lustre/hpc/kemi/ree/PhD/git/ReactivityQM/calculations/R02methylcation/reac01prodE01/conf20/R02methylcation_reac01prodE01_conf20_gfn1.xyz --opt --vfukui --chrg -2 --uhf 0 --alpb DMSO

   ID    Z sym.   atoms
    1    6 C      1, 3, 5, 7-10, 12, 13, 15, 18, 19, 22, 24
    2    8 O      2, 4, 14, 20, 23, 25
    3    7 N      6, 11, 16, 17, 21
    4    1 H      26-42

      * Solvation model:               ALPB
        Solvent                        DMSO
        Solvent mass                       7.8130E+01 g/mol
          :  Hamiltonian                  GFN1-xTB          :
 * total energy  :   -83.6274302 Eh     change       -0.2219736E-10 Eh
 * total energy  :   -83.6394676 Eh     change       -0.1203735E-01 Eh
 * total energy  :   -83.6433741 Eh     change       -0.3906481E-02 Eh
 * total energy  :   -83.6442562 Eh     change       -0.8820830E-03 Eh
 * total energy  :   -83.6447633 Eh     change       -0.5071960E-03 Eh
 * total energy  :   -83.6450033 Eh     change       -0.2399536E-03 Eh
 * total energy  :   -83.6451432 Eh     change       -0.1398519E-03 Eh
 * total energy  :   -83.6452091 Eh     change       -0.6595233E-04 Eh
 * total energy  :   -83.6452428 Eh     change       -0.3366169E-04 Eh
 * total energy  :   -83.6452664 Eh     change       -0.2366230E-04 Eh
 * total energy  :   -83.6453304 Eh     change       -0.1727349E-04 Eh
 * total energy  :   -83.6453636 Eh     change       -0.3329837E-04 Eh
 * total energy  :   -83.6453796 Eh     change       -0.1593713E-04 Eh
 * total energy  :   -83.6454049 Eh     change       -0.2535555E-04 Eh
 * total energy  :   -83.6454239 Eh     change       -0.1895398E-04 Eh
 * total energy  :   -83.6454314 Eh     change       -0.7537187E-05 Eh
 * total energy  :   -83.6454401 Eh     change       -0.8707253E-05 Eh
 * total energy  :   -83.6454452 Eh     change       -0.5096194E-05 Eh
 * total energy  :   -83.6454480 Eh     change       -0.2779006E-05 Eh
   *** GEOMETRY OPTIMIZATION CONVERGED AFTER 21 ITERATIONS ***

 final structure:
================
42
 xtb: 6.5.1 (579679a)
C            5.57794773598745        1.58198312636347       -1.60753895161531
O            4.47656443744582        0.90154562882031       -1.02893765259872
C            4.70271441153460        0.36051455366772        0.21370097645078
O            5.79539336657421        0.49828194916922        0.74734534941853
C            3.54586559657909       -0.33761743293314        0.73789857675997
N            2.42918981330816       -0.33331405502035       -0.08193854125408
C            1.34916522345839       -0.92458863272720        0.27536622951740
C            0.10326946980574       -0.90691436837539       -0.60105415384932
C            0.45459307020856       -0.16196374775560       -1.89921844179873
C           -0.27436756583591       -2.36540763637814       -0.92535143273399
N           -0.90625208555054       -0.14569069646930        0.15242195025442
C           -2.39295808543756       -0.46786935653300       -0.07388807956191
C           -2.80823670106194        0.07009766343298       -1.47944862168579
O           -2.74008100182766       -1.69626306433537        0.17918746330901
C           -3.03807986443464        0.52184286915391        0.96457282746563
N           -2.59148676625186        0.82290489400114        2.14361426985431
N           -3.55305642472936        1.60638466706739        2.75471974743434
C           -4.51662437390024        1.71966852057577        1.90522544183176
C           -5.78700965257949        2.46783584963585        2.07061362216153
O           -4.26250582544068        1.06267932106830        0.75623475539324
N            1.26121823727814       -1.58742050007430        1.48482048452552
C            2.28232930660941       -1.67806742686212        2.38804003940672
O            2.12176091965162       -2.30754600412976        3.43549937926022
C            3.56481934775692       -0.97396422491238        2.00636385876989
O            4.52462629606060       -1.00170248703439        2.80260794538977
H            5.25621086183929        1.94131047696902       -2.58436583772327
H            5.88468899711282        2.43066110721025       -0.98698540778512
H            6.43334454048171        0.90869584459736       -1.72790489667226
H            1.34732042412548       -0.59777291285306       -2.34860676687866
H           -0.35814345821174       -0.22396329151881       -2.61872820544202
H            0.65140837825986        0.88757264567150       -1.67878934897085
H           -1.10273449270348       -2.40485607137302       -1.62958466367799
H            0.58759219241667       -2.86599270643874       -1.36898199291535
H           -0.57100953966015       -2.89953937405062       -0.02412368549637
H           -0.77104153107173       -0.35584475380589        1.14514586242913
H           -3.89559343713696        0.10372301824571       -1.52707384286500
H           -2.45794806257838       -0.61187105925150       -2.25081863912415
H           -2.40905377045804        1.06802994521503       -1.65500040901154
H           -5.82850690156854        2.90048769141090        3.06710202097797
H           -5.85427312748800        3.26401956794217        1.32942509073661
H           -6.63870368959916        1.80316557868700        1.92863454870358
H            0.40764773103492       -2.07323611607484        1.71963013161091

          :  Hamiltonian                  GFN1-xTB          :
         :: total energy             -83.645448015417 Eh    ::
         :: gradient norm              0.000644493360 Eh/a0 ::
         :: HOMO-LUMO gap              2.114682788349 eV    ::
         :: SCC energy               -84.379927218126 Eh    ::
         :: -> Gsolv                  -0.267271605482 Eh    ::
         :: repulsion energy           0.760563096679 Eh    ::

    * Orbital Energies and Occupations

         #    Occupation            Energy/Eh            Energy/eV
      -------------------------------------------------------------
         1        2.0000           -0.8161791             -22.2094
       ...           ...                  ...                  ...
        56        2.0000           -0.4426755             -12.0458
        57        2.0000           -0.4406471             -11.9906
        58        2.0000           -0.4329921             -11.7823
        59        2.0000           -0.4280284             -11.6472
        60        2.0000           -0.4246307             -11.5548
        61        2.0000           -0.4108959             -11.1810
        62        2.0000           -0.4053520             -11.0302
        63        2.0000           -0.4001248             -10.8880
        64        2.0000           -0.3711653             -10.0999
        65        2.0000           -0.3658189              -9.9544
        66        2.0000           -0.3525841              -9.5943
        67        2.0000           -0.3400435              -9.2531
        68        2.0000           -0.3377895              -9.1917 (HOMO)
        69                         -0.2600763              -7.0770 (LUMO)
        70                         -0.2234272              -6.0798
        71                         -0.2206126              -6.0032
        72                         -0.2065402              -5.6202
        73                         -0.1865615              -5.0766
        74                         -0.1281938              -3.4883
        75                         -0.1195622              -3.2535
        76                         -0.1012617              -2.7555
        77                         -0.0972298              -2.6458
        78                         -0.0897019              -2.4409
        79                         -0.0797408              -2.1699
       ...                                ...                  ...
       134                          0.7695116              20.9395
      -------------------------------------------------------------
                  HL-Gap            0.0777132 Eh            2.1147 eV

Wiberg/Mayer (AO) data.
largest (>0.10) Wiberg bond orders for each atom

     #   Z sym  total        # sym  WBO       # sym  WBO       # sym  WBO
 ---------------------------------------------------------------------------
     1   6 C    3.904 --    26 H    0.987    27 H    0.980    28 H    0.980
                             2 O    0.932
     2   8 O    2.131 --     3 C    1.014     1 C    0.932     4 O    0.105
     3   6 C    3.848 --     4 O    1.581     5 C    1.132     2 O    1.014
     4   8 O    1.859 --     3 C    1.581     2 O    0.105
     5   6 C    3.919 --    24 C    1.274     6 N    1.144     3 C    1.132
                            25 O    0.130
     6   7 N    3.023 --     7 C    1.637     5 C    1.144
     7   6 C    3.923 --     6 N    1.637    21 N    1.090     8 C    0.973
     8   6 C    3.970 --     9 C    0.996    10 C    0.980     7 C    0.973
                            11 N    0.970
     9   6 C    3.997 --     8 C    0.996    29 H    0.986    31 H    0.986
                            30 H    0.983
    10   6 C    3.994 --    33 H    0.987    32 H    0.980     8 C    0.980
                            34 H    0.979
    11   7 N    2.965 --     8 C    0.970    35 H    0.945    12 C    0.851
    12   6 C    3.936 --    14 O    1.211    13 C    0.944    15 C    0.876
                            11 N    0.851
    13   6 C    3.992 --    38 H    0.990    36 H    0.985    37 H    0.981
                            12 C    0.944
    14   8 O    1.545 --    12 C    1.211
    15   6 C    3.800 --    16 N    1.654    20 O    1.045    12 C    0.876
    16   7 N    2.973 --    15 C    1.654    17 N    1.147
    17   7 N    2.976 --    18 C    1.657    16 N    1.147
    18   6 C    3.888 --    17 N    1.657    20 O    1.062    19 C    1.023
    19   6 C    3.993 --    18 C    1.023    39 H    0.985    41 H    0.971
                            40 H    0.970
    20   8 O    2.293 --    18 C    1.062    15 C    1.045
    21   7 N    3.437 --    22 C    1.178     7 C    1.090    42 H    0.897
                            23 O    0.136
    22   6 C    3.883 --    23 O    1.560    21 N    1.178    24 C    0.971
    23   8 O    1.839 --    22 C    1.560    21 N    0.136
    24   6 C    3.943 --    25 O    1.509     5 C    1.274    22 C    0.971
    25   8 O    1.813 --    24 C    1.509     5 C    0.130
    26   1 H    1.017 --     1 C    0.987
    27   1 H    1.015 --     1 C    0.980
    28   1 H    1.015 --     1 C    0.980
    29   1 H    1.018 --     9 C    0.986
    30   1 H    1.012 --     9 C    0.983
    31   1 H    1.022 --     9 C    0.986
    32   1 H    1.025 --    10 C    0.980
    33   1 H    1.008 --    10 C    0.987
    34   1 H    1.029 --    10 C    0.979
    35   1 H    0.997 --    11 N    0.945
    36   1 H    1.018 --    13 C    0.985
    37   1 H    1.018 --    13 C    0.981
    38   1 H    1.013 --    13 C    0.990
    39   1 H    1.003 --    19 C    0.985
    40   1 H    1.002 --    19 C    0.970
    41   1 H    1.002 --    19 C    0.971
    42   1 H    0.952 --    21 N    0.897
 ---------------------------------------------------------------------------

           -------------------------------------------------
          | TOTAL ENERGY              -83.645448015417 Eh   |
          | GRADIENT NORM               0.000644493360 Eh/α |
          | HOMO-LUMO GAP               2.114682788349 eV   |
           -------------------------------------------------

 * finished run on 2023/06/21 at 17:03:46.211
