   * xtb version 6.5.1 (579679a) compiled by 'ehlert@majestix' on 2022-07-11
          program call               : /lustre/hpc/kemi/ree/PhD/git/ReactivityQM/dep/xtb-6.5.1/bin/xtb --gfn 1 /lustre/hpc/kemi/ree/PhD/git/ReactivityQM/calculations/R02deprot/reac01prodN04/conf09/R02deprot_reac01prodN04_conf09_gfn1.xyz --opt --vfukui --chrg 0 --uhf 0 --alpb DMSO

   ID    Z sym.   atoms
    1    6 C      1, 3, 5, 6, 8-11, 13, 15, 18, 19, 22, 24
    2    8 O      2, 4, 14, 20, 23, 25
    3    7 N      7, 12, 16, 17, 21
    4    1 H      26-42

      * Solvation model:               ALPB
        Solvent                        DMSO
        Solvent mass                       7.8130E+01 g/mol
          :  Hamiltonian                  GFN1-xTB          :
 * total energy  :   -82.9354635 Eh     change       -0.2637535E-10 Eh
 * total energy  :   -82.9551681 Eh     change       -0.1970458E-01 Eh
 * total energy  :   -82.9621849 Eh     change       -0.7016817E-02 Eh
 * total energy  :   -82.9638952 Eh     change       -0.1710226E-02 Eh
 * total energy  :   -82.9650531 Eh     change       -0.1157953E-02 Eh
 * total energy  :   -82.9656697 Eh     change       -0.6166288E-03 Eh
 * total energy  :   -82.9662479 Eh     change       -0.5781370E-03 Eh
 * total energy  :   -82.9667033 Eh     change       -0.4554747E-03 Eh
 * total energy  :   -82.9671048 Eh     change       -0.4014312E-03 Eh
 * total energy  :   -82.9674563 Eh     change       -0.3514898E-03 Eh
 * total energy  :   -82.9688557 Eh     change       -0.8642707E-05 Eh
 * total energy  :   -82.9688606 Eh     change       -0.4881917E-05 Eh
 * total energy  :   -82.9688680 Eh     change       -0.7390756E-05 Eh
 * total energy  :   -82.9688749 Eh     change       -0.6982015E-05 Eh
 * total energy  :   -82.9688825 Eh     change       -0.7550505E-05 Eh
 * total energy  :   -82.9688906 Eh     change       -0.8145001E-05 Eh
 * total energy  :   -82.9688966 Eh     change       -0.5943215E-05 Eh
 * total energy  :   -82.9689022 Eh     change       -0.5661947E-05 Eh
 * total energy  :   -82.9689071 Eh     change       -0.4833239E-05 Eh
   *** GEOMETRY OPTIMIZATION CONVERGED AFTER 42 ITERATIONS ***

 final structure:
================
42
 xtb: 6.5.1 (579679a)
C           -5.42365373378625        0.88697529442578        1.46594793900751
O           -5.15839161552723       -0.01892442718174        0.38799538231604
C           -3.99218222394608       -0.38392256013864       -0.04510558573874
O           -3.99008871606967       -0.98997408454954       -1.19208436551790
C           -5.21836312839678       -1.18415974122675       -1.90609732897529
C           -2.70379917598117       -0.18820306792527        0.56873617609099
N           -1.65931010441761       -0.24736440802303       -0.32466981449290
C           -0.43740720035316       -0.11128288400790        0.14066414278583
C            0.65954381271743       -0.15648043031589       -0.91338934222299
C            0.60984275112236       -1.51422159298330       -1.62819205172362
C            0.43838347444416        0.99038241975312       -1.91008023782923
N            1.93927891774026        0.00848063170838       -0.23294261491879
C            3.12899213679490        0.03215223209720       -0.84866994480714
O            3.31678739530624       -0.09571910933766       -2.04960265328940
C            4.23586868599977        0.23799377463052        0.12767671342375
N            4.11883018597050        0.35029591718391        1.41589404016662
N            5.37788484243123        0.52526081098585        1.91194065270508
C            6.18112593915785        0.50860122989891        0.89318421060044
C            7.65306760623051        0.66090139318572        0.90009052312785
O            5.52184329838030        0.33020476470383       -0.26153329977021
N           -0.06713223189163        0.05728762740335        1.41009499219281
C           -1.01938374505987        0.08805220379605        2.36119664934116
O           -0.82592866603792        0.21044758922107        3.57861912729035
C           -2.42071992437185       -0.04368355623543        1.91121593453216
O           -3.30397623707057       -0.08636459043147        2.90786571208319
H           -4.61518270163105        1.60902510476143        1.57184186834389
H           -6.35316287518994        1.39031536704298        1.20349981247227
H           -5.55543846247557        0.32243905969866        2.38887791985298
H           -5.87946378295034       -1.83410261964100       -1.33148329356906
H           -5.70421288491869       -0.22257684658856       -2.07498154166247
H           -4.94683227186468       -1.65056698275561       -2.85053025936786
H           -0.38669408326982       -1.65737994210354       -2.04284880303636
H            0.81726831782553       -2.31623544520229       -0.92090930726598
H            1.34163353116434       -1.54804784471322       -2.43360763283319
H            0.52961515453493        1.94913746568645       -1.40122229010411
H            1.16828993704836        0.94168347896602       -2.71649205829313
H           -0.56370264466704        0.90563602669030       -2.32761541681155
H            1.89018241809573        0.13046157975155        0.77576655164330
H            8.00409664819455        0.78111045069917        1.92192714589147
H            7.94000237405561        1.53127097293201        0.31088878572037
H            8.12077425271879       -0.21625655340375        0.45449374444683
H           -2.76828227005131        0.01735129154603        3.73520881819451

          :  Hamiltonian                  GFN1-xTB          :
         :: total energy             -82.968907067548 Eh    ::
         :: gradient norm              0.000820274664 Eh/a0 ::
         :: HOMO-LUMO gap              1.610811339096 eV    ::
         :: SCC energy               -83.737725974843 Eh    ::
         :: -> Gsolv                  -0.060483094791 Eh    ::
         :: repulsion energy           0.793906204067 Eh    ::

    * Orbital Energies and Occupations

         #    Occupation            Energy/Eh            Energy/eV
      -------------------------------------------------------------
         1        2.0000           -0.8892620             -24.1981
       ...           ...                  ...                  ...
        55        2.0000           -0.5007079             -13.6250
        56        2.0000           -0.4916015             -13.3772
        57        2.0000           -0.4893801             -13.3167
        58        2.0000           -0.4773842             -12.9903
        59        2.0000           -0.4697833             -12.7835
        60        2.0000           -0.4594907             -12.5034
        61        2.0000           -0.4577523             -12.4561
        62        2.0000           -0.4534841             -12.3399
        63        2.0000           -0.4459122             -12.1339
        64        2.0000           -0.4360022             -11.8642
        65        2.0000           -0.4329247             -11.7805
        66        2.0000           -0.4071500             -11.0791
        67        2.0000           -0.4052068             -11.0262 (HOMO)
        68                         -0.3460106              -9.4154 (LUMO)
        69                         -0.3023799              -8.2282
        70                         -0.2602699              -7.0823
        71                         -0.2529628              -6.8835
        72                         -0.2441021              -6.6424
        73                         -0.1907077              -5.1894
        74                         -0.1577590              -4.2928
        75                         -0.1485184              -4.0414
        76                         -0.1461059              -3.9757
        77                         -0.1411530              -3.8410
        78                         -0.1145805              -3.1179
       ...                                ...                  ...
       134                          0.7259343              19.7537
      -------------------------------------------------------------
                  HL-Gap            0.0591962 Eh            1.6108 eV

Wiberg/Mayer (AO) data.
largest (>0.10) Wiberg bond orders for each atom

     #   Z sym  total        # sym  WBO       # sym  WBO       # sym  WBO
 ---------------------------------------------------------------------------
     1   6 C    3.827 --    26 H    0.980    27 H    0.978    28 H    0.968
                             2 O    0.860
     2   8 O    2.282 --     3 C    1.219     1 C    0.860
     3   6 C    3.801 --     4 O    1.230     2 O    1.219     6 C    1.141
     4   8 O    2.291 --     3 C    1.230     5 C    0.871
     5   6 C    3.842 --    31 H    0.983    30 H    0.975    29 H    0.975
                             4 O    0.871
     6   6 C    3.953 --    24 C    1.398     7 N    1.172     3 C    1.141
     7   7 N    2.987 --     8 C    1.472     6 C    1.172
     8   6 C    3.951 --     7 N    1.472    21 N    1.348     9 C    0.976
     9   6 C    3.935 --    10 C    0.981    11 C    0.981     8 C    0.976
                            12 N    0.929
    10   6 C    3.992 --    33 H    0.986    32 H    0.985    34 H    0.982
                             9 C    0.981
    11   6 C    3.992 --    35 H    0.986    37 H    0.985    36 H    0.982
                             9 C    0.981
    12   7 N    3.374 --    13 C    1.287     9 C    0.929    38 H    0.874
                            14 O    0.185
    13   6 C    3.922 --    14 O    1.572    12 N    1.287    15 C    0.983
    14   8 O    1.891 --    13 C    1.572    12 N    0.185
    15   6 C    3.871 --    16 N    1.617    20 O    1.061    13 C    0.983
    16   7 N    3.011 --    15 C    1.617    17 N    1.194
    17   7 N    2.980 --    18 C    1.612    16 N    1.194
    18   6 C    3.873 --    17 N    1.612    20 O    1.081    19 C    1.030
    19   6 C    3.987 --    18 C    1.030    39 H    0.983    41 H    0.965
                            40 H    0.964
    20   8 O    2.326 --    18 C    1.081    15 C    1.061
    21   7 N    3.021 --     8 C    1.348    22 C    1.263    23 O    0.133
    22   6 C    3.930 --    23 O    1.499    21 N    1.263    24 C    1.035
    23   8 O    1.851 --    22 C    1.499    21 N    0.133
    24   6 C    3.894 --     6 C    1.398    25 O    1.124    22 C    1.035
    25   8 O    2.108 --    24 C    1.124    42 H    0.777
    26   1 H    1.003 --     1 C    0.980
    27   1 H    1.005 --     1 C    0.978
    28   1 H    1.013 --     1 C    0.968
    29   1 H    1.001 --     5 C    0.975
    30   1 H    1.001 --     5 C    0.975
    31   1 H    1.005 --     5 C    0.983
    32   1 H    1.012 --    10 C    0.985
    33   1 H    1.004 --    10 C    0.986
    34   1 H    1.011 --    10 C    0.982
    35   1 H    1.004 --    11 C    0.986
    36   1 H    1.010 --    11 C    0.982
    37   1 H    1.013 --    11 C    0.985
    38   1 H    0.975 --    12 N    0.874
    39   1 H    0.999 --    19 C    0.983
    40   1 H    0.997 --    19 C    0.964
    41   1 H    0.997 --    19 C    0.965
    42   1 H    0.847 --    25 O    0.777
 ---------------------------------------------------------------------------

           -------------------------------------------------
          | TOTAL ENERGY              -82.968907067548 Eh   |
          | GRADIENT NORM               0.000820274664 Eh/α |
          | HOMO-LUMO GAP               1.610811339096 eV   |
           -------------------------------------------------

 * finished run on 2023/06/20 at 18:09:39.429
