   * xtb version 6.5.1 (579679a) compiled by 'ehlert@majestix' on 2022-07-11
          program call               : /lustre/hpc/kemi/ree/PhD/git/ReactivityQM/dep/xtb-6.5.1/bin/xtb --gfn 1 /lustre/hpc/kemi/ree/PhD/git/ReactivityQM/calculations/R01/reac02prodN03/conf01/R01_reac02prodN03_conf01_gfn1.xyz --opt --vfukui --chrg 1 --uhf 0 --alpb DMSO

   ID    Z sym.   atoms
    1    6 C      1, 3, 5, 7-10, 13, 15, 17
    2    8 O      2, 4, 14, 16
    3    7 N      6, 11, 12
    4    1 H      18-33

      * Solvation model:               ALPB
        Solvent                        DMSO
        Solvent mass                       7.8130E+01 g/mol
          :  Hamiltonian                  GFN1-xTB          :
 * total energy  :   -57.8029491 Eh     change       -0.2749800E-11 Eh
 * total energy  :   -57.8165691 Eh     change       -0.1361996E-01 Eh
 * total energy  :   -57.8225702 Eh     change       -0.6001088E-02 Eh
 * total energy  :   -57.8246212 Eh     change       -0.2051009E-02 Eh
 * total energy  :   -57.8274054 Eh     change       -0.2784223E-02 Eh
 * total energy  :   -57.8288057 Eh     change       -0.1400278E-02 Eh
 * total energy  :   -57.8311870 Eh     change       -0.2381371E-02 Eh
 * total energy  :   -57.8349401 Eh     change       -0.3753073E-02 Eh
 * total energy  :   -57.8381392 Eh     change       -0.3199086E-02 Eh
 * total energy  :   -57.8377721 Eh     change        0.3671396E-03 Eh
 * total energy  :   -57.8479540 Eh     change       -0.1095275E-03 Eh
 * total energy  :   -57.8480051 Eh     change       -0.5107594E-04 Eh
 * total energy  :   -57.8480475 Eh     change       -0.4244174E-04 Eh
 * total energy  :   -57.8480723 Eh     change       -0.2481983E-04 Eh
 * total energy  :   -57.8480863 Eh     change       -0.1403602E-04 Eh
 * total energy  :   -57.8480992 Eh     change       -0.1282856E-04 Eh
 * total energy  :   -57.8481062 Eh     change       -0.7031985E-05 Eh
 * total energy  :   -57.8481137 Eh     change       -0.7467209E-05 Eh
 * total energy  :   -57.8481173 Eh     change       -0.3652755E-05 Eh
   *** GEOMETRY OPTIMIZATION CONVERGED AFTER 31 ITERATIONS ***

 final structure:
================
33
 xtb: 6.5.1 (579679a)
C           -2.71048623778363        3.32209035657333       -0.94389952226174
O           -1.73123952018964        2.31368478506358       -0.62963518962862
C           -2.10479763252907        1.10843748953452       -0.41046389822305
O           -3.36631737611892        0.84281807587725       -0.48257655761082
C           -1.08934833375551        0.12670193398845       -0.10092227409678
N            0.18771279592133        0.61979794940370       -0.05480210461081
C            1.16971152695679       -0.18352727033194        0.20404150801057
C            2.57295317911178        0.40135759528559        0.24392071081498
C            3.58051323404884       -0.51053344047299        0.94276900594634
C            3.00145482800962        0.68407989048791       -1.20422056464049
N            2.51348108462099        1.66707115190356        0.96442544967229
N            0.95782300155335       -1.51228078642954        0.41913778243840
C           -0.26988319721648       -2.13508284381618        0.41408159168881
O           -0.36578129705722       -3.32834946201886        0.62624232175185
C           -1.37888070147299       -1.21039022926004        0.12817036221792
O           -2.64408509830038       -1.61252378333186        0.07447206843545
C           -3.04302188176496       -2.97886732177354        0.30786870713091
H           -2.15519685561539        4.24839949300289       -1.07122129519461
H           -3.42402594574861        3.40106073401899       -0.12321633907302
H           -3.23016357853772        3.04625805238455       -1.86219709794233
H            3.75183169778116       -1.41761685362356        0.36545456844464
H            3.22726788850463       -0.77783188453786        1.93746165239726
H            4.52655529179098        0.02091656337368        1.04126557021337
H            2.26644878099247        1.32607427780388       -1.68804731396226
H            3.96784709677877        1.18660409899963       -1.20087672041303
H            3.08081013807107       -0.24702155189431       -1.76299015193822
H            1.78666248918930        2.24115866481027        0.55231826405969
H            2.25016810257792        1.48641906301851        1.92396148816674
H            1.73794794266984       -2.12834576477163        0.60721066529702
H           -3.59463687467383       -0.09605055139178       -0.30106879778541
H           -2.59451341875563       -3.63419850715741       -0.43972630802429
H           -2.74953100782811       -3.29064108867466        1.31065155518952
H           -4.12728412123039       -2.97967083604403        0.21241186352782

          :  Hamiltonian                  GFN1-xTB          :
         :: total energy             -57.848117328358 Eh    ::
         :: gradient norm              0.000592026242 Eh/a0 ::
         :: HOMO-LUMO gap              1.192936519475 eV    ::
         :: SCC energy               -58.420046414740 Eh    ::
         :: -> Gsolv                  -0.093926148529 Eh    ::
         :: repulsion energy           0.590171739238 Eh    ::

    * Orbital Energies and Occupations

         #    Occupation            Energy/Eh            Energy/eV
      -------------------------------------------------------------
         1        2.0000           -0.9101749             -24.7671
       ...           ...                  ...                  ...
        35        2.0000           -0.5489389             -14.9374
        36        2.0000           -0.5421864             -14.7536
        37        2.0000           -0.5401652             -14.6986
        38        2.0000           -0.5241331             -14.2624
        39        2.0000           -0.5195398             -14.1374
        40        2.0000           -0.5143481             -13.9961
        41        2.0000           -0.5136886             -13.9782
        42        2.0000           -0.5045620             -13.7298
        43        2.0000           -0.4966391             -13.5142
        44        2.0000           -0.4846213             -13.1872
        45        2.0000           -0.4771843             -12.9848
        46        2.0000           -0.4573448             -12.4450
        47        2.0000           -0.4260905             -11.5945 (HOMO)
        48                         -0.3822508             -10.4016 (LUMO)
        49                         -0.3103465              -8.4450
        50                         -0.2883120              -7.8454
        51                         -0.1968973              -5.3578
        52                         -0.1648612              -4.4861
        53                         -0.1481105              -4.0303
        54                         -0.1451985              -3.9511
        55                         -0.1344485              -3.6585
        56                         -0.1318694              -3.5883
        57                         -0.1117072              -3.0397
        58                         -0.1007983              -2.7429
       ...                                ...                  ...
       100                          0.6844013              18.6235
      -------------------------------------------------------------
                  HL-Gap            0.0438396 Eh            1.1929 eV

Wiberg/Mayer (AO) data.
largest (>0.10) Wiberg bond orders for each atom

     #   Z sym  total        # sym  WBO       # sym  WBO       # sym  WBO
 ---------------------------------------------------------------------------
     1   6 C    3.821 --    18 H    0.982    19 H    0.972    20 H    0.972
                             2 O    0.853
     2   8 O    2.319 --     3 C    1.285     1 C    0.853
     3   6 C    3.811 --     2 O    1.285     4 O    1.250     5 C    1.119
     4   8 O    2.195 --     3 C    1.250    30 H    0.744
     5   6 C    3.960 --    15 C    1.408     6 N    1.176     3 C    1.119
     6   7 N    3.025 --     7 C    1.564     5 C    1.176
     7   6 C    3.905 --     6 N    1.564    12 N    1.176     8 C    0.968
     8   6 C    3.966 --     9 C    1.001    11 N    0.987    10 C    0.975
                             7 C    0.968
     9   6 C    3.993 --     8 C    1.001    22 H    0.984    21 H    0.982
                            23 H    0.981
    10   6 C    3.992 --    26 H    0.986    24 H    0.985    25 H    0.982
                             8 C    0.975
    11   7 N    2.962 --     8 C    0.987    28 H    0.942    27 H    0.939
    12   7 N    3.479 --     7 C    1.176    13 C    1.139    29 H    0.874
                            14 O    0.140
    13   6 C    3.915 --    14 O    1.607    12 N    1.139    15 C    1.043
    14   8 O    1.937 --    13 C    1.607    12 N    0.140
    15   6 C    3.906 --     5 C    1.408    16 O    1.132    13 C    1.043
    16   8 O    2.246 --    15 C    1.132    17 C    0.856
    17   6 C    3.830 --    33 H    0.983    32 H    0.975    31 H    0.974
                            16 O    0.856
    18   1 H    1.002 --     1 C    0.982
    19   1 H    0.997 --     1 C    0.972
    20   1 H    0.997 --     1 C    0.972
    21   1 H    0.999 --     9 C    0.982
    22   1 H    0.997 --     9 C    0.984
    23   1 H    1.002 --     9 C    0.981
    24   1 H    1.004 --    10 C    0.985
    25   1 H    1.003 --    10 C    0.982
    26   1 H    1.001 --    10 C    0.986
    27   1 H    0.968 --    11 N    0.939
    28   1 H    0.956 --    11 N    0.942
    29   1 H    0.923 --    12 N    0.874
    30   1 H    0.807 --     4 O    0.744
    31   1 H    1.007 --    17 C    0.974
    32   1 H    1.007 --    17 C    0.975
    33   1 H    1.005 --    17 C    0.983
 ---------------------------------------------------------------------------

           -------------------------------------------------
          | TOTAL ENERGY              -57.848117328358 Eh   |
          | GRADIENT NORM               0.000592026242 Eh/α |
          | HOMO-LUMO GAP               1.192936519475 eV   |
           -------------------------------------------------

 * finished run on 2023/06/20 at 15:05:04.770
