   * xtb version 6.5.1 (579679a) compiled by 'ehlert@majestix' on 2022-07-11
          program call               : /lustre/hpc/kemi/ree/PhD/git/ReactivityQM/dep/xtb-6.5.1/bin/xtb --gfn 1 /lustre/hpc/kemi/ree/PhD/git/ReactivityQM/calculations/R02oxygendeprot/reac01prodN17/conf19/R02oxygendeprot_reac01prodN17_conf19_gfn1.xyz --opt --vfukui --chrg 0 --uhf 0 --alpb DMSO

   ID    Z sym.   atoms
    1    6 C      1, 3, 5, 7-10, 12, 13, 15, 18, 19, 22, 24
    2    8 O      2, 4, 14, 20, 23, 25
    3    7 N      6, 11, 16, 17, 21
    4    1 H      26-42

      * Solvation model:               ALPB
        Solvent                        DMSO
        Solvent mass                       7.8130E+01 g/mol
          :  Hamiltonian                  GFN1-xTB          :
 * total energy  :   -82.9280502 Eh     change       -0.1313467E-08 Eh
 * total energy  :   -82.9430868 Eh     change       -0.1503658E-01 Eh
 * total energy  :   -82.9488252 Eh     change       -0.5738414E-02 Eh
 * total energy  :   -82.9498358 Eh     change       -0.1010650E-02 Eh
 * total energy  :   -82.9503524 Eh     change       -0.5165659E-03 Eh
 * total energy  :   -82.9506342 Eh     change       -0.2818011E-03 Eh
 * total energy  :   -82.9508636 Eh     change       -0.2294111E-03 Eh
 * total energy  :   -82.9510916 Eh     change       -0.2280226E-03 Eh
 * total energy  :   -82.9513156 Eh     change       -0.2239595E-03 Eh
 * total energy  :   -82.9514933 Eh     change       -0.1776752E-03 Eh
 * total energy  :   -82.9535797 Eh     change       -0.1852991E-04 Eh
 * total energy  :   -82.9535937 Eh     change       -0.1400351E-04 Eh
 * total energy  :   -82.9536044 Eh     change       -0.1072066E-04 Eh
 * total energy  :   -82.9536118 Eh     change       -0.7350042E-05 Eh
 * total energy  :   -82.9536181 Eh     change       -0.6343638E-05 Eh
 * total energy  :   -82.9536251 Eh     change       -0.7008238E-05 Eh
 * total energy  :   -82.9536321 Eh     change       -0.7021453E-05 Eh
 * total energy  :   -82.9536380 Eh     change       -0.5810467E-05 Eh
 * total energy  :   -82.9536427 Eh     change       -0.4719323E-05 Eh
   *** GEOMETRY OPTIMIZATION CONVERGED AFTER 60 ITERATIONS ***

 final structure:
================
42
 xtb: 6.5.1 (579679a)
C            6.69410411476079        0.57293921942907       -1.09415974624489
O            5.53905049469476        0.85159313715634       -0.30888678602423
C            4.42870249800718        0.15771711096695       -0.62424396870499
O            4.42566128107303       -0.66333674150142       -1.52891485542384
C            3.25834633328943        0.47478846801637        0.19935563052576
N            2.15470915223597       -0.25756335312765       -0.15043173061607
C            1.04367930008003       -0.13525060724885        0.48644674959673
C           -0.14444879696350       -0.95506544282306        0.06588093066668
C           -0.97634161158343       -1.43573864664908        1.25063053700241
C            0.28877773863861       -2.12093973375182       -0.81263128291700
N           -1.05079820259814        0.01972041806184       -0.75176728319560
C           -0.41370809122163        0.50683823489625       -2.00248246441390
C           -2.38112687348517       -0.58308390307042       -1.07795039838654
O           -2.47985649896870       -1.40709078824167       -1.93917667140322
C           -3.40111510435776       -0.00526177510118       -0.24024096151564
N           -3.20240405891424        0.93415458109686        0.65336921822501
N           -4.39582255113244        1.20694137696155        1.20494096690443
C           -5.27077425641813        0.42488082434607        0.62382514648470
C           -6.71995816984044        0.34345208642022        0.88618420732978
O           -4.69824217738154       -0.35630592201256       -0.29508068241861
N            0.89112026548836        0.77690420854531        1.51151031408266
C            1.90637870767167        1.59590113962289        1.95637395265283
O            1.69199968106722        2.38714636903597        2.86341756660846
C            3.23970973577455        1.43316351492277        1.25403332009093
O            4.19357676250440        2.12695949836341        1.62760437799938
H            7.49244623149622        1.21387761018843       -0.72283459368695
H            6.50082599691853        0.78977196537477       -2.14876200166321
H            6.98095705208823       -0.47815259602861       -0.99494816360817
H           -1.44864705929528       -0.60250375131232        1.76737433846992
H           -0.32561248463612       -1.96032632562180        1.94903917508551
H           -1.75404012401892       -2.12002571889376        0.91584694578399
H            0.95528743365811       -1.78376486808118       -1.60482848324762
H           -0.57078506606879       -2.62581476182039       -1.24561136562683
H            0.83243198167183       -2.82856715191775       -0.18758440612235
H           -1.22874170927650        0.81967288051827       -0.13551655083775
H            0.61737955676233        0.77482498038313       -1.78009321130540
H           -0.45691994938851       -0.28251973328383       -2.74835937639626
H           -0.97385178760276        1.37500219576293       -2.33967940133127
H           -6.97310281670458       -0.65564667237717        1.24230505538445
H           -7.00246205914429        1.08102208246937        1.63297589497583
H           -7.27306987874829        0.51807203871985       -0.03648709902967
H            0.00668500986647        0.87161155159762        1.97953015624646

          :  Hamiltonian                  GFN1-xTB          :
         :: total energy             -82.953642672159 Eh    ::
         :: gradient norm              0.000668206892 Eh/a0 ::
         :: HOMO-LUMO gap              0.378810886337 eV    ::
         :: SCC energy               -83.728115772593 Eh    ::
         :: -> Gsolv                  -0.092195892739 Eh    ::
         :: repulsion energy           0.802250158541 Eh    ::

    * Orbital Energies and Occupations

         #    Occupation            Energy/Eh            Energy/eV
      -------------------------------------------------------------
         1        2.0000           -0.8946165             -24.3438
       ...           ...                  ...                  ...
        55        2.0000           -0.5184023             -14.1064
        56        2.0000           -0.5101252             -13.8812
        57        2.0000           -0.5048449             -13.7375
        58        2.0000           -0.4975565             -13.5392
        59        2.0000           -0.4853811             -13.2079
        60        2.0000           -0.4833753             -13.1533
        61        2.0000           -0.4773287             -12.9888
        62        2.0000           -0.4760819             -12.9548
        63        2.0000           -0.4627846             -12.5930
        64        2.0000           -0.4522913             -12.3075
        65        2.0000           -0.4409979             -12.0002
        66        2.0000           -0.3988406             -10.8530
        67        1.9987           -0.3878747             -10.5546 (HOMO)
        68        0.0013           -0.3739537             -10.1758 (LUMO)
        69                         -0.2874496              -7.8219
        70                         -0.2843772              -7.7383
        71                         -0.2721939              -7.4068
        72                         -0.2483456              -6.7578
        73                         -0.2140535              -5.8247
        74                         -0.1626520              -4.4260
        75                         -0.1528110              -4.1582
        76                         -0.1492640              -4.0617
        77                         -0.1416982              -3.8558
        78                         -0.1322710              -3.5993
       ...                                ...                  ...
       134                          0.7516213              20.4527
      -------------------------------------------------------------
                  HL-Gap            0.0139210 Eh            0.3788 eV

Wiberg/Mayer (AO) data.
largest (>0.10) Wiberg bond orders for each atom

     #   Z sym  total        # sym  WBO       # sym  WBO       # sym  WBO
 ---------------------------------------------------------------------------
     1   6 C    3.890 --    26 H    0.987    27 H    0.980    28 H    0.980
                             2 O    0.915
     2   8 O    2.175 --     3 C    1.074     1 C    0.915     4 O    0.117
     3   6 C    3.849 --     4 O    1.597     5 C    1.078     2 O    1.074
     4   8 O    1.862 --     3 C    1.597     2 O    0.117
     5   6 C    3.872 --    24 C    1.238     6 N    1.203     3 C    1.078
                            25 O    0.112
     6   7 N    3.042 --     7 C    1.578     5 C    1.203
     7   6 C    3.930 --     6 N    1.578    21 N    1.095     8 C    0.994
     8   6 C    3.878 --    10 C    1.008     9 C    1.003     7 C    0.994
                            11 N    0.794
     9   6 C    3.987 --     8 C    1.003    31 H    0.978    29 H    0.977
                            30 H    0.977
    10   6 C    3.984 --     8 C    1.008    33 H    0.980    32 H    0.977
                            34 H    0.976
    11   7 N    3.591 --    12 C    0.901    35 H    0.883    13 C    0.877
                             8 C    0.794
    12   6 C    3.886 --    38 H    0.982    37 H    0.981    36 H    0.976
                            11 N    0.901
    13   6 C    3.848 --    14 O    1.746    15 C    1.085    11 N    0.877
    14   8 O    2.016 --    13 C    1.746
    15   6 C    3.884 --    16 N    1.511    13 C    1.085    20 O    1.059
    16   7 N    3.024 --    15 C    1.511    17 N    1.265
    17   7 N    2.985 --    18 C    1.533    16 N    1.265
    18   6 C    3.844 --    17 N    1.533    20 O    1.103    19 C    1.039
    19   6 C    3.979 --    18 C    1.039    40 H    0.980    41 H    0.956
                            39 H    0.953
    20   8 O    2.343 --    18 C    1.103    15 C    1.059
    21   7 N    3.416 --    22 C    1.140     7 C    1.095    42 H    0.893
                            23 O    0.134
    22   6 C    3.868 --    23 O    1.608    21 N    1.140    24 C    0.958
    23   8 O    1.879 --    22 C    1.608    21 N    0.134
    24   6 C    3.928 --    25 O    1.558     5 C    1.238    22 C    0.958
    25   8 O    1.835 --    24 C    1.558     5 C    0.112
    26   1 H    1.014 --     1 C    0.987
    27   1 H    1.011 --     1 C    0.980
    28   1 H    1.011 --     1 C    0.980
    29   1 H    1.003 --     9 C    0.977
    30   1 H    0.996 --     9 C    0.977
    31   1 H    0.996 --     9 C    0.978
    32   1 H    1.013 --    10 C    0.977
    33   1 H    1.003 --    10 C    0.980
    34   1 H    1.000 --    10 C    0.976
    35   1 H    0.958 --    11 N    0.883
    36   1 H    1.003 --    12 C    0.976
    37   1 H    0.998 --    12 C    0.981
    38   1 H    0.991 --    12 C    0.982
    39   1 H    0.991 --    19 C    0.953
    40   1 H    0.995 --    19 C    0.980
    41   1 H    0.992 --    19 C    0.956
    42   1 H    0.940 --    21 N    0.893
 ---------------------------------------------------------------------------

           -------------------------------------------------
          | TOTAL ENERGY              -82.953642672159 Eh   |
          | GRADIENT NORM               0.000668206892 Eh/α |
          | HOMO-LUMO GAP               0.378810886337 eV   |
           -------------------------------------------------

 * finished run on 2023/06/21 at 17:37:47.576
