                         Program Version 5.0.1 -  RELEASE  -
|  1> # ORCA input file
|  2> ! SP r2SCAN-3c CPCM
|  3>
|  4> %maxcore 1875.0
|  5> %pal nprocs 4 end
|  6> %cpcm smd true SMDsolvent "DMSO" end
|  7>
|  8> *xyz 1 1
|  9> C       3.526794   -0.912603   -0.519366
| 10> O       2.084997   -0.901965   -0.475574
| 11> C       1.504645    0.197704   -0.089242
| 12> O       2.023789    1.228155    0.245960
| 13> C       0.004359    0.074503   -0.092427
| 14> O      -0.686778   -0.999261   -0.431845
| 15> C      -1.978555   -0.668624   -0.291665
| 16> C      -3.047397   -1.635641   -0.586891
| 17> N      -2.101375    0.565083    0.120120
| 18> N      -0.848029    1.018403    0.239835
| 19> C      -0.592264    2.373507    0.680148
| 20> H       3.922371   -0.641560    0.460169
| 21> H       3.869994   -0.198662   -1.269166
| 22> H       3.809972   -1.926974   -0.789198
| 23> H      -4.018170   -1.180284   -0.406920
| 24> H      -2.927174   -2.518588    0.042164
| 25> H      -2.973590   -1.957286   -1.626535
| 26> H      -1.548983    2.862631    0.838953
| 27> H      -0.011677    2.884399   -0.086202
| 28> H      -0.012927    2.337064    1.601336
| 29> **                         ****END OF INPUT****

CARTESIAN COORDINATES (ANGSTROEM)
---------------------------------
  C      3.526794   -0.912603   -0.519366
  O      2.084997   -0.901965   -0.475574
  C      1.504645    0.197704   -0.089242
  O      2.023789    1.228155    0.245960
  C      0.004359    0.074503   -0.092427
  O     -0.686778   -0.999261   -0.431845
  C     -1.978555   -0.668624   -0.291665
  C     -3.047397   -1.635641   -0.586891
  N     -2.101375    0.565083    0.120120
  N     -0.848029    1.018403    0.239835
  C     -0.592264    2.373507    0.680148
  H      3.922371   -0.641560    0.460169
  H      3.869994   -0.198662   -1.269166
  H      3.809972   -1.926974   -0.789198
  H     -4.018170   -1.180284   -0.406920
  H     -2.927174   -2.518588    0.042164
  H     -2.973590   -1.957286   -1.626535
  H     -1.548983    2.862631    0.838953
  H     -0.011677    2.884399   -0.086202
  H     -0.012927    2.337064    1.601336

 Total Charge           Charge          ....    1
 Multiplicity           Mult            ....    1
 Number of Electrons    NEL             ....   82
 Basis Dimension        Dim             ....  279

ORBITAL ENERGIES
----------------

  NO   OCC          E(Eh)            E(eV)
   0   2.0000     -19.117797      -520.2217
   1   2.0000     -19.044195      -518.2189
   2   2.0000     -18.984082      -516.5831
   3   2.0000     -14.337523      -390.1438
   4   2.0000     -14.252678      -387.8351
   5   2.0000     -10.219372      -278.0832
   6   2.0000     -10.217182      -278.0236
   7   2.0000     -10.195627      -277.4371
   8   2.0000     -10.096526      -274.7404
   9   2.0000     -10.093908      -274.6692
  10   2.0000     -10.062757      -273.8215
  11   2.0000      -1.221033       -33.2260
  12   2.0000      -1.124311       -30.5941
  13   2.0000      -1.066511       -29.0213
  14   2.0000      -1.035438       -28.1757
  15   2.0000      -0.904949       -24.6249
  16   2.0000      -0.786660       -21.4061
  17   2.0000      -0.758266       -20.6335
  18   2.0000      -0.733471       -19.9588
  19   2.0000      -0.678252       -18.4562
  20   2.0000      -0.654820       -17.8185
  21   2.0000      -0.606223       -16.4962
  22   2.0000      -0.556845       -15.1525
  23   2.0000      -0.549351       -14.9486
  24   2.0000      -0.521914       -14.2020
  25   2.0000      -0.484892       -13.1946
  26   2.0000      -0.480502       -13.0751
  27   2.0000      -0.464381       -12.6364
  28   2.0000      -0.457442       -12.4476
  29   2.0000      -0.444984       -12.1086
  30   2.0000      -0.420474       -11.4417
  31   2.0000      -0.412594       -11.2272
  32   2.0000      -0.403051       -10.9676
  33   2.0000      -0.395819       -10.7708
  34   2.0000      -0.394062       -10.7230
  35   2.0000      -0.372020       -10.1232
  36   2.0000      -0.355603        -9.6765
  37   2.0000      -0.342582        -9.3221
  38   2.0000      -0.313143        -8.5211
  39   2.0000      -0.305361        -8.3093
  40   2.0000      -0.297347        -8.0912
  41   0.0000      -0.142028        -3.8648
  42   0.0000      -0.065840        -1.7916
  43   0.0000      -0.000184        -0.0050
  44   0.0000       0.035211         0.9581
  45   0.0000       0.051371         1.3979

MULLIKEN ATOMIC CHARGES
-----------------------
   0 C :   -0.295605
   1 O :   -0.167898
   2 C :    0.144515
   3 O :   -0.388620
   4 C :    0.245727
   5 O :    0.038622
   6 C :    0.467008
   7 C :   -0.616250
   8 N :   -0.436722
   9 N :    0.551157
  10 C :   -0.434679
  11 H :    0.191246
  12 H :    0.193194
  13 H :    0.194176
  14 H :    0.219521
  15 H :    0.218250
  16 H :    0.218270
  17 H :    0.215653
  18 H :    0.220763
  19 H :    0.221674
Sum of atomic charges:    1.0000000

LOEWDIN ATOMIC CHARGES
----------------------
   0 C :   -0.012980
   1 O :   -0.530170
   2 C :    0.414967
   3 O :   -0.363180
   4 C :    0.515971
   5 O :   -0.299887
   6 C :    0.433989
   7 C :   -0.297821
   8 N :   -0.209419
   9 N :   -0.486200
  10 C :   -0.016639
  11 H :    0.192978
  12 H :    0.192918
  13 H :    0.197186
  14 H :    0.201426
  15 H :    0.204752
  16 H :    0.204769
  17 H :    0.218538
  18 H :    0.219499
  19 H :    0.219302

  Mayer bond orders larger than 0.100000
B(  0-C ,  1-O ) :   0.8138 B(  0-C , 11-H ) :   0.9477 B(  0-C , 12-H ) :   0.9450
B(  0-C , 13-H ) :   0.9549 B(  1-O ,  2-C ) :   1.1894 B(  2-C ,  3-O ) :   1.8135
B(  2-C ,  4-C ) :   0.9503 B(  4-C ,  5-O ) :   1.1642 B(  4-C ,  8-N ) :   0.1854
B(  4-C ,  9-N ) :   1.5750 B(  5-O ,  6-C ) :   1.0747 B(  6-C ,  7-C ) :   0.8697
B(  6-C ,  8-N ) :   1.5093 B(  7-C , 14-H ) :   0.9721 B(  7-C , 15-H ) :   0.9264
B(  7-C , 16-H ) :   0.9260 B(  8-N ,  9-N ) :   1.2764 B(  9-N , 10-C ) :   0.9156
B( 10-C , 17-H ) :   0.9323 B( 10-C , 18-H ) :   0.9129 B( 10-C , 19-H ) :   0.9121

Dispersion correction           -0.005943333
FINAL SINGLE POINT ENERGY      -568.940813273745

DIPOLE MOMENT
-------------
                                X             Y             Z
Electronic contribution:     -0.66662       0.13500       0.09349
Nuclear contribution   :     -0.21693      -0.54717      -0.21555
                        -----------------------------------------
Total Dipole Moment    :     -0.88356      -0.41217      -0.12206
                        -----------------------------------------
Magnitude (a.u.)       :      0.98258
Magnitude (Debye)      :      2.49751

Rotational constants in cm-1:     0.066318     0.026308     0.019038
Rotational constants in MHz :  1988.167912   788.697839   570.758820

                             ****ORCA TERMINATED NORMALLY****
TOTAL RUN TIME: 0 days 0 hours 0 minutes 31 seconds 567 msec
