   * xtb version 6.5.1 (579679a) compiled by 'ehlert@majestix' on 2022-07-11
          program call               : /lustre/hpc/kemi/ree/PhD/git/ReactivityQM/dep/xtb-6.5.1/bin/xtb --gfn 1 /lustre/hpc/kemi/ree/PhD/git/ReactivityQM/calculations/R01/reac01prodN03/conf04/R01_reac01prodN03_conf04_gfn1.xyz --opt --vfukui --chrg 1 --uhf 0 --alpb DMSO

   ID    Z sym.   atoms
    1    6 C      1, 3, 5, 7, 8, 11
    2    8 O      2, 4, 6
    3    7 N      9, 10
    4    1 H      12-20

      * Solvation model:               ALPB
        Solvent                        DMSO
        Solvent mass                       7.8130E+01 g/mol
          :  Hamiltonian                  GFN1-xTB          :
 * total energy  :   -37.6223373 Eh     change       -0.5478284E-11 Eh
 * total energy  :   -37.6370338 Eh     change       -0.1469654E-01 Eh
 * total energy  :   -37.6420270 Eh     change       -0.4993156E-02 Eh
 * total energy  :   -37.6433203 Eh     change       -0.1293278E-02 Eh
 * total energy  :   -37.6442735 Eh     change       -0.9532061E-03 Eh
 * total energy  :   -37.6446754 Eh     change       -0.4019599E-03 Eh
 * total energy  :   -37.6449505 Eh     change       -0.2750307E-03 Eh
 * total energy  :   -37.6451403 Eh     change       -0.1897968E-03 Eh
 * total energy  :   -37.6451943 Eh     change       -0.5408976E-04 Eh
 * total energy  :   -37.6452023 Eh     change       -0.7940886E-05 Eh
 * total energy  :   -37.6455779 Eh     change       -0.1341797E-04 Eh
 * total energy  :   -37.6455868 Eh     change       -0.8910462E-05 Eh
 * total energy  :   -37.6455975 Eh     change       -0.1069697E-04 Eh
 * total energy  :   -37.6456031 Eh     change       -0.5631008E-05 Eh
 * total energy  :   -37.6456077 Eh     change       -0.4552791E-05 Eh
 * total energy  :   -37.6456154 Eh     change       -0.7733000E-05 Eh
 * total energy  :   -37.6456087 Eh     change        0.6748064E-05 Eh
 * total energy  :   -37.6456264 Eh     change       -0.1775338E-04 Eh
 * total energy  :   -37.6456281 Eh     change       -0.1666066E-05 Eh
   *** GEOMETRY OPTIMIZATION CONVERGED AFTER 45 ITERATIONS ***

 final structure:
================
20
 xtb: 6.5.1 (579679a)
C            3.52679412415306       -0.91260301037846       -0.51936559346168
O            2.08499674993382       -0.90196476264680       -0.47557409981798
C            1.50464481385052        0.19770427897696       -0.08924224092581
O            2.02378898202476        1.22815549757211        0.24596034366908
C            0.00435882976884        0.07450279228355       -0.09242724596448
O           -0.68677848186631       -0.99926128168362       -0.43184548499965
C           -1.97855542516010       -0.66862423377225       -0.29166471263064
C           -3.04739697219847       -1.63564075873735       -0.58689130995466
N           -2.10137525129988        0.56508348321553        0.12011961100840
N           -0.84802911163976        1.01840290630887        0.23983473249874
C           -0.59226381894888        2.37350679902590        0.68014784343985
H            3.92237072746647       -0.64155998702547        0.46016934852602
H            3.86999385343412       -0.19866234453680       -1.26916618687567
H            3.80997158859610       -1.92697426042059       -0.78919809666545
H           -4.01816957545586       -1.18028382351803       -0.40691983705976
H           -2.92717378994383       -2.51858819610525        0.04216403746875
H           -2.97358991809797       -1.95728626664105       -1.62653463562820
H           -1.54898287237384        2.86263063741803        0.83895312150119
H           -0.01167713165335        2.88439860297074       -0.08620166004803
H           -0.01292732058937        2.33706392769325        1.60133606591985

          :  Hamiltonian                  GFN1-xTB          :
         :: total energy             -37.645628069633 Eh    ::
         :: gradient norm              0.000489969093 Eh/a0 ::
         :: HOMO-LUMO gap              3.635715418692 eV    ::
         :: SCC energy               -38.000707390444 Eh    ::
         :: -> Gsolv                  -0.077632916018 Eh    ::
         :: repulsion energy           0.363211739459 Eh    ::

    * Orbital Energies and Occupations

         #    Occupation            Energy/Eh            Energy/eV
      -------------------------------------------------------------
         1        2.0000           -0.9442229             -25.6936
       ...           ...                  ...                  ...
        18        2.0000           -0.6264711             -17.0471
        19        2.0000           -0.6066214             -16.5070
        20        2.0000           -0.6042796             -16.4433
        21        2.0000           -0.5962380             -16.2245
        22        2.0000           -0.5878706             -15.9968
        23        2.0000           -0.5752513             -15.6534
        24        2.0000           -0.5695267             -15.4976
        25        2.0000           -0.5604905             -15.2517
        26        2.0000           -0.5499798             -14.9657
        27        2.0000           -0.5441991             -14.8084
        28        2.0000           -0.5334089             -14.5148
        29        2.0000           -0.5320966             -14.4791
        30        2.0000           -0.5217216             -14.1968 (HOMO)
        31                         -0.3881115             -10.5611 (LUMO)
        32                         -0.3294516              -8.9648
        33                         -0.2701490              -7.3511
        34                         -0.1734807              -4.7207
        35                         -0.1697218              -4.6184
        36                         -0.1565708              -4.2605
        37                         -0.1090514              -2.9674
        38                         -0.1049265              -2.8552
        39                         -0.1004504              -2.7334
        40                         -0.1001925              -2.7264
        41                         -0.0920086              -2.5037
       ...                                ...                  ...
        62                          0.7175813              19.5264
      -------------------------------------------------------------
                  HL-Gap            0.1336101 Eh            3.6357 eV

Wiberg/Mayer (AO) data.
largest (>0.10) Wiberg bond orders for each atom

     #   Z sym  total        # sym  WBO       # sym  WBO       # sym  WBO
 ---------------------------------------------------------------------------
     1   6 C    3.827 --    14 H    0.983    12 H    0.976    13 H    0.975
                             2 O    0.857
     2   8 O    2.259 --     3 C    1.193     1 C    0.857     4 O    0.160
     3   6 C    3.884 --     4 O    1.672     2 O    1.193     5 C    0.947
     4   8 O    1.976 --     3 C    1.672     2 O    0.160
     5   6 C    3.855 --    10 N    1.450     6 O    1.136     3 C    0.947
     6   8 O    2.387 --     5 C    1.136     7 C    1.084
     7   6 C    3.837 --     9 N    1.549     6 O    1.084     8 C    1.045
     8   6 C    3.967 --     7 C    1.045    15 H    0.977    16 H    0.947
                            17 H    0.947
     9   7 N    2.967 --     7 C    1.549    10 N    1.177
    10   7 N    3.669 --     5 C    1.450     9 N    1.177    11 C    0.907
    11   6 C    3.874 --    18 H    0.979    19 H    0.961    20 H    0.960
                            10 N    0.907
    12   1 H    0.998 --     1 C    0.976
    13   1 H    0.998 --     1 C    0.975
    14   1 H    1.003 --     1 C    0.983
    15   1 H    0.990 --     8 C    0.977
    16   1 H    0.987 --     8 C    0.947
    17   1 H    0.987 --     8 C    0.947
    18   1 H    0.992 --    11 C    0.979
    19   1 H    0.995 --    11 C    0.961
    20   1 H    0.994 --    11 C    0.960
 ---------------------------------------------------------------------------

           -------------------------------------------------
          | TOTAL ENERGY              -37.645628069633 Eh   |
          | GRADIENT NORM               0.000489969093 Eh/α |
          | HOMO-LUMO GAP               3.635715418692 eV   |
           -------------------------------------------------

 * finished run on 2023/06/20 at 14:55:27.136
