   * xtb version 6.5.1 (579679a) compiled by 'ehlert@majestix' on 2022-07-11
          program call               : /lustre/hpc/kemi/ree/PhD/git/ReactivityQM/dep/xtb-6.5.1/bin/xtb --gfn 1 /lustre/hpc/kemi/ree/PhD/git/ReactivityQM/calculations/R02/reac01prodN03/conf17/R02_reac01prodN03_conf17_gfn1.xyz --opt --vfukui --chrg 1 --uhf 0 --alpb DMSO

   ID    Z sym.   atoms
    1    6 C      1, 3, 5, 6, 8-11, 13, 15, 18, 19, 22, 24
    2    8 O      2, 4, 14, 20, 23, 25
    3    7 N      7, 12, 16, 17, 21
    4    1 H      26-43

      * Solvation model:               ALPB
        Solvent                        DMSO
        Solvent mass                       7.8130E+01 g/mol
          :  Hamiltonian                  GFN1-xTB          :
 * total energy  :   -83.1196444 Eh     change       -0.5954348E-11 Eh
 * total energy  :   -83.1467901 Eh     change       -0.2714572E-01 Eh
 * total energy  :   -83.1562261 Eh     change       -0.9435995E-02 Eh
 * total energy  :   -83.1593257 Eh     change       -0.3099536E-02 Eh
 * total energy  :   -83.1610803 Eh     change       -0.1754689E-02 Eh
 * total energy  :   -83.1616308 Eh     change       -0.5504911E-03 Eh
 * total energy  :   -83.1619238 Eh     change       -0.2929794E-03 Eh
 * total energy  :   -83.1620960 Eh     change       -0.1721592E-03 Eh
 * total energy  :   -83.1621960 Eh     change       -0.1000106E-03 Eh
 * total energy  :   -83.1622789 Eh     change       -0.8291694E-04 Eh
 * total energy  :   -83.1636461 Eh     change       -0.1173006E-04 Eh
 * total energy  :   -83.1636593 Eh     change       -0.1319691E-04 Eh
 * total energy  :   -83.1636728 Eh     change       -0.1349808E-04 Eh
 * total energy  :   -83.1636856 Eh     change       -0.1280781E-04 Eh
 * total energy  :   -83.1636982 Eh     change       -0.1265805E-04 Eh
 * total energy  :   -83.1637129 Eh     change       -0.1472460E-04 Eh
 * total energy  :   -83.1637107 Eh     change        0.2255287E-05 Eh
 * total energy  :   -83.1637276 Eh     change       -0.1690710E-04 Eh
 * total energy  :   -83.1637313 Eh     change       -0.3701064E-05 Eh
   *** GEOMETRY OPTIMIZATION CONVERGED AFTER 55 ITERATIONS ***

 final structure:
================
43
 xtb: 6.5.1 (579679a)
C           -0.56507030930997        1.93400313500875       -0.82301938280427
O           -1.99877448989597        1.87518482880315       -0.89458084536929
C           -2.75212030036590        0.94654702599978       -0.41935142845955
O           -4.02074725013119        1.14436195972499       -0.49865404653054
C           -4.53189381830637        2.35876502032116       -1.07785721836949
C           -2.30996465883347       -0.28833066531923        0.20036304775382
N           -0.98488231156010       -0.63539294972799        0.04861609036142
C           -0.53084779451104       -1.71004409654135        0.59994189114624
C            0.90294518510467       -2.16946008962353        0.41078023919542
C            1.57115370522499       -2.46168155276035        1.76315905105030
C            0.89806212099172       -3.41951065322337       -0.47869682238306
N            1.66527036251333       -1.14405842032143       -0.28996967723848
C            1.88800608577689        0.08778073584927        0.21430497839140
O            1.40808246198825        0.52259953600289        1.24768188646009
C            2.77016417214635        0.87455862015866       -0.68035154152460
N            3.39955772687686        0.42838507840209       -1.72528550987314
N            4.08477597241266        1.48067251200318       -2.24971205945475
C            3.82650763250743        2.50591265262468       -1.49433560790021
C            4.32416662887701        3.89016641393929       -1.64968950831319
O            3.00011873233524        2.18624628706117       -0.48626765306924
N           -1.32615884969024       -2.53707616145739        1.34658088376415
C           -2.65914943157009       -2.31486268099015        1.56051403408268
O           -3.37260200233936       -3.04687213087936        2.21756222640435
C           -3.16988160547966       -1.09508817144876        0.91722063836397
O           -4.44999090012895       -0.84427241987432        1.10299795664575
H           -0.13153878942450        1.14494657912120       -1.43670290855080
H           -0.29597292375365        2.91520756165094       -1.21089614200578
H           -0.23864498397694        1.82283239838945        0.21135641956767
H           -4.17351153342975        3.21328988711206       -0.50320888820358
H           -4.19368719645781        2.43901244135102       -2.11120242248545
H           -5.61511153531790        2.27818785966567       -1.02621646175586
H            2.62815580353695       -2.66460446161901        1.59963471079308
H            1.46820378441678       -1.60581546100772        2.42838667166785
H            1.11743468446370       -3.33359652737884        2.22877821769589
H            0.44855658073654       -3.19070422997201       -1.44358555762022
H            1.91957512862636       -3.76336876317720       -0.63062476977858
H            0.32740180043104       -4.21468952798555       -0.00366722251979
H            2.13857102667077       -1.40768209085782       -1.14083278314582
H            3.50195605863025        4.55019292890958       -1.92605823501817
H            4.73896670045400        4.24471387325191       -0.70713276848455
H            5.08632055651167        3.92032357693167       -2.42441832235768
H           -0.94565411585098       -3.37418963805218        1.76516374903640
H           -4.84774811090459       -1.54259022007112        1.66263509085014

          :  Hamiltonian                  GFN1-xTB          :
         :: total energy             -83.163731297984 Eh    ::
         :: gradient norm              0.000648060899 Eh/a0 ::
         :: HOMO-LUMO gap              2.080408684645 eV    ::
         :: SCC energy               -83.958302628768 Eh    ::
         :: -> Gsolv                  -0.102345405575 Eh    ::
         :: repulsion energy           0.822398508838 Eh    ::

    * Orbital Energies and Occupations

         #    Occupation            Energy/Eh            Energy/eV
      -------------------------------------------------------------
         1        2.0000           -0.9134623             -24.8566
       ...           ...                  ...                  ...
        55        2.0000           -0.5330635             -14.5054
        56        2.0000           -0.5240450             -14.2600
        57        2.0000           -0.5219944             -14.2042
        58        2.0000           -0.5153115             -14.0223
        59        2.0000           -0.5135866             -13.9754
        60        2.0000           -0.4958756             -13.4935
        61        2.0000           -0.4911362             -13.3645
        62        2.0000           -0.4824025             -13.1268
        63        2.0000           -0.4771732             -12.9845
        64        2.0000           -0.4718168             -12.8388
        65        2.0000           -0.4651125             -12.6564
        66        2.0000           -0.4606183             -12.5341
        67        2.0000           -0.4581563             -12.4671 (HOMO)
        68                         -0.3817027             -10.3867 (LUMO)
        69                         -0.3211921              -8.7401
        70                         -0.3169258              -8.6240
        71                         -0.2930420              -7.9741
        72                         -0.2638738              -7.1804
        73                         -0.2102343              -5.7208
        74                         -0.2002552              -5.4492
        75                         -0.1673082              -4.5527
        76                         -0.1534676              -4.1761
        77                         -0.1528385              -4.1589
        78                         -0.1454504              -3.9579
       ...                                ...                  ...
       136                          0.7077422              19.2586
      -------------------------------------------------------------
                  HL-Gap            0.0764536 Eh            2.0804 eV

Wiberg/Mayer (AO) data.
largest (>0.10) Wiberg bond orders for each atom

     #   Z sym  total        # sym  WBO       # sym  WBO       # sym  WBO
 ---------------------------------------------------------------------------
     1   6 C    3.811 --    27 H    0.980    26 H    0.971    28 H    0.966
                             2 O    0.846
     2   8 O    2.310 --     3 C    1.258     1 C    0.846
     3   6 C    3.815 --     4 O    1.264     2 O    1.258     6 C    1.107
     4   8 O    2.311 --     3 C    1.264     5 C    0.854
     5   6 C    3.823 --    31 H    0.982    30 H    0.973    29 H    0.972
                             4 O    0.854
     6   6 C    3.957 --    24 C    1.432     7 N    1.155     3 C    1.107
     7   7 N    3.033 --     8 C    1.592     6 C    1.155
     8   6 C    3.920 --     7 N    1.592    21 N    1.159     9 C    0.979
     9   6 C    3.938 --    11 C    0.980     8 C    0.979    10 C    0.978
                            12 N    0.939
    10   6 C    3.985 --    32 H    0.982    34 H    0.981    33 H    0.980
                             9 C    0.978
    11   6 C    3.986 --    35 H    0.983    37 H    0.982    36 H    0.980
                             9 C    0.980
    12   7 N    3.342 --    13 C    1.249     9 C    0.939    38 H    0.890
                            14 O    0.173
    13   6 C    3.916 --    14 O    1.585    12 N    1.249    15 C    0.993
    14   8 O    1.906 --    13 C    1.585    12 N    0.173
    15   6 C    3.878 --    16 N    1.608    20 O    1.063    13 C    0.993
    16   7 N    3.019 --    15 C    1.608    17 N    1.204
    17   7 N    2.982 --    18 C    1.602    16 N    1.204
    18   6 C    3.868 --    17 N    1.602    20 O    1.081    19 C    1.032
    19   6 C    3.985 --    18 C    1.032    41 H    0.981    40 H    0.966
                            39 H    0.959
    20   8 O    2.328 --    18 C    1.081    15 C    1.063
    21   7 N    3.475 --     8 C    1.159    22 C    1.152    42 H    0.873
                            23 O    0.142
    22   6 C    3.914 --    23 O    1.611    21 N    1.152    24 C    1.030
    23   8 O    1.937 --    22 C    1.611    21 N    0.142
    24   6 C    3.912 --     6 C    1.432    25 O    1.173    22 C    1.030
    25   8 O    2.144 --    24 C    1.173    43 H    0.782
    26   1 H    1.018 --     1 C    0.971
    27   1 H    1.003 --     1 C    0.980
    28   1 H    1.017 --     1 C    0.966
    29   1 H    0.998 --     5 C    0.972
    30   1 H    0.998 --     5 C    0.973
    31   1 H    1.002 --     5 C    0.982
    32   1 H    0.998 --    10 C    0.982
    33   1 H    1.007 --    10 C    0.980
    34   1 H    0.997 --    10 C    0.981
    35   1 H    0.997 --    11 C    0.983
    36   1 H    0.994 --    11 C    0.980
    37   1 H    0.997 --    11 C    0.982
    38   1 H    0.944 --    12 N    0.890
    39   1 H    0.996 --    19 C    0.959
    40   1 H    0.996 --    19 C    0.966
    41   1 H    0.998 --    19 C    0.981
    42   1 H    0.919 --    21 N    0.873
    43   1 H    0.823 --    25 O    0.782
 ---------------------------------------------------------------------------

           -------------------------------------------------
          | TOTAL ENERGY              -83.163731297984 Eh   |
          | GRADIENT NORM               0.000648060899 Eh/α |
          | HOMO-LUMO GAP               2.080408684645 eV   |
           -------------------------------------------------

 * finished run on 2023/06/20 at 15:21:09.725
