   * xtb version 6.5.1 (579679a) compiled by 'ehlert@majestix' on 2022-07-11
          program call               : /lustre/hpc/kemi/ree/PhD/git/ReactivityQM/dep/xtb-6.5.1/bin/xtb --gfn 1 /lustre/hpc/kemi/ree/PhD/git/ReactivityQM/calculations/RaltegravirCLI/reac02prodE07/conf19/RaltegravirCLI_reac02prodE07_conf19_gfn1.xyz --opt --vfukui --chrg -1 --uhf 0 --alpb DMSO

   ID    Z sym.   atoms
    1    6 C      1-4, 6-9, 11, 13, 15-18, 21, 22, 24
    2    9 F      5
    3    7 N      10, 14, 19, 20
    4    8 O      12, 23, 25
    5    1 H      26-47

      * Solvation model:               ALPB
        Solvent                        DMSO
        Solvent mass                       7.8130E+01 g/mol
          :  Hamiltonian                  GFN1-xTB          :
 * total energy  :   -80.1775497 Eh     change       -0.4237819E-09 Eh
 * total energy  :   -80.1865740 Eh     change       -0.9024270E-02 Eh
 * total energy  :   -80.1888742 Eh     change       -0.2300208E-02 Eh
 * total energy  :   -80.1892981 Eh     change       -0.4238898E-03 Eh
 * total energy  :   -80.1897002 Eh     change       -0.4021023E-03 Eh
 * total energy  :   -80.1899176 Eh     change       -0.2173999E-03 Eh
 * total energy  :   -80.1900848 Eh     change       -0.1672248E-03 Eh
 * total energy  :   -80.1902067 Eh     change       -0.1218804E-03 Eh
 * total energy  :   -80.1902684 Eh     change       -0.6170311E-04 Eh
 * total energy  :   -80.1903241 Eh     change       -0.5572446E-04 Eh
 * total energy  :   -80.1918737 Eh     change       -0.1584899E-04 Eh
 * total energy  :   -80.1918867 Eh     change       -0.1301961E-04 Eh
 * total energy  :   -80.1918979 Eh     change       -0.1117170E-04 Eh
 * total energy  :   -80.1919080 Eh     change       -0.1007230E-04 Eh
 * total energy  :   -80.1919180 Eh     change       -0.1001358E-04 Eh
 * total energy  :   -80.1919285 Eh     change       -0.1048783E-04 Eh
 * total energy  :   -80.1919395 Eh     change       -0.1108483E-04 Eh
 * total energy  :   -80.1919510 Eh     change       -0.1144053E-04 Eh
 * total energy  :   -80.1919551 Eh     change       -0.4084439E-05 Eh
   *** GEOMETRY OPTIMIZATION CONVERGED AFTER 68 ITERATIONS ***

 final structure:
================
47
 xtb: 6.5.1 (579679a)
C            5.88335619335643        1.64147844467467       -0.77630458914838
C            5.06956789839547        0.32075163840553       -0.92330038169742
C            5.94477074816729       -0.87046136550068       -0.60365595856424
C            5.79102178699602       -1.53288192456769        0.56665609244252
F            6.67457173311681       -2.54160420144038        0.84651294180260
C            4.76197663183037       -1.32251691827391        1.49521899175094
C            3.76820160834255       -0.39868576814127        1.11764603095060
C            3.84498229517069        0.34993837374380       -0.02354147922708
C            2.71333502439755        1.25809603645024       -0.43497791281275
N            1.45677927272016        0.50287930637870       -0.54531435964813
C            0.32417210424599        0.90687745511848        0.06076242346101
O            0.23277890777787        1.98843677672117        0.64876589458329
C           -0.84755951220770       -0.01036675635366       -0.06053607485419
N           -2.05283091167931        0.58997599182491        0.19741660968628
C           -3.17601952837363       -0.04525446808044        0.11470998228120
C           -4.43610414808298        0.78135195528216        0.35417430072301
C           -4.03999818437188        2.16234839037724        0.90278288527163
C           -5.18757051213077        0.96514007930103       -0.97201306397655
N           -5.31553483646605        0.10991486327288        1.31199102737055
N           -3.22872738447655       -1.37817812516407       -0.22607166590397
C           -4.45619841569399       -2.15997558051608       -0.35915694543773
C           -2.06281894261402       -2.08399893377229       -0.51193067052396
O           -2.09283733563016       -3.27917528986819       -0.83594005615477
C           -0.83946275398220       -1.34158001250026       -0.40920672026405
O            0.29257194926529       -2.04914745606202       -0.67777514012283
H            6.21914828651110        1.76164623332046        0.25422436955849
H            6.75687127933223        1.61629531097776       -1.42851487532458
H            5.26860829127565        2.50025688252815       -1.04804071552428
H            4.75701257111397        0.27343548857232       -1.98302779637945
H            6.72827552027712       -1.13244244159169       -1.30368434742773
H            4.69343185719447       -1.90621732297169        2.40209164758901
H            2.88668032926264       -0.30355848973113        1.75066891828954
H            2.92521859778276        1.72396017869756       -1.40625367715015
H            2.53977231327182        2.06464927436036        0.29004769043680
H            1.50582754388287       -0.39519374886964       -0.99821336000943
H           -3.47479720930112        2.05250374173727        1.82758748676868
H           -4.93967605813379        2.74029247471234        1.10580300339324
H           -3.42724436760263        2.69901103740555        0.17886953738093
H           -6.02918615432083        1.64064063276303       -0.82523904136570
H           -4.52240344009599        1.39178180441032       -1.72248967968296
H           -5.57067014561970        0.01625386900320       -1.34102793812231
H           -6.19712326711193        0.60032207387677        1.34860348841199
H           -4.90706078872798        0.14348789441148        2.23684854788748
H           -5.24610771752331       -1.72718325652309        0.24777186335775
H           -4.25193571562315       -3.17716559708514       -0.02200685725056
H           -4.76042116059555       -2.19105868693015       -1.40649054121108
H            0.02335474667007       -2.95507686438147       -0.91476188560917

          :  Hamiltonian                  GFN1-xTB          :
         :: total energy             -80.191955066963 Eh    ::
         :: gradient norm              0.000209462986 Eh/a0 ::
         :: HOMO-LUMO gap              0.175026058995 eV    ::
         :: SCC energy               -81.050930430104 Eh    ::
         :: -> Gsolv                  -0.105094801193 Eh    ::
         :: repulsion energy           0.888686065558 Eh    ::

    * Orbital Energies and Occupations

         #    Occupation            Energy/Eh            Energy/eV
      -------------------------------------------------------------
         1        2.0000           -0.8056115             -21.9218
       ...           ...                  ...                  ...
        56        2.0000           -0.4541489             -12.3580
        57        2.0000           -0.4466550             -12.1541
        58        2.0000           -0.4434991             -12.0682
        59        2.0000           -0.4366418             -11.8816
        60        2.0000           -0.4271722             -11.6239
        61        2.0000           -0.4228014             -11.5050
        62        2.0000           -0.4175089             -11.3610
        63        2.0000           -0.4123872             -11.2216
        64        2.0000           -0.4082814             -11.1099
        65        2.0000           -0.4059605             -11.0467
        66        2.0000           -0.3990206             -10.8579
        67        2.0000           -0.3791828             -10.3181
        68        1.9345           -0.2974171              -8.0931 (HOMO)
        69        0.0655           -0.2909850              -7.9181 (LUMO)
        70                         -0.2542704              -6.9191
        71                         -0.2037753              -5.5450
        72                         -0.1981000              -5.3906
        73                         -0.1307602              -3.5582
        74                         -0.1262378              -3.4351
        75                         -0.1245517              -3.3892
        76                         -0.1166191              -3.1734
        77                         -0.1099662              -2.9923
        78                         -0.0972359              -2.6459
        79                         -0.0945712              -2.5734
       ...                                ...                  ...
       144                          0.7108330              19.3427
      -------------------------------------------------------------
                  HL-Gap            0.0064321 Eh            0.1750 eV

Wiberg/Mayer (AO) data.
largest (>0.10) Wiberg bond orders for each atom

     #   Z sym  total        # sym  WBO       # sym  WBO       # sym  WBO
 ---------------------------------------------------------------------------
     1   6 C    3.974 --    26 H    0.989    27 H    0.987    28 H    0.986
                             2 C    0.966
     2   6 C    3.992 --     3 C    1.008     8 C    1.000     1 C    0.966
                            29 H    0.965
     3   6 C    3.842 --     4 C    1.599     2 C    1.008    30 H    0.975
     4   6 C    3.834 --     3 C    1.599     6 C    1.282     5 F    0.868
     5   9 F    0.980 --     4 C    0.868
     6   6 C    3.804 --     7 C    1.315     4 C    1.282    31 H    0.977
     7   6 C    3.995 --     8 C    1.595     6 C    1.315    32 H    0.972
     8   6 C    3.881 --     7 C    1.595     9 C    1.003     2 C    1.000
     9   6 C    3.938 --     8 C    1.003    33 H    0.974    34 H    0.968
                            10 N    0.921
    10   7 N    3.349 --    11 C    1.268     9 C    0.921    35 H    0.900
                            12 O    0.167
    11   6 C    3.900 --    12 O    1.528    10 N    1.268    13 C    1.011
    12   8 O    1.816 --    11 C    1.528    10 N    0.167
    13   6 C    3.900 --    24 C    1.442    14 N    1.188    11 C    1.011
    14   7 N    3.027 --    15 C    1.576    13 C    1.188
    15   6 C    3.903 --    14 N    1.576    20 N    1.155    16 C    0.975
    16   6 C    3.966 --    17 C    0.992    18 C    0.986    19 N    0.978
                            15 C    0.975
    17   6 C    3.995 --    16 C    0.992    37 H    0.986    36 H    0.984
                            38 H    0.983
    18   6 C    3.993 --    16 C    0.986    40 H    0.986    39 H    0.983
                            41 H    0.982
    19   7 N    2.992 --    16 C    0.978    43 H    0.942    42 H    0.942
    20   7 N    3.443 --    15 C    1.155    22 C    1.100    21 C    0.936
                            23 O    0.118
    21   6 C    3.931 --    46 H    0.978    45 H    0.977    44 H    0.970
                            20 N    0.936
    22   6 C    3.881 --    23 O    1.496    24 C    1.144    20 N    1.100
    23   8 O    1.829 --    22 C    1.496    20 N    0.118
    24   6 C    3.859 --    13 C    1.442    22 C    1.144    25 O    1.043
    25   8 O    2.033 --    24 C    1.043    47 H    0.815
    26   1 H    1.017 --     1 C    0.989
    27   1 H    1.011 --     1 C    0.987
    28   1 H    1.009 --     1 C    0.986
    29   1 H    1.010 --     2 C    0.965
    30   1 H    1.003 --     3 C    0.975
    31   1 H    1.004 --     6 C    0.977
    32   1 H    1.006 --     7 C    0.972
    33   1 H    1.012 --     9 C    0.974
    34   1 H    1.021 --     9 C    0.968
    35   1 H    0.964 --    10 N    0.900
    36   1 H    1.011 --    17 C    0.984
    37   1 H    1.005 --    17 C    0.986
    38   1 H    1.015 --    17 C    0.983
    39   1 H    1.001 --    18 C    0.983
    40   1 H    1.004 --    18 C    0.986
    41   1 H    1.005 --    18 C    0.982
    42   1 H    0.956 --    19 N    0.942
    43   1 H    0.958 --    19 N    0.942
    44   1 H    1.030 --    21 C    0.970
    45   1 H    1.011 --    21 C    0.977
    46   1 H    1.004 --    21 C    0.978
    47   1 H    0.860 --    25 O    0.815
 ---------------------------------------------------------------------------

           -------------------------------------------------
          | TOTAL ENERGY              -80.191955066963 Eh   |
          | GRADIENT NORM               0.000209462986 Eh/α |
          | HOMO-LUMO GAP               0.175026058995 eV   |
           -------------------------------------------------

 * finished run on 2023/06/20 at 15:06:03.223
