   * xtb version 6.5.1 (579679a) compiled by 'ehlert@majestix' on 2022-07-11
          program call               : /lustre/hpc/kemi/ree/PhD/git/ReactivityQM/dep/xtb-6.5.1/bin/xtb --gfn 1 /lustre/hpc/kemi/ree/PhD/git/ReactivityQM/calculations/R02deprot/reac01prodN15/conf11/R02deprot_reac01prodN15_conf11_gfn1.xyz --opt --vfukui --chrg 0 --uhf 0 --alpb DMSO

   ID    Z sym.   atoms
    1    6 C      1, 3, 5, 6, 8, 9, 12-15, 17, 19, 22, 23
    2    8 O      2, 4, 7, 10, 18, 24
    3    7 N      11, 16, 20, 21, 25
    4    1 H      26-42

      * Solvation model:               ALPB
        Solvent                        DMSO
        Solvent mass                       7.8130E+01 g/mol
          :  Hamiltonian                  GFN1-xTB          :
 * total energy  :   -82.8566968 Eh     change       -0.1732445E-09 Eh
 * total energy  :   -82.8756773 Eh     change       -0.1898052E-01 Eh
 * total energy  :   -82.8927963 Eh     change       -0.1711902E-01 Eh
 * total energy  :   -82.9032753 Eh     change       -0.1047896E-01 Eh
 * total energy  :   -82.9334809 Eh     change       -0.3020563E-01 Eh
 * total energy  :   -82.9537863 Eh     change       -0.2030540E-01 Eh
 * total energy  :   -82.9619352 Eh     change       -0.8148833E-02 Eh
 * total energy  :   -82.9651591 Eh     change       -0.3223928E-02 Eh
 * total energy  :   -82.9655619 Eh     change       -0.4028318E-03 Eh
 * total energy  :   -82.9668173 Eh     change       -0.1255342E-02 Eh
 * total energy  :   -82.9716354 Eh     change       -0.1066873E-04 Eh
 * total energy  :   -82.9716441 Eh     change       -0.8745722E-05 Eh
 * total energy  :   -82.9716313 Eh     change        0.1281975E-04 Eh
 * total energy  :   -82.9716561 Eh     change       -0.2476937E-04 Eh
 * total energy  :   -82.9716620 Eh     change       -0.5964333E-05 Eh
 * total energy  :   -82.9716686 Eh     change       -0.6595211E-05 Eh
 * total energy  :   -82.9716701 Eh     change       -0.1509247E-05 Eh
 * total energy  :   -82.9716785 Eh     change       -0.8364614E-05 Eh
 * total energy  :   -82.9716808 Eh     change       -0.2270895E-05 Eh
   *** GEOMETRY OPTIMIZATION CONVERGED AFTER 119 ITERATIONS ***

 final structure:
================
42
 xtb: 6.5.1 (579679a)
C           -5.92096789633473       -2.77569947932511       -0.08022154757933
O           -4.92397926929497       -1.77707546261843       -0.32744541069309
C           -3.97415729883449       -1.64693084881573        0.58747880473987
O           -3.90882738867977       -2.31901207750211        1.58914234683198
C           -2.96970277047185       -0.57492409000425        0.27160753723384
C           -3.16265869145195        0.46161599822089       -0.70783128107158
O           -4.25957975983325        0.46105023992898       -1.50079667535068
C           -1.74819420844777        0.92685441005910       -1.33052612439625
C           -1.70008591793380        1.31088949762781       -2.78157655619922
O           -2.56841973629309        1.68840508829919       -0.48311464975602
N           -0.62349990532846        0.41000025434868       -0.77037558823550
C           -0.70025575966375       -0.14417206762989        0.41321750068395
C            0.56335396258580       -0.45041473888526        1.18909311404832
C            0.41664979760398        0.11591737653779        2.60820493612841
C            0.78028159235856       -1.97077804702860        1.22295477426312
N            1.67122232355760        0.19904212191384        0.49558511343139
C            2.94849837831242        0.15946325331012        0.91399779289840
O            3.35153952041221       -0.40492763445223        1.91751446764988
C            3.83366953758959        0.91375714419060       -0.01397553758187
N            3.45855889368713        1.54703466960311       -1.08464535695476
N            4.57997696596404        2.09879437905650       -1.62834470151397
C            5.56791080507323        1.76678377016686       -0.85383946477547
C            6.99579178281964        2.12023761162723       -1.01255716274849
O            5.16074259989269        1.01917683538531        0.18279464816436
N           -1.82422076675781       -0.69458657801457        0.89896808390501
H           -5.46191348289657       -3.76711729420899       -0.07786960024594
H           -6.40024157004761       -2.59407114503792        0.88438414707260
H           -6.64601927848071       -2.69461168992413       -0.88715650851313
H           -4.60516923869564        1.35316401467022       -1.62562274654160
H           -2.69180151952758        1.25003924640597       -3.22430604332383
H           -1.33984376984611        2.33448490061709       -2.87794560771629
H           -1.02472990011375        0.64014999958167       -3.30807895492736
H            1.27725354641710       -0.15878182289312        3.21516136489333
H            0.33832421377227        1.20143976575467        2.56885861515950
H           -0.48607963311705       -0.29058629670429        3.06220183241294
H            1.65388980818594       -2.21122044423855        1.82618616264298
H           -0.09835547773517       -2.44674173645047        1.65573883247032
H            0.92801707061453       -2.34657196999675        0.21177135941717
H            1.45017101623494        0.67288219161077       -0.37172188757091
H            7.12287942001804        2.73261424662236       -1.90181419174113
H            7.59610260169716        1.21512572824134       -1.10381617878571
H            7.34387140300818        2.66930067994433       -0.13781165780838

          :  Hamiltonian                  GFN1-xTB          :
         :: total energy             -82.971680780450 Eh    ::
         :: gradient norm              0.000519782622 Eh/a0 ::
         :: HOMO-LUMO gap              2.400959839008 eV    ::
         :: SCC energy               -83.733845396519 Eh    ::
         :: -> Gsolv                  -0.051225838606 Eh    ::
         :: repulsion energy           0.787080467763 Eh    ::

    * Orbital Energies and Occupations

         #    Occupation            Energy/Eh            Energy/eV
      -------------------------------------------------------------
         1        2.0000           -0.8632253             -23.4896
       ...           ...                  ...                  ...
        55        2.0000           -0.5052291             -13.7480
        56        2.0000           -0.5027712             -13.6811
        57        2.0000           -0.5003097             -13.6141
        58        2.0000           -0.4883963             -13.2899
        59        2.0000           -0.4854275             -13.2092
        60        2.0000           -0.4815383             -13.1033
        61        2.0000           -0.4797109             -13.0536
        62        2.0000           -0.4635329             -12.6134
        63        2.0000           -0.4601352             -12.5209
        64        2.0000           -0.4552042             -12.3867
        65        2.0000           -0.4508801             -12.2691
        66        2.0000           -0.4447230             -12.1015
        67        2.0000           -0.4322571             -11.7623 (HOMO)
        68                         -0.3440234              -9.3614 (LUMO)
        69                         -0.3087303              -8.4010
        70                         -0.2728218              -7.4239
        71                         -0.2567143              -6.9856
        72                         -0.2378398              -6.4720
        73                         -0.1967856              -5.3548
        74                         -0.1426784              -3.8825
        75                         -0.1409477              -3.8354
        76                         -0.1392508              -3.7892
        77                         -0.1310104              -3.5650
        78                         -0.1214518              -3.3049
       ...                                ...                  ...
       134                          0.7234971              19.6874
      -------------------------------------------------------------
                  HL-Gap            0.0882337 Eh            2.4010 eV

Wiberg/Mayer (AO) data.
largest (>0.10) Wiberg bond orders for each atom

     #   Z sym  total        # sym  WBO       # sym  WBO       # sym  WBO
 ---------------------------------------------------------------------------
     1   6 C    3.864 --    28 H    0.985    27 H    0.979    26 H    0.979
                             2 O    0.889
     2   8 O    2.215 --     3 C    1.131     1 C    0.889     4 O    0.140
     3   6 C    3.855 --     4 O    1.667     2 O    1.131     5 C    0.977
     4   8 O    1.935 --     3 C    1.667     2 O    0.140
     5   6 C    3.963 --    25 N    1.491     6 C    1.157     3 C    0.977
                            11 N    0.117
     6   6 C    3.843 --     5 C    1.157     7 O    1.036    10 O    0.909
                             8 C    0.598
     7   8 O    1.989 --     6 C    1.036    29 H    0.812
     8   6 C    3.847 --    11 N    1.209     9 C    1.006    10 O    0.868
                             6 C    0.598
     9   6 C    3.987 --     8 C    1.006    32 H    0.982    30 H    0.978
                            31 H    0.968
    10   8 O    1.982 --     6 C    0.909     8 C    0.868
    11   7 N    3.091 --    12 C    1.497     8 C    1.209     5 C    0.117
    12   6 C    3.937 --    11 N    1.497    25 N    1.284    13 C    0.983
    13   6 C    3.937 --    12 C    0.983    14 C    0.980    15 C    0.975
                            16 N    0.931
    14   6 C    3.990 --    34 H    0.986    35 H    0.984    33 H    0.981
                            13 C    0.980
    15   6 C    3.990 --    38 H    0.986    37 H    0.984    36 H    0.981
                            13 C    0.975
    16   7 N    3.358 --    17 C    1.267    13 C    0.931    39 H    0.882
                            18 O    0.181
    17   6 C    3.920 --    18 O    1.584    16 N    1.267    19 C    0.986
    18   8 O    1.902 --    17 C    1.584    16 N    0.181
    19   6 C    3.874 --    20 N    1.612    24 O    1.064    17 C    0.986
    20   7 N    3.014 --    19 C    1.612    21 N    1.198
    21   7 N    2.980 --    22 C    1.607    20 N    1.198
    22   6 C    3.871 --    21 N    1.607    24 O    1.082    23 C    1.031
    23   6 C    3.987 --    22 C    1.031    40 H    0.983    42 H    0.964
                            41 H    0.963
    24   8 O    2.329 --    22 C    1.082    19 C    1.064
    25   7 N    3.076 --     5 C    1.491    12 C    1.284
    26   1 H    1.005 --     1 C    0.979
    27   1 H    1.006 --     1 C    0.979
    28   1 H    1.009 --     1 C    0.985
    29   1 H    0.837 --     7 O    0.812
    30   1 H    1.002 --     9 C    0.978
    31   1 H    0.998 --     9 C    0.968
    32   1 H    1.002 --     9 C    0.982
    33   1 H    1.009 --    14 C    0.981
    34   1 H    1.002 --    14 C    0.986
    35   1 H    1.006 --    14 C    0.984
    36   1 H    1.009 --    15 C    0.981
    37   1 H    1.010 --    15 C    0.984
    38   1 H    1.003 --    15 C    0.986
    39   1 H    0.968 --    16 N    0.882
    40   1 H    0.999 --    23 C    0.983
    41   1 H    0.997 --    23 C    0.963
    42   1 H    0.997 --    23 C    0.964
 ---------------------------------------------------------------------------

           -------------------------------------------------
          | TOTAL ENERGY              -82.971680780450 Eh   |
          | GRADIENT NORM               0.000519782622 Eh/α |
          | HOMO-LUMO GAP               2.400959839008 eV   |
           -------------------------------------------------

 * finished run on 2023/06/20 at 18:24:10.658
