   * xtb version 6.5.1 (579679a) compiled by 'ehlert@majestix' on 2022-07-11
          program call               : /lustre/hpc/kemi/ree/PhD/git/ReactivityQM/dep/xtb-6.5.1/bin/xtb --gfn 1 /lustre/hpc/kemi/ree/PhD/git/ReactivityQM/calculations/R02deprot/reac02/conf03/R02deprot_reac02_conf03_gfn1.xyz --opt --vfukui --chrg 0 --uhf 0 --alpb DMSO

   ID    Z sym.   atoms
    1    6 C      1
    2    5 B      2
    3    8 O      3, 4
    4    1 H      5-9

      * Solvation model:               ALPB
        Solvent                        DMSO
        Solvent mass                       7.8130E+01 g/mol
          :  Hamiltonian                  GFN1-xTB          :
 * total energy  :   -15.7436078 Eh     change       -0.1989520E-12 Eh
 * total energy  :   -15.7455516 Eh     change       -0.1943734E-02 Eh
 * total energy  :   -15.7457436 Eh     change       -0.1920382E-03 Eh
 * total energy  :   -15.7457675 Eh     change       -0.2388419E-04 Eh
 * total energy  :   -15.7457907 Eh     change       -0.2323656E-04 Eh
 * total energy  :   -15.7457946 Eh     change       -0.3883725E-05 Eh
   *** GEOMETRY OPTIMIZATION CONVERGED AFTER 6 ITERATIONS ***

 final structure:
================
9
 xtb: 6.5.1 (579679a)
C            1.11494930664633       -0.08172814532391       -0.09266099541693
B           -0.45658562011414       -0.08408441629059        0.02182043105902
O           -1.13146987281574       -1.25297159758144       -0.19883829934178
O           -1.20174463617709        1.03072532643525        0.32198909892726
H            1.56115421627499        0.79116895786951        0.37809449768009
H            1.41080617950821       -0.07969848960027       -1.14246475502849
H            1.54044853620225       -0.97638153094301        0.36064189672951
H           -2.08455197458395       -1.20539302140399       -0.12660380922750
H           -0.75300713494090        1.85836391683841        0.47802193461884

          :  Hamiltonian                  GFN1-xTB          :
         :: total energy             -15.745794607030 Eh    ::
         :: gradient norm              0.000925619206 Eh/a0 ::
         :: HOMO-LUMO gap              7.902619190180 eV    ::
         :: SCC energy               -15.884875716260 Eh    ::
         :: -> Gsolv                  -0.019400089013 Eh    ::
         :: repulsion energy           0.141001137705 Eh    ::

    * Orbital Energies and Occupations

         #    Occupation            Energy/Eh            Energy/eV
      -------------------------------------------------------------
         1        2.0000           -0.7696421             -20.9430
         2        2.0000           -0.7652217             -20.8227
         3        2.0000           -0.6437699             -17.5179
         4        2.0000           -0.6231513             -16.9568
         5        2.0000           -0.6037459             -16.4288
         6        2.0000           -0.5589995             -15.2111
         7        2.0000           -0.5574731             -15.1696
         8        2.0000           -0.5251196             -14.2892
         9        2.0000           -0.5057784             -13.7629
        10        2.0000           -0.5002600             -13.6128
        11        2.0000           -0.4992719             -13.5859
        12        2.0000           -0.4570336             -12.4365 (HOMO)
        13                         -0.1666177              -4.5339 (LUMO)
        14                         -0.1198909              -3.2624
        15                         -0.0899934              -2.4488
        16                         -0.0825584              -2.2465
        17                         -0.0448043              -1.2192
        18                         -0.0388303              -1.0566
        19                          0.1707419               4.6461
        20                          0.2450071               6.6670
        21                          0.2839840               7.7276
        22                          0.3437637               9.3543
        23                          0.3988507              10.8533
       ...                                ...                  ...
        26                          0.5926006              16.1255
      -------------------------------------------------------------
                  HL-Gap            0.2904159 Eh            7.9026 eV

Wiberg/Mayer (AO) data.
largest (>0.10) Wiberg bond orders for each atom

     #   Z sym  total        # sym  WBO       # sym  WBO       # sym  WBO
 ---------------------------------------------------------------------------
     1   6 C    3.975 --     2 B    0.986     5 H    0.986     7 H    0.978
                             6 H    0.968
     2   5 B    3.250 --     3 O    1.126     4 O    1.102     1 C    0.986
     3   8 O    2.042 --     2 B    1.126     8 H    0.836
     4   8 O    2.037 --     2 B    1.102     9 H    0.842
     5   1 H    1.002 --     1 C    0.986
     6   1 H    1.001 --     1 C    0.968
     7   1 H    1.001 --     1 C    0.978
     8   1 H    0.859 --     3 O    0.836
     9   1 H    0.862 --     4 O    0.842
 ---------------------------------------------------------------------------

           -------------------------------------------------
          | TOTAL ENERGY              -15.745794607030 Eh   |
          | GRADIENT NORM               0.000925619206 Eh/α |
          | HOMO-LUMO GAP               7.902619190180 eV   |
           -------------------------------------------------

 * finished run on 2023/06/20 at 17:32:06.070
