   * xtb version 6.5.1 (579679a) compiled by 'ehlert@majestix' on 2022-07-11
          program call               : /lustre/hpc/kemi/ree/PhD/git/ReactivityQM/dep/xtb-6.5.1/bin/xtb --gfn 1 /lustre/hpc/kemi/ree/PhD/git/ReactivityQM/calculations/R02oxygendeprot/reac01prodN03/conf08/R02oxygendeprot_reac01prodN03_conf08_gfn1.xyz --opt --vfukui --chrg 0 --uhf 0 --alpb DMSO

   ID    Z sym.   atoms
    1    6 C      1, 3, 5, 6, 8-11, 13, 15, 18, 19, 22, 24
    2    8 O      2, 4, 14, 20, 23, 25
    3    7 N      7, 12, 16, 17, 21
    4    1 H      26-42

      * Solvation model:               ALPB
        Solvent                        DMSO
        Solvent mass                       7.8130E+01 g/mol
          :  Hamiltonian                  GFN1-xTB          :
 * total energy  :   -82.9827650 Eh     change       -0.6679102E-11 Eh
 * total energy  :   -82.9940813 Eh     change       -0.1131626E-01 Eh
 * total energy  :   -82.9985069 Eh     change       -0.4425607E-02 Eh
 * total energy  :   -82.9994648 Eh     change       -0.9578821E-03 Eh
 * total energy  :   -83.0000263 Eh     change       -0.5615858E-03 Eh
 * total energy  :   -83.0003139 Eh     change       -0.2875936E-03 Eh
 * total energy  :   -83.0004919 Eh     change       -0.1779733E-03 Eh
 * total energy  :   -83.0006021 Eh     change       -0.1101567E-03 Eh
 * total energy  :   -83.0006929 Eh     change       -0.9084209E-04 Eh
 * total energy  :   -83.0007823 Eh     change       -0.8939749E-04 Eh
 * total energy  :   -83.0014084 Eh     change       -0.6149058E-05 Eh
 * total energy  :   -83.0014254 Eh     change       -0.1696791E-04 Eh
 * total energy  :   -83.0014351 Eh     change       -0.9717371E-05 Eh
 * total energy  :   -83.0014519 Eh     change       -0.1680039E-04 Eh
 * total energy  :   -83.0014649 Eh     change       -0.1304117E-04 Eh
 * total energy  :   -83.0014745 Eh     change       -0.9617034E-05 Eh
 * total energy  :   -83.0014818 Eh     change       -0.7234134E-05 Eh
 * total energy  :   -83.0014901 Eh     change       -0.8321684E-05 Eh
 * total energy  :   -83.0014949 Eh     change       -0.4821912E-05 Eh
   *** GEOMETRY OPTIMIZATION CONVERGED AFTER 43 ITERATIONS ***

 final structure:
================
42
 xtb: 6.5.1 (579679a)
C           -4.72936629027541       -1.23503763084440       -1.35988130734610
O           -3.73434972283819       -0.69660342890029       -0.47280015262374
C           -4.08343187046259        0.35046319591799        0.24856270424105
O           -5.16435146073582        0.87200736686189        0.24156920663372
C           -2.91338155950376        0.83332667247533        1.15340491014106
C           -3.32057975224715        2.13410275742787        1.84656889130343
N           -1.78948973469970        1.07717730262737        0.27676034361383
C           -0.89138882315720        0.20141042749745        0.10388344305137
C            0.21957538111842        0.43731696083747       -0.89750110042941
C           -0.09068432913201       -0.40834931427392       -2.14149284192675
C            0.31933855369447        1.92411889303121       -1.24810085292009
N            1.46718588357654       -0.01062237012400       -0.27121034111468
C            2.65374642559262       -0.02714083626762       -0.92512633637005
O            2.81150955376719        0.16293628421186       -2.11570528136364
C            3.76386841985974       -0.32681565804755        0.01438929326094
N            3.66545344332189       -0.43997258789841        1.30513072262661
N            4.92083641891592       -0.68109683945454        1.77488541203391
C            5.70617271892453       -0.69824688197799        0.73995969311627
C            7.16707956116361       -0.93049784313164        0.71683375141985
O            5.03437244032554       -0.47920934523420       -0.39965589202772
N           -0.87111296175922       -1.03375112489774        0.73978395023127
C           -1.72974659401934       -1.39855866045356        1.73313388177938
O           -1.69744361788507       -2.48782745515970        2.25813546598085
C           -2.70521964744954       -0.29110498939811        2.15042262719345
O           -3.29034716228646       -0.34236387020239        3.20049311239551
H           -4.25232503204972       -2.05235207969871       -1.89504756317850
H           -5.06014368126397       -0.46255033747276       -2.05600387369212
H           -5.58113530530757       -1.59882996905987       -0.78216058073330
H           -2.49571462768347        2.49537657085107        2.45652573891340
H           -3.56780093831306        2.88199099755803        1.09631305029201
H           -4.18866740835018        1.95573275106093        2.47904687872752
H           -0.04406742750157       -1.46763959139282       -1.89578549760297
H           -1.09221775619621       -0.16810272341620       -2.49520494841407
H            0.62593579725845       -0.19505499479155       -2.93165308527927
H            1.10364295967986        2.07659924925652       -1.98708791944173
H           -0.63056894751043        2.26529693603180       -1.65575501056864
H            0.54914970300118        2.50226275225514       -0.35469163834367
H            1.49905829523311       -0.04822073682032        0.73721974200011
H            7.55834835974370       -0.90918937844714        1.73198539024386
H            7.38083951856452       -1.90208318624404        0.26940636419069
H            7.65612756099122       -0.16577141451633        0.11462236305798
H           -0.17870834410987       -1.71312286977602        0.46243228692722

          :  Hamiltonian                  GFN1-xTB          :
         :: total energy             -83.001494908554 Eh    ::
         :: gradient norm              0.000940599990 Eh/a0 ::
         :: HOMO-LUMO gap              2.444807114190 eV    ::
         :: SCC energy               -83.789088527775 Eh    ::
         :: -> Gsolv                  -0.051315179148 Eh    ::
         :: repulsion energy           0.814455768161 Eh    ::

    * Orbital Energies and Occupations

         #    Occupation            Energy/Eh            Energy/eV
      -------------------------------------------------------------
         1        2.0000           -0.8654910             -23.5512
       ...           ...                  ...                  ...
        55        2.0000           -0.5131144             -13.9626
        56        2.0000           -0.5096119             -13.8672
        57        2.0000           -0.5077897             -13.8177
        58        2.0000           -0.5044320             -13.7263
        59        2.0000           -0.4983063             -13.5596
        60        2.0000           -0.4848921             -13.1946
        61        2.0000           -0.4737304             -12.8909
        62        2.0000           -0.4665907             -12.6966
        63        2.0000           -0.4632912             -12.6068
        64        2.0000           -0.4595890             -12.5061
        65        2.0000           -0.4545722             -12.3695
        66        2.0000           -0.4512134             -12.2781
        67        2.0000           -0.4430076             -12.0549 (HOMO)
        68                         -0.3531626              -9.6100 (LUMO)
        69                         -0.3140909              -8.5468
        70                         -0.3006586              -8.1813
        71                         -0.2722161              -7.4074
        72                         -0.2585514              -7.0355
        73                         -0.2284689              -6.2170
        74                         -0.2023998              -5.5076
        75                         -0.1480104              -4.0276
        76                         -0.1427061              -3.8832
        77                         -0.1314824              -3.5778
        78                         -0.1264333              -3.4404
       ...                                ...                  ...
       134                          0.7581476              20.6302
      -------------------------------------------------------------
                  HL-Gap            0.0898450 Eh            2.4448 eV

Wiberg/Mayer (AO) data.
largest (>0.10) Wiberg bond orders for each atom

     #   Z sym  total        # sym  WBO       # sym  WBO       # sym  WBO
 ---------------------------------------------------------------------------
     1   6 C    3.854 --    26 H    0.985    27 H    0.980    28 H    0.979
                             2 O    0.876
     2   8 O    2.213 --     3 C    1.149     1 C    0.876     4 O    0.139
     3   6 C    3.843 --     4 O    1.706     2 O    1.149     5 C    0.865
     4   8 O    1.986 --     3 C    1.706     2 O    0.139
     5   6 C    3.963 --     6 C    0.981     7 N    0.977    24 C    0.954
                             3 C    0.865
     6   6 C    3.984 --    29 H    0.985    30 H    0.984    31 H    0.982
                             5 C    0.981
     7   7 N    3.027 --     8 C    1.759     5 C    0.977
     8   6 C    3.928 --     7 N    1.759    21 N    1.068     9 C    0.977
     9   6 C    3.933 --    11 C    0.990     8 C    0.977    10 C    0.976
                            12 N    0.924
    10   6 C    3.987 --    33 H    0.985    32 H    0.984    34 H    0.976
                             9 C    0.976
    11   6 C    3.989 --     9 C    0.990    37 H    0.985    36 H    0.983
                            35 H    0.982
    12   7 N    3.325 --    13 C    1.232     9 C    0.924    38 H    0.894
                            14 O    0.172
    13   6 C    3.914 --    14 O    1.608    12 N    1.232    15 C    0.990
    14   8 O    1.922 --    13 C    1.608    12 N    0.172
    15   6 C    3.876 --    16 N    1.608    20 O    1.065    13 C    0.990
    16   7 N    3.019 --    15 C    1.608    17 N    1.202
    17   7 N    2.981 --    18 C    1.602    16 N    1.202
    18   6 C    3.870 --    17 N    1.602    20 O    1.084    19 C    1.032
    19   6 C    3.986 --    18 C    1.032    39 H    0.982    41 H    0.968
                            40 H    0.959
    20   8 O    2.332 --    18 C    1.084    15 C    1.065
    21   7 N    3.428 --    22 C    1.183     8 C    1.068    42 H    0.880
                            23 O    0.148
    22   6 C    3.892 --    23 O    1.675    21 N    1.183    24 C    0.906
    23   8 O    1.958 --    22 C    1.675    21 N    0.148
    24   6 C    3.848 --    25 O    1.811     5 C    0.954    22 C    0.906
    25   8 O    2.023 --    24 C    1.811
    26   1 H    1.008 --     1 C    0.985
    27   1 H    1.003 --     1 C    0.980
    28   1 H    1.003 --     1 C    0.979
    29   1 H    1.000 --     6 C    0.985
    30   1 H    1.004 --     6 C    0.984
    31   1 H    1.006 --     6 C    0.982
    32   1 H    1.000 --    10 C    0.984
    33   1 H    1.002 --    10 C    0.985
    34   1 H    1.010 --    10 C    0.976
    35   1 H    1.005 --    11 C    0.982
    36   1 H    1.008 --    11 C    0.983
    37   1 H    1.003 --    11 C    0.985
    38   1 H    0.952 --    12 N    0.894
    39   1 H    0.998 --    19 C    0.982
    40   1 H    0.996 --    19 C    0.959
    41   1 H    0.996 --    19 C    0.968
    42   1 H    0.927 --    21 N    0.880
 ---------------------------------------------------------------------------

           -------------------------------------------------
          | TOTAL ENERGY              -83.001494908554 Eh   |
          | GRADIENT NORM               0.000940599990 Eh/α |
          | HOMO-LUMO GAP               2.444807114190 eV   |
           -------------------------------------------------

 * finished run on 2023/06/21 at 17:19:21.036
