   * xtb version 6.5.1 (579679a) compiled by 'ehlert@majestix' on 2022-07-11
          program call               : /lustre/hpc/kemi/ree/PhD/git/ReactivityQM/dep/xtb-6.5.1/bin/xtb --gfn 1 /lustre/hpc/kemi/ree/PhD/git/ReactivityQM/calculations/R02/reac01prodN18/conf12/R02_reac01prodN18_conf12_gfn1.xyz --opt --vfukui --chrg 1 --uhf 0 --alpb DMSO

   ID    Z sym.   atoms
    1    6 C      1, 3, 5, 6, 8, 11-15, 17, 19, 22, 23
    2    8 O      2, 4, 7, 9, 18, 24
    3    7 N      10, 16, 20, 21, 25
    4    1 H      26-43

      * Solvation model:               ALPB
        Solvent                        DMSO
        Solvent mass                       7.8130E+01 g/mol
          :  Hamiltonian                  GFN1-xTB          :
 * total energy  :   -83.1044213 Eh     change       -0.3939249E-10 Eh
 * total energy  :   -83.1203651 Eh     change       -0.1594380E-01 Eh
 * total energy  :   -83.1277298 Eh     change       -0.7364719E-02 Eh
 * total energy  :   -83.1296183 Eh     change       -0.1888501E-02 Eh
 * total energy  :   -83.1309534 Eh     change       -0.1335072E-02 Eh
 * total energy  :   -83.1318711 Eh     change       -0.9177408E-03 Eh
 * total energy  :   -83.1326233 Eh     change       -0.7521594E-03 Eh
 * total energy  :   -83.1331470 Eh     change       -0.5237310E-03 Eh
 * total energy  :   -83.1334878 Eh     change       -0.3407193E-03 Eh
 * total energy  :   -83.1336888 Eh     change       -0.2010740E-03 Eh
 * total energy  :   -83.1860031 Eh     change       -0.1136297E-04 Eh
 * total energy  :   -83.1860207 Eh     change       -0.1761788E-04 Eh
 * total energy  :   -83.1860361 Eh     change       -0.1539238E-04 Eh
 * total energy  :   -83.1860561 Eh     change       -0.2005955E-04 Eh
 * total energy  :   -83.1860717 Eh     change       -0.1553547E-04 Eh
 * total energy  :   -83.1860830 Eh     change       -0.1133087E-04 Eh
 * total energy  :   -83.1860923 Eh     change       -0.9286415E-05 Eh
 * total energy  :   -83.1861000 Eh     change       -0.7673360E-05 Eh
 * total energy  :   -83.1861071 Eh     change       -0.7181390E-05 Eh
 * total energy  :   -83.1861140 Eh     change       -0.6882443E-05 Eh

 final structure:
================
43
 xtb: 6.5.1 (579679a)
C           -5.58321527196923       -1.74398978104161       -2.68474139082197
O           -4.73236846900864       -0.78678536709997       -2.02038704989752
C           -3.64489382792402       -1.27086640837467       -1.44912056851152
O           -3.30785244321511       -2.42902333803600       -1.45099632235403
C           -2.82462288210685       -0.22763490204504       -0.76983279865885
C           -3.05166593639109        1.10912979609630       -0.65155857453272
O           -4.08973992154374        1.76494039514836       -1.14510601657927
C           -2.09493122918588        1.93767708231019        0.09881615952233
O           -2.21879320812760        3.12164549384487        0.30028303914122
N           -0.96845839536476        1.25037520839654        0.61240095678565
C           -0.06648818973022        2.15330477869393        1.33832328596946
C           -0.75149288437773       -0.05997199159474        0.43300438936881
C            0.41495912072374       -0.82910822095015        1.03923648183320
C            0.50723286707037       -2.26142340823785        0.49366011770493
C            0.27462305988330       -0.87208604823707        2.56501966309200
N            1.64915359651515       -0.14361490968928        0.66735022436992
C            1.78096912702077        0.25951394943859       -0.62348537133691
O            0.83220423477984        0.29850012206485       -1.39299269171459
C            3.14176057325505        0.69142376691554       -0.97215733490396
N            3.57522713432217        1.16603780196183       -2.09938063483242
N            4.90010436701473        1.41374409568006       -1.93593353465261
C            5.20030156264618        1.07538197164689       -0.71781284821934
C            6.51485527369038        1.15422044020086       -0.04645411573475
O            4.12981714849018        0.61125410380786       -0.05516048151366
N           -1.68350401088698       -0.75204357016160       -0.19678304898000
H           -6.35334532379849       -1.17064543727383       -3.19392731743188
H           -6.02409177190206       -2.40924408990269       -1.94127805159790
H           -4.99396652546868       -2.32304009121925       -3.39720823449924
H           -4.72094571073034        1.19218926503072       -1.61509903066793
H           -1.58018359314467       -1.75483586093172       -0.32744385742288
H           -0.59041820694690        2.51578317759343        2.22228416721949
H            0.16497562372674        2.99701088179239        0.68745757779867
H            0.84361192183518        1.64245315937856        1.62025653505870
H            1.43333012105604       -2.70268246811591        0.85698964230014
H            0.52960971358044       -2.25770551902590       -0.59533900068126
H           -0.32273702680240       -2.86990136838334        0.84815500885211
H            0.28646256567901        0.12315261971161        3.00153559694997
H            1.10186613070552       -1.44611737914292        2.97804939667307
H           -0.66089382659245       -1.36337631010071        2.82778209475364
H            2.46713455589816       -0.32187731083888        1.22745248280253
H            7.27943670245239        1.44563707713885       -0.76205009492098
H            6.47281209710635        1.88462634453589        0.76133040548313
H            6.76416215779146        0.18797124898733        0.38984014478361

          :  Hamiltonian                  GFN1-xTB          :
         :: total energy             -83.186116155349 Eh    ::
         :: gradient norm              0.001233607860 Eh/a0 ::
         :: HOMO-LUMO gap              2.687332312835 eV    ::
         :: SCC energy               -83.989362224408 Eh    ::
         :: -> Gsolv                  -0.117096294205 Eh    ::
         :: repulsion energy           0.831148189389 Eh    ::

    * Orbital Energies and Occupations

         #    Occupation            Energy/Eh            Energy/eV
      -------------------------------------------------------------
         1        2.0000           -0.8896535             -24.2087
       ...           ...                  ...                  ...
        55        2.0000           -0.5347937             -14.5525
        56        2.0000           -0.5323415             -14.4857
        57        2.0000           -0.5241583             -14.2631
        58        2.0000           -0.5233170             -14.2402
        59        2.0000           -0.5194887             -14.1360
        60        2.0000           -0.5180536             -14.0970
        61        2.0000           -0.4997088             -13.5978
        62        2.0000           -0.4966238             -13.5138
        63        2.0000           -0.4888096             -13.3012
        64        2.0000           -0.4823409             -13.1252
        65        2.0000           -0.4766762             -12.9710
        66        2.0000           -0.4657788             -12.6745
        67        2.0000           -0.4641018             -12.6289 (HOMO)
        68                         -0.3653441              -9.9415 (LUMO)
        69                         -0.3479872              -9.4692
        70                         -0.3328325              -9.0568
        71                         -0.2800131              -7.6195
        72                         -0.2675468              -7.2803
        73                         -0.2177284              -5.9247
        74                         -0.2072780              -5.6403
        75                         -0.1631918              -4.4407
        76                         -0.1553676              -4.2278
        77                         -0.1498564              -4.0778
        78                         -0.1480055              -4.0274
       ...                                ...                  ...
       136                          0.7213231              19.6282
      -------------------------------------------------------------
                  HL-Gap            0.0987576 Eh            2.6873 eV

Wiberg/Mayer (AO) data.
largest (>0.10) Wiberg bond orders for each atom

     #   Z sym  total        # sym  WBO       # sym  WBO       # sym  WBO
 ---------------------------------------------------------------------------
     1   6 C    3.838 --    26 H    0.985    28 H    0.979    27 H    0.978
                             2 O    0.864
     2   8 O    2.230 --     3 C    1.139     1 C    0.864     4 O    0.139
     3   6 C    3.866 --     4 O    1.661     2 O    1.139     5 C    0.994
     4   8 O    1.960 --     3 C    1.661     2 O    0.139
     5   6 C    3.922 --     6 C    1.518    25 N    1.089     3 C    0.994
                             7 O    0.101
     6   6 C    3.926 --     5 C    1.518     7 O    1.146     8 C    1.038
     7   8 O    2.123 --     6 C    1.146    29 H    0.790     5 C    0.101
     8   6 C    3.903 --     9 O    1.672    10 N    1.049     6 C    1.038
     9   8 O    1.971 --     8 C    1.672    10 N    0.118
    10   7 N    3.535 --    12 C    1.300     8 C    1.049    11 C    0.913
                             9 O    0.118
    11   6 C    3.896 --    33 H    0.975    31 H    0.971    32 H    0.970
                            10 N    0.913
    12   6 C    3.898 --    25 N    1.363    10 N    1.300    13 C    0.973
    13   6 C    3.933 --    14 C    0.988    15 C    0.975    12 C    0.973
                            16 N    0.938
    14   6 C    3.983 --    13 C    0.988    35 H    0.979    36 H    0.978
                            34 H    0.977
    15   6 C    3.980 --    39 H    0.982    37 H    0.979    38 H    0.977
                            13 C    0.975
    16   7 N    3.325 --    17 C    1.222    13 C    0.938    40 H    0.881
                            18 O    0.158
    17   6 C    3.908 --    18 O    1.577    16 N    1.222    19 C    1.015
    18   8 O    1.923 --    17 C    1.577    16 N    0.158
    19   6 C    3.879 --    20 N    1.605    24 O    1.047    17 C    1.015
    20   7 N    3.008 --    19 C    1.605    21 N    1.215
    21   7 N    2.983 --    22 C    1.593    20 N    1.215
    22   6 C    3.863 --    21 N    1.593    24 O    1.078    23 C    1.034
    23   6 C    3.984 --    22 C    1.034    41 H    0.981    43 H    0.963
                            42 H    0.958
    24   8 O    2.320 --    22 C    1.078    19 C    1.047
    25   7 N    3.535 --    12 C    1.363     5 C    1.089    30 H    0.853
    26   1 H    1.005 --     1 C    0.985
    27   1 H    1.001 --     1 C    0.978
    28   1 H    1.002 --     1 C    0.979
    29   1 H    0.834 --     7 O    0.790
    30   1 H    0.929 --    25 N    0.853
    31   1 H    0.997 --    11 C    0.971
    32   1 H    0.999 --    11 C    0.970
    33   1 H    1.005 --    11 C    0.975
    34   1 H    0.995 --    14 C    0.977
    35   1 H    0.995 --    14 C    0.979
    36   1 H    0.994 --    14 C    0.978
    37   1 H    0.996 --    15 C    0.979
    38   1 H    0.991 --    15 C    0.977
    39   1 H    0.996 --    15 C    0.982
    40   1 H    0.921 --    16 N    0.881
    41   1 H    0.997 --    23 C    0.981
    42   1 H    0.995 --    23 C    0.958
    43   1 H    0.995 --    23 C    0.963
 ---------------------------------------------------------------------------

           -------------------------------------------------
          | TOTAL ENERGY              -83.186116155349 Eh   |
          | GRADIENT NORM               0.001233607860 Eh/α |
          | HOMO-LUMO GAP               2.687332312835 eV   |
           -------------------------------------------------

 * finished run on 2023/06/20 at 15:46:11.277
