   * xtb version 6.5.1 (579679a) compiled by 'ehlert@majestix' on 2022-07-11
          program call               : /lustre/hpc/kemi/ree/PhD/git/ReactivityQM/dep/xtb-6.5.1/bin/xtb --gfn 1 /lustre/hpc/kemi/ree/PhD/git/ReactivityQM/calculations/R01/reac01prodN01/conf09/R01_reac01prodN01_conf09_gfn1.xyz --opt --vfukui --chrg 1 --uhf 0 --alpb DMSO

   ID    Z sym.   atoms
    1    6 C      1, 3, 5, 8, 9, 11
    2    8 O      2, 4, 10
    3    7 N      6, 7
    4    1 H      12-20

      * Solvation model:               ALPB
        Solvent                        DMSO
        Solvent mass                       7.8130E+01 g/mol
          :  Hamiltonian                  GFN1-xTB          :
 * total energy  :   -37.5523543 Eh     change       -0.7858603E-11 Eh
 * total energy  :   -37.5657800 Eh     change       -0.1342570E-01 Eh
 * total energy  :   -37.5719026 Eh     change       -0.6122513E-02 Eh
 * total energy  :   -37.5737551 Eh     change       -0.1852581E-02 Eh
 * total energy  :   -37.5749690 Eh     change       -0.1213910E-02 Eh
 * total energy  :   -37.5755377 Eh     change       -0.5686290E-03 Eh
 * total energy  :   -37.5760191 Eh     change       -0.4813829E-03 Eh
 * total energy  :   -37.5762414 Eh     change       -0.2223723E-03 Eh
 * total energy  :   -37.5763270 Eh     change       -0.8557520E-04 Eh
 * total energy  :   -37.5764092 Eh     change       -0.8214656E-04 Eh
 * total energy  :   -37.5775724 Eh     change       -0.6567456E-04 Eh
 * total energy  :   -37.5775465 Eh     change        0.2585497E-04 Eh
 * total energy  :   -37.5776413 Eh     change       -0.9476127E-04 Eh
 * total energy  :   -37.5776660 Eh     change       -0.2472105E-04 Eh
 * total energy  :   -37.5776893 Eh     change       -0.2322704E-04 Eh
 * total energy  :   -37.5777061 Eh     change       -0.1685273E-04 Eh
 * total energy  :   -37.5777272 Eh     change       -0.2104834E-04 Eh
 * total energy  :   -37.5777398 Eh     change       -0.1265482E-04 Eh
 * total energy  :   -37.5777442 Eh     change       -0.4434557E-05 Eh
   *** GEOMETRY OPTIMIZATION CONVERGED AFTER 28 ITERATIONS ***

 final structure:
================
20
 xtb: 6.5.1 (579679a)
C            3.42961157404124        0.40289249840072        0.38768691259960
O            2.00953869974265        0.18421410485644        0.23661821204323
C            1.60359956003916       -1.06081562100855        0.13839489665623
O            2.29062220695482       -2.04211043190100        0.15893424183622
C            0.11473955520235       -1.17044508106304       -0.00942206681007
N           -0.55243211882623       -2.25885605577001       -0.08284688957778
N           -1.87600586644773       -1.96218445855374       -0.20620881941934
C           -2.02090785660503       -0.69212593934728       -0.20870350875947
C           -3.25552052120322        0.09752076278328       -0.31994994983921
O           -0.76577691540692       -0.08365586708095       -0.08256768392840
C           -0.44135196502265        1.34343038010712       -0.05845375892906
H            3.96791200592979       -0.15041426417265       -0.38306050277809
H            3.57893744330568        1.47349208448403        0.27779527862723
H            3.74118562121942        0.06751628119542        1.37781467096829
H           -3.37606830954952        0.74467547365266        0.54939946875611
H           -4.09939786084146       -0.58795591239197       -0.38433011874700
H           -3.22879200501406        0.72557317763269       -1.21116796941864
H            0.23023835168848        1.53837984906891       -0.89089217792655
H            0.02984107339583        1.55407220208333        0.89840305747686
H           -1.37997367260272        1.87679681702397       -0.16922129283075

          :  Hamiltonian                  GFN1-xTB          :
         :: total energy             -37.577744242560 Eh    ::
         :: gradient norm              0.000655385916 Eh/a0 ::
         :: HOMO-LUMO gap              3.708045415217 eV    ::
         :: SCC energy               -37.927611898477 Eh    ::
         :: -> Gsolv                  -0.097125417834 Eh    ::
         :: repulsion energy           0.358793019316 Eh    ::

    * Orbital Energies and Occupations

         #    Occupation            Energy/Eh            Energy/eV
      -------------------------------------------------------------
         1        2.0000           -0.9756583             -26.5490
       ...           ...                  ...                  ...
        18        2.0000           -0.6107232             -16.6186
        19        2.0000           -0.6024748             -16.3942
        20        2.0000           -0.6020504             -16.3826
        21        2.0000           -0.5858571             -15.9420
        22        2.0000           -0.5845977             -15.9077
        23        2.0000           -0.5728755             -15.5887
        24        2.0000           -0.5641786             -15.3521
        25        2.0000           -0.5485849             -14.9278
        26        2.0000           -0.5415550             -14.7365
        27        2.0000           -0.5311652             -14.4537
        28        2.0000           -0.5286643             -14.3857
        29        2.0000           -0.5200468             -14.1512
        30        2.0000           -0.5135791             -13.9752 (HOMO)
        31                         -0.3773110             -10.2672 (LUMO)
        32                         -0.3203681              -8.7177
        33                         -0.2585315              -7.0350
        34                         -0.1969522              -5.3593
        35                         -0.1795097              -4.8847
        36                         -0.1548587              -4.2139
        37                         -0.1296222              -3.5272
        38                         -0.1217558              -3.3131
        39                         -0.1213244              -3.3014
        40                         -0.1049590              -2.8561
        41                         -0.0900174              -2.4495
       ...                                ...                  ...
        62                          0.7334562              19.9584
      -------------------------------------------------------------
                  HL-Gap            0.1362682 Eh            3.7080 eV

Wiberg/Mayer (AO) data.
largest (>0.10) Wiberg bond orders for each atom

     #   Z sym  total        # sym  WBO       # sym  WBO       # sym  WBO
 ---------------------------------------------------------------------------
     1   6 C    3.827 --    13 H    0.984    12 H    0.978    14 H    0.976
                             2 O    0.856
     2   8 O    2.235 --     3 C    1.157     1 C    0.856     4 O    0.153
     3   6 C    3.878 --     4 O    1.694     2 O    1.157     5 C    0.960
     4   8 O    1.977 --     3 C    1.694     2 O    0.153
     5   6 C    3.809 --     6 N    1.710     3 C    0.960    10 O    0.879
     6   7 N    3.041 --     5 C    1.710     7 N    1.159
     7   7 N    3.024 --     8 C    1.687     6 N    1.159
     8   6 C    3.800 --     7 N    1.687     9 C    1.046    10 O    0.878
     9   6 C    3.967 --     8 C    1.046    16 H    0.968    15 H    0.949
                            17 H    0.947
    10   8 O    2.651 --     5 C    0.879     8 C    0.878    11 C    0.746
    11   6 C    3.722 --    20 H    0.972    18 H    0.968    19 H    0.968
                            10 O    0.746
    12   1 H    1.000 --     1 C    0.978
    13   1 H    1.003 --     1 C    0.984
    14   1 H    0.999 --     1 C    0.976
    15   1 H    0.986 --     9 C    0.949
    16   1 H    0.988 --     9 C    0.968
    17   1 H    0.986 --     9 C    0.947
    18   1 H    0.994 --    11 C    0.968
    19   1 H    0.995 --    11 C    0.968
    20   1 H    0.989 --    11 C    0.972
 ---------------------------------------------------------------------------

           -------------------------------------------------
          | TOTAL ENERGY              -37.577744242560 Eh   |
          | GRADIENT NORM               0.000655385916 Eh/α |
          | HOMO-LUMO GAP               3.708045415217 eV   |
           -------------------------------------------------

 * finished run on 2023/06/20 at 14:54:41.387
