                         Program Version 5.0.1 -  RELEASE  -
|  1> # ORCA input file
|  2> ! SP r2SCAN-3c CPCM
|  3>
|  4> %maxcore 1875.0
|  5> %pal nprocs 4 end
|  6> %cpcm smd true SMDsolvent "DMSO" end
|  7>
|  8> *xyz 1 1
|  9> C      -5.084363    2.226941    2.150430
| 10> O      -3.934814    1.538687    1.630809
| 11> C      -3.979446    1.176300    0.370743
| 12> O      -4.915901    1.387916   -0.374273
| 13> C      -2.754247    0.455229   -0.093963
| 14> N      -1.750938    0.273831    0.774626
| 15> C      -0.660515   -0.353923    0.431929
| 16> C       0.393145   -0.497197    1.516829
| 17> C       0.374811   -1.919167    2.088897
| 18> C       0.108901    0.515806    2.635824
| 19> N       1.715673   -0.213458    0.967192
| 20> C       1.904748    0.868834    0.173131
| 21> O       0.993248    1.560626   -0.251111
| 22> C       3.322376    1.085943   -0.176193
| 23> N       3.840722    2.041117   -0.883579
| 24> N       5.178093    1.801528   -0.946463
| 25> C       5.397011    0.711807   -0.276198
| 26> C       6.685911    0.022569   -0.055093
| 27> O       4.263161    0.210114    0.239540
| 28> N      -0.539273   -0.899145   -0.821308
| 29> C       0.600628   -1.709850   -1.261710
| 30> C      -1.498644   -0.719216   -1.756099
| 31> O      -1.228347   -1.271836   -2.916465
| 32> C      -2.110851   -1.233124   -4.050461
| 33> C      -2.668699   -0.001097   -1.404094
| 34> O      -3.620716    0.185609   -2.310937
| 35> H      -5.247050    3.148130    1.587859
| 36> H      -4.865764    2.444558    3.193281
| 37> H      -5.963784    1.586245    2.065583
| 38> H       1.099361   -1.990571    2.898125
| 39> H      -0.616761   -2.138281    2.481901
| 40> H       0.622845   -2.658104    1.331289
| 41> H       0.912040    0.468872    3.368098
| 42> H      -0.835237    0.278237    3.121666
| 43> H       0.054503    1.522582    2.224046
| 44> H       2.507437   -0.683023    1.373662
| 45> H       6.617060   -1.006384   -0.407026
| 46> H       6.915751   -0.002893    1.010178
| 47> H       7.477801    0.542125   -0.589405
| 48> H       1.318970   -1.821764   -0.461176
| 49> H       0.222431   -2.683386   -1.568677
| 50> H       1.064902   -1.217061   -2.115035
| 51> H      -3.056817   -1.718679   -3.810031
| 52> H      -1.590695   -1.785972   -4.831498
| 53> H      -2.281781   -0.202886   -4.364530
| 54> H      -4.386885    0.673411   -1.910317
| 55> **                         ****END OF INPUT****

CARTESIAN COORDINATES (ANGSTROEM)
---------------------------------
  C     -5.084363    2.226941    2.150430
  O     -3.934814    1.538687    1.630809
  C     -3.979446    1.176300    0.370743
  O     -4.915901    1.387916   -0.374273
  C     -2.754247    0.455229   -0.093963
  N     -1.750938    0.273831    0.774626
  C     -0.660515   -0.353923    0.431929
  C      0.393145   -0.497197    1.516829
  C      0.374811   -1.919167    2.088897
  C      0.108901    0.515806    2.635824
  N      1.715673   -0.213458    0.967192
  C      1.904748    0.868834    0.173131
  O      0.993248    1.560626   -0.251111
  C      3.322376    1.085943   -0.176193
  N      3.840722    2.041117   -0.883579
  N      5.178093    1.801528   -0.946463
  C      5.397011    0.711807   -0.276198
  C      6.685911    0.022569   -0.055093
  O      4.263161    0.210114    0.239540
  N     -0.539273   -0.899145   -0.821308
  C      0.600628   -1.709850   -1.261710
  C     -1.498644   -0.719216   -1.756099
  O     -1.228347   -1.271836   -2.916465
  C     -2.110851   -1.233124   -4.050461
  C     -2.668699   -0.001097   -1.404094
  O     -3.620716    0.185609   -2.310937
  H     -5.247050    3.148130    1.587859
  H     -4.865764    2.444558    3.193281
  H     -5.963784    1.586245    2.065583
  H      1.099361   -1.990571    2.898125
  H     -0.616761   -2.138281    2.481901
  H      0.622845   -2.658104    1.331289
  H      0.912040    0.468872    3.368098
  H     -0.835237    0.278237    3.121666
  H      0.054503    1.522582    2.224046
  H      2.507437   -0.683023    1.373662
  H      6.617060   -1.006384   -0.407026
  H      6.915751   -0.002893    1.010178
  H      7.477801    0.542125   -0.589405
  H      1.318970   -1.821764   -0.461176
  H      0.222431   -2.683386   -1.568677
  H      1.064902   -1.217061   -2.115035
  H     -3.056817   -1.718679   -3.810031
  H     -1.590695   -1.785972   -4.831498
  H     -2.281781   -0.202886   -4.364530
  H     -4.386885    0.673411   -1.910317

 Total Charge           Charge          ....    1
 Multiplicity           Mult            ....    1
 Number of Electrons    NEL             ....  192
 Basis Dimension        Dim             ....  649

ORBITAL ENERGIES
----------------

  NO   OCC          E(Eh)            E(eV)
   0   2.0000     -19.071093      -518.9508
   1   2.0000     -19.050413      -518.3881
   2   2.0000     -19.027139      -517.7548
   3   2.0000     -19.016452      -517.4640
   4   2.0000     -18.975942      -516.3616
   5   2.0000     -18.949640      -515.6459
   6   2.0000     -14.291835      -388.9006
   7   2.0000     -14.212434      -386.7400
   8   2.0000     -14.211344      -386.7103
   9   2.0000     -14.202035      -386.4570
  10   2.0000     -14.195122      -386.2689
  11   2.0000     -10.204838      -277.6878
  12   2.0000     -10.194040      -277.3939
  13   2.0000     -10.168194      -276.6906
  14   2.0000     -10.159007      -276.4406
  15   2.0000     -10.158924      -276.4384
  16   2.0000     -10.152442      -276.2620
  17   2.0000     -10.149361      -276.1782
  18   2.0000     -10.126714      -275.5619
  19   2.0000     -10.119794      -275.3736
  20   2.0000     -10.098375      -274.7907
  21   2.0000     -10.088357      -274.5182
  22   2.0000     -10.083410      -274.3835
  23   2.0000     -10.048014      -273.4204
  24   2.0000     -10.035998      -273.0934
  25   2.0000     -10.025762      -272.8148
  26   2.0000      -1.161024       -31.5931
  27   2.0000      -1.116731       -30.3878
  28   2.0000      -1.108648       -30.1678
  29   2.0000      -1.070393       -29.1269
  30   2.0000      -1.040855       -28.3231
  31   2.0000      -1.020765       -27.7764
  32   2.0000      -1.018149       -27.7053
  33   2.0000      -0.981803       -26.7162
  34   2.0000      -0.932036       -25.3620
  35   2.0000      -0.926813       -25.2199
  36   2.0000      -0.838998       -22.8303
  37   2.0000      -0.817660       -22.2496
  38   2.0000      -0.771693       -20.9988
  39   2.0000      -0.752838       -20.4858
  40   2.0000      -0.734336       -19.9823
  41   2.0000      -0.717926       -19.5358
  42   2.0000      -0.710004       -19.3202
  43   2.0000      -0.676579       -18.4106
  44   2.0000      -0.672288       -18.2939
  45   2.0000      -0.669070       -18.2063
  46   2.0000      -0.657461       -17.8904
  47   2.0000      -0.608466       -16.5572
  48   2.0000      -0.596647       -16.2356
  49   2.0000      -0.588772       -16.0213
  50   2.0000      -0.584732       -15.9114
  51   2.0000      -0.565214       -15.3803
  52   2.0000      -0.547781       -14.9059
  53   2.0000      -0.541808       -14.7434
  54   2.0000      -0.533693       -14.5225
  55   2.0000      -0.510109       -13.8808
  56   2.0000      -0.507411       -13.8073
  57   2.0000      -0.500266       -13.6129
  58   2.0000      -0.489319       -13.3151
  59   2.0000      -0.476073       -12.9546
  60   2.0000      -0.473822       -12.8933
  61   2.0000      -0.467058       -12.7093
  62   2.0000      -0.464377       -12.6363
  63   2.0000      -0.449542       -12.2327
  64   2.0000      -0.442410       -12.0386
  65   2.0000      -0.432143       -11.7592
  66   2.0000      -0.427736       -11.6393
  67   2.0000      -0.420682       -11.4473
  68   2.0000      -0.417850       -11.3703
  69   2.0000      -0.410174       -11.1614
  70   2.0000      -0.407282       -11.0827
  71   2.0000      -0.402735       -10.9590
  72   2.0000      -0.393402       -10.7050
  73   2.0000      -0.387594       -10.5470
  74   2.0000      -0.386748       -10.5240
  75   2.0000      -0.384815       -10.4714
  76   2.0000      -0.384232       -10.4555
  77   2.0000      -0.371429       -10.1071
  78   2.0000      -0.365165        -9.9366
  79   2.0000      -0.362018        -9.8510
  80   2.0000      -0.354375        -9.6430
  81   2.0000      -0.349996        -9.5239
  82   2.0000      -0.347778        -9.4635
  83   2.0000      -0.342580        -9.3221
  84   2.0000      -0.335444        -9.1279
  85   2.0000      -0.333822        -9.0838
  86   2.0000      -0.319893        -8.7047
  87   2.0000      -0.310899        -8.4600
  88   2.0000      -0.300246        -8.1701
  89   2.0000      -0.298297        -8.1171
  90   2.0000      -0.274174        -7.4606
  91   2.0000      -0.269060        -7.3215
  92   2.0000      -0.266785        -7.2596
  93   2.0000      -0.263785        -7.1779
  94   2.0000      -0.254698        -6.9307
  95   2.0000      -0.240156        -6.5350
  96   0.0000      -0.132443        -3.6040
  97   0.0000      -0.096803        -2.6341
  98   0.0000      -0.073120        -1.9897
  99   0.0000      -0.025942        -0.7059
 100   0.0000      -0.025144        -0.6842

MULLIKEN ATOMIC CHARGES
-----------------------
   0 C :   -0.303727
   1 O :   -0.179329
   2 C :    0.180147
   3 O :   -0.470096
   4 C :    0.241949
   5 N :   -0.052261
   6 C :    0.039058
   7 C :   -0.012015
   8 C :   -0.468973
   9 C :   -0.582086
  10 N :   -0.177565
  11 C :   -0.084654
  12 O :   -0.411617
  13 C :    0.401705
  14 N :   -0.154864
  15 N :   -0.286012
  16 C :    0.404519
  17 C :   -0.631204
  18 O :   -0.056318
  19 N :    0.336557
  20 C :   -0.451140
  21 C :    0.183533
  22 O :   -0.176240
  23 C :   -0.301996
  24 C :    0.088683
  25 O :   -0.369005
  26 H :    0.185979
  27 H :    0.186337
  28 H :    0.186185
  29 H :    0.197782
  30 H :    0.203554
  31 H :    0.188761
  32 H :    0.188337
  33 H :    0.191474
  34 H :    0.199517
  35 H :    0.323512
  36 H :    0.201433
  37 H :    0.203591
  38 H :    0.206443
  39 H :    0.231843
  40 H :    0.210889
  41 H :    0.224030
  42 H :    0.193472
  43 H :    0.190056
  44 H :    0.193824
  45 H :    0.385932
Sum of atomic charges:    1.0000000

LOEWDIN ATOMIC CHARGES
----------------------
   0 C :   -0.022721
   1 O :   -0.538147
   2 C :    0.414044
   3 O :   -0.440800
   4 C :    0.250832
   5 N :   -0.509118
   6 C :    0.400514
   7 C :    0.109607
   8 C :   -0.332119
   9 C :   -0.327280
  10 N :   -0.599170
  11 C :    0.386681
  12 O :   -0.428536
  13 C :    0.413362
  14 N :   -0.327726
  15 N :   -0.354960
  16 C :    0.383552
  17 C :   -0.315792
  18 O :   -0.388662
  19 N :   -0.569902
  20 C :   -0.042560
  21 C :    0.461019
  22 O :   -0.551554
  23 C :    0.003905
  24 C :    0.293465
  25 O :   -0.449372
  26 H :    0.188663
  27 H :    0.192139
  28 H :    0.188681
  29 H :    0.180058
  30 H :    0.182100
  31 H :    0.175112
  32 H :    0.172656
  33 H :    0.179061
  34 H :    0.181787
  35 H :    0.304572
  36 H :    0.192611
  37 H :    0.193330
  38 H :    0.192048
  39 H :    0.219628
  40 H :    0.214730
  41 H :    0.216095
  42 H :    0.194357
  43 H :    0.195307
  44 H :    0.194560
  45 H :    0.323941

  Mayer bond orders larger than 0.100000
B(  0-C ,  1-O ) :   0.8144 B(  0-C , 26-H ) :   0.9505 B(  0-C , 27-H ) :   0.9581
B(  0-C , 28-H ) :   0.9506 B(  1-O ,  2-C ) :   1.2367 B(  2-C ,  3-O ) :   1.7166
B(  2-C ,  4-C ) :   1.0255 B(  4-C ,  5-N ) :   1.1278 B(  4-C , 24-C ) :   1.2728
B(  5-N ,  6-C ) :   1.5552 B(  6-C ,  7-C ) :   0.7803 B(  6-C , 12-O ) :   0.1427
B(  6-C , 19-N ) :   1.2060 B(  6-C , 24-C ) :   0.1181 B(  7-C ,  8-C ) :   0.9989
B(  7-C ,  9-C ) :   0.9404 B(  7-C , 10-N ) :   0.7458 B(  8-C , 29-H ) :   0.9605
B(  8-C , 30-H ) :   0.9648 B(  8-C , 31-H ) :   0.9217 B(  9-C , 32-H ) :   0.9663
B(  9-C , 33-H ) :   0.9590 B(  9-C , 34-H ) :   0.9554 B( 10-N , 11-C ) :   1.1481
B( 10-N , 35-H ) :   0.8998 B( 11-C , 12-O ) :   1.8239 B( 11-C , 13-C ) :   0.8097
B( 11-C , 15-N ) :   0.1163 B( 13-C , 14-N ) :   1.7400 B( 13-C , 16-C ) :   0.1279
B( 13-C , 18-O ) :   1.0814 B( 14-N , 15-N ) :   1.2621 B( 15-N , 16-C ) :   1.6033
B( 16-C , 17-C ) :   0.8231 B( 16-C , 18-O ) :   1.0684 B( 17-C , 36-H ) :   0.9445
B( 17-C , 37-H ) :   0.9400 B( 17-C , 38-H ) :   0.9889 B( 19-N , 20-C ) :   0.8360
B( 19-N , 21-C ) :   1.3840 B( 20-C , 39-H ) :   0.9150 B( 20-C , 40-H ) :   0.9214
B( 20-C , 41-H ) :   0.9199 B( 21-C , 22-O ) :   1.2709 B( 21-C , 24-C ) :   1.1403
B( 22-O , 23-C ) :   0.8122 B( 23-C , 42-H ) :   0.9430 B( 23-C , 43-H ) :   0.9516
B( 23-C , 44-H ) :   0.9432 B( 24-C , 25-O ) :   1.0526 B( 25-O , 45-H ) :   0.7484

Dispersion correction           -0.021092746
FINAL SINGLE POINT ENERGY     -1308.361114772111

DIPOLE MOMENT
-------------
                                X             Y             Z
Electronic contribution:     -1.54145       7.22630      -7.12372
Nuclear contribution   :      0.74062     -11.88619       7.76906
                        -----------------------------------------
Total Dipole Moment    :     -0.80082      -4.65989       0.64534
                        -----------------------------------------
Magnitude (a.u.)       :      4.77204
Magnitude (Debye)      :     12.12956

Rotational constants in cm-1:     0.011678     0.003845     0.003379
Rotational constants in MHz :   350.086206   115.258257   101.307522

                             ****ORCA TERMINATED NORMALLY****
TOTAL RUN TIME: 0 days 0 hours 1 minutes 9 seconds 196 msec
