   * xtb version 6.5.1 (579679a) compiled by 'ehlert@majestix' on 2022-07-11
          program call               : /lustre/hpc/kemi/ree/PhD/git/ReactivityQM/dep/xtb-6.5.1/bin/xtb --gfn 1 /lustre/hpc/kemi/ree/PhD/git/ReactivityQM/calculations/R03/reac02prodN19/conf01/R03_reac02prodN19_conf01_gfn1.xyz --opt --vfukui --chrg 1 --uhf 0 --alpb DMSO

   ID    Z sym.   atoms
    1    6 C      1, 3, 5, 7-10, 12, 14, 17, 18, 21, 22, 24, 25
    2    8 O      2, 4, 13, 19, 23, 26
    3    7 N      6, 11, 15, 16, 20
    4    1 H      27-46

      * Solvation model:               ALPB
        Solvent                        DMSO
        Solvent mass                       7.8130E+01 g/mol
          :  Hamiltonian                  GFN1-xTB          :
 * total energy  :   -86.3298288 Eh     change       -0.2506795E-10 Eh
 * total energy  :   -86.3506528 Eh     change       -0.2082400E-01 Eh
 * total energy  :   -86.3585759 Eh     change       -0.7923091E-02 Eh
 * total energy  :   -86.3607845 Eh     change       -0.2208676E-02 Eh
 * total energy  :   -86.3625179 Eh     change       -0.1733319E-02 Eh
 * total energy  :   -86.3635220 Eh     change       -0.1004164E-02 Eh
 * total energy  :   -86.3643413 Eh     change       -0.8192723E-03 Eh
 * total energy  :   -86.3649967 Eh     change       -0.6554230E-03 Eh
 * total energy  :   -86.3654273 Eh     change       -0.4305504E-03 Eh
 * total energy  :   -86.3656504 Eh     change       -0.2231585E-03 Eh
 * total energy  :   -86.3673457 Eh     change       -0.2137498E-04 Eh
 * total energy  :   -86.3673622 Eh     change       -0.1648356E-04 Eh
 * total energy  :   -86.3673768 Eh     change       -0.1459387E-04 Eh
 * total energy  :   -86.3673925 Eh     change       -0.1572482E-04 Eh
 * total energy  :   -86.3674082 Eh     change       -0.1560970E-04 Eh
 * total energy  :   -86.3674227 Eh     change       -0.1451903E-04 Eh
 * total energy  :   -86.3674333 Eh     change       -0.1058947E-04 Eh
 * total energy  :   -86.3674399 Eh     change       -0.6618706E-05 Eh
 * total energy  :   -86.3674447 Eh     change       -0.4870576E-05 Eh
   *** GEOMETRY OPTIMIZATION CONVERGED AFTER 41 ITERATIONS ***

 final structure:
================
46
 xtb: 6.5.1 (579679a)
C           -5.08436308352100        2.22694125670676        2.15042951180567
O           -3.93481444105695        1.53868678779997        1.63080933602745
C           -3.97944622993274        1.17629972088084        0.37074317942203
O           -4.91590091256891        1.38791588608877       -0.37427286528911
C           -2.75424716205674        0.45522866244074       -0.09396298096860
N           -1.75093838172836        0.27383127702201        0.77462564757121
C           -0.66051501871767       -0.35392347927415        0.43192918118055
C            0.39314513761579       -0.49719736127202        1.51682871977666
C            0.37481100623450       -1.91916698113770        2.08889667846940
C            0.10890095474781        0.51580639335959        2.63582358015817
N            1.71567259971721       -0.21345801559611        0.96719179321313
C            1.90474805845799        0.86883406966780        0.17313096602596
O            0.99324768319921        1.56062634916943       -0.25111109895722
C            3.32237590162858        1.08594253630952       -0.17619322368021
N            3.84072235901241        2.04111735212280       -0.88357926882487
N            5.17809323464408        1.80152842447669       -0.94646284487557
C            5.39701070290213        0.71180670177531       -0.27619810030723
C            6.68591113955371        0.02256911424202       -0.05509347901237
O            4.26316101390338        0.21011394695303        0.23954025187484
N           -0.53927334525317       -0.89914533073028       -0.82130825254027
C            0.60062803582510       -1.70984997272087       -1.26170983100408
C           -1.49864391190489       -0.71921622510763       -1.75609924199149
O           -1.22834711708173       -1.27183610622247       -2.91646472498039
C           -2.11085051953302       -1.23312352859977       -4.05046140427318
C           -2.66869898209299       -0.00109688642564       -1.40409438713913
O           -3.62071634605671        0.18560931239850       -2.31093681193516
H           -5.24705033946342        3.14813017556000        1.58785926879484
H           -4.86576393606381        2.44455784616863        3.19328110142991
H           -5.96378423203375        1.58624489115864        2.06558322135467
H            1.09936069576722       -1.99057100602677        2.89812548491120
H           -0.61676143604716       -2.13828068354897        2.48190124867254
H            0.62284503828143       -2.65810351472228        1.33128874090216
H            0.91203969227252        0.46887224392442        3.36809819158603
H           -0.83523690834744        0.27823739225100        3.12166620345715
H            0.05450328991516        1.52258181729733        2.22404636249826
H            2.50743725867801       -0.68302289400012        1.37366242783795
H            6.61706039893216       -1.00638371305899       -0.40702588995506
H            6.91575052657711       -0.00289258197837        1.01017828679965
H            7.47780062485398        0.54212516574873       -0.58940498550175
H            1.31897019797063       -1.82176426752044       -0.46117553016561
H            0.22243053267853       -2.68338599236786       -1.56867699423334
H            1.06490216106262       -1.21706103414455       -2.11503470782893
H           -3.05681685804702       -1.71867932364204       -3.81003142681879
H           -1.59069462689900       -1.78597154578637       -4.83149813589793
H           -2.28178067891645       -0.20288552826431       -4.36452950960589
H           -4.38688477710782        0.67341064862102       -1.91031668798250

          :  Hamiltonian                  GFN1-xTB          :
         :: total energy             -86.367444750000 Eh    ::
         :: gradient norm              0.000350287621 Eh/a0 ::
         :: HOMO-LUMO gap              2.313940830432 eV    ::
         :: SCC energy               -87.195859157174 Eh    ::
         :: -> Gsolv                  -0.104055975459 Eh    ::
         :: repulsion energy           0.857850825939 Eh    ::

    * Orbital Energies and Occupations

         #    Occupation            Energy/Eh            Energy/eV
      -------------------------------------------------------------
         1        2.0000           -0.8906807             -24.2367
       ...           ...                  ...                  ...
        58        2.0000           -0.5258618             -14.3094
        59        2.0000           -0.5230883             -14.2340
        60        2.0000           -0.5178131             -14.0904
        61        2.0000           -0.5148241             -14.0091
        62        2.0000           -0.5142840             -13.9944
        63        2.0000           -0.5087506             -13.8438
        64        2.0000           -0.4919093             -13.3855
        65        2.0000           -0.4846097             -13.1869
        66        2.0000           -0.4825568             -13.1310
        67        2.0000           -0.4745213             -12.9124
        68        2.0000           -0.4711793             -12.8214
        69        2.0000           -0.4616475             -12.5621
        70        2.0000           -0.4595744             -12.5057 (HOMO)
        71                         -0.3745387             -10.1917 (LUMO)
        72                         -0.3294984              -8.9661
        73                         -0.3248495              -8.8396
        74                         -0.2851175              -7.7584
        75                         -0.2644898              -7.1971
        76                         -0.2119311              -5.7669
        77                         -0.2006256              -5.4593
        78                         -0.1651191              -4.4931
        79                         -0.1544789              -4.2036
        80                         -0.1484020              -4.0382
        81                         -0.1452642              -3.9528
       ...                                ...                  ...
       144                          0.7057473              19.2044
      -------------------------------------------------------------
                  HL-Gap            0.0850358 Eh            2.3139 eV

Wiberg/Mayer (AO) data.
largest (>0.10) Wiberg bond orders for each atom

     #   Z sym  total        # sym  WBO       # sym  WBO       # sym  WBO
 ---------------------------------------------------------------------------
     1   6 C    3.849 --    28 H    0.985    27 H    0.977    29 H    0.977
                             2 O    0.876
     2   8 O    2.243 --     3 C    1.173     1 C    0.876     4 O    0.142
     3   6 C    3.856 --     4 O    1.622     2 O    1.173     5 C    0.986
     4   8 O    1.969 --     3 C    1.622     2 O    0.142
     5   6 C    3.969 --    25 C    1.372     6 N    1.301     3 C    0.986
     6   7 N    3.051 --     7 C    1.499     5 C    1.301
     7   6 C    3.910 --     6 N    1.499    20 N    1.181     8 C    0.980
     8   6 C    3.934 --    10 C    0.985     7 C    0.980     9 C    0.979
                            11 N    0.933
     9   6 C    3.985 --    31 H    0.982    32 H    0.980    30 H    0.979
                             8 C    0.979
    10   6 C    3.985 --     8 C    0.985    33 H    0.984    34 H    0.983
                            35 H    0.982
    11   7 N    3.335 --    12 C    1.232     8 C    0.933    36 H    0.885
                            13 O    0.167
    12   6 C    3.913 --    13 O    1.586    11 N    1.232    14 C    1.004
    13   8 O    1.898 --    12 C    1.586    11 N    0.167
    14   6 C    3.877 --    15 N    1.615    19 O    1.046    12 C    1.004
    15   7 N    3.004 --    14 C    1.615    16 N    1.206
    16   7 N    2.982 --    17 C    1.602    15 N    1.206
    17   6 C    3.865 --    16 N    1.602    19 O    1.074    18 C    1.033
    18   6 C    3.985 --    17 C    1.033    39 H    0.982    37 H    0.962
                            38 H    0.960
    19   8 O    2.317 --    17 C    1.074    14 C    1.046
    20   7 N    3.581 --    22 C    1.265     7 C    1.181    21 C    0.912
    21   6 C    3.893 --    40 H    0.974    41 H    0.969    42 H    0.968
                            20 N    0.912
    22   6 C    3.896 --    20 N    1.265    25 C    1.215    23 O    1.162
    23   8 O    2.249 --    22 C    1.162    24 C    0.861
    24   6 C    3.829 --    44 H    0.981    43 H    0.976    45 H    0.976
                            23 O    0.861
    25   6 C    3.933 --     5 C    1.372    22 C    1.215    26 O    1.133
    26   8 O    2.094 --    25 C    1.133    46 H    0.745
    27   1 H    1.002 --     1 C    0.977
    28   1 H    1.007 --     1 C    0.985
    29   1 H    1.002 --     1 C    0.977
    30   1 H    0.993 --     9 C    0.979
    31   1 H    0.998 --     9 C    0.982
    32   1 H    0.998 --     9 C    0.980
    33   1 H    0.999 --    10 C    0.984
    34   1 H    1.007 --    10 C    0.983
    35   1 H    1.006 --    10 C    0.982
    36   1 H    0.926 --    11 N    0.885
    37   1 H    0.996 --    18 C    0.962
    38   1 H    0.995 --    18 C    0.960
    39   1 H    0.997 --    18 C    0.982
    40   1 H    1.005 --    21 C    0.974
    41   1 H    0.996 --    21 C    0.969
    42   1 H    0.996 --    21 C    0.968
    43   1 H    1.006 --    24 C    0.976
    44   1 H    1.005 --    24 C    0.981
    45   1 H    1.006 --    24 C    0.976
    46   1 H    0.829 --    26 O    0.745
 ---------------------------------------------------------------------------

           -------------------------------------------------
          | TOTAL ENERGY              -86.367444750000 Eh   |
          | GRADIENT NORM               0.000350287621 Eh/α |
          | HOMO-LUMO GAP               2.313940830432 eV   |
           -------------------------------------------------

 * finished run on 2023/06/20 at 15:56:19.391
