   * xtb version 6.5.1 (579679a) compiled by 'ehlert@majestix' on 2022-07-11
          program call               : /lustre/hpc/kemi/ree/PhD/git/ReactivityQM/dep/xtb-6.5.1/bin/xtb --gfn 1 /lustre/hpc/kemi/ree/PhD/git/ReactivityQM/calculations/R02oxygendeprot/reac01prodN07/conf16/R02oxygendeprot_reac01prodN07_conf16_gfn1.xyz --opt --vfukui --chrg 0 --uhf 0 --alpb DMSO

   ID    Z sym.   atoms
    1    6 C      1, 3, 5, 7-10, 12, 14, 17-19, 22, 24
    2    8 O      2, 4, 13, 20, 23, 25
    3    7 N      6, 11, 15, 16, 21
    4    1 H      26-42

      * Solvation model:               ALPB
        Solvent                        DMSO
        Solvent mass                       7.8130E+01 g/mol
          :  Hamiltonian                  GFN1-xTB          :
 * total energy  :   -82.9534276 Eh     change       -0.1884359E-10 Eh
 * total energy  :   -82.9695838 Eh     change       -0.1615621E-01 Eh
 * total energy  :   -82.9762603 Eh     change       -0.6676450E-02 Eh
 * total energy  :   -82.9772668 Eh     change       -0.1006482E-02 Eh
 * total energy  :   -82.9778611 Eh     change       -0.5943101E-03 Eh
 * total energy  :   -82.9780584 Eh     change       -0.1972657E-03 Eh
 * total energy  :   -82.9782574 Eh     change       -0.1990471E-03 Eh
 * total energy  :   -82.9784421 Eh     change       -0.1847150E-03 Eh
 * total energy  :   -82.9785964 Eh     change       -0.1543086E-03 Eh
 * total energy  :   -82.9787127 Eh     change       -0.1163178E-03 Eh
 * total energy  :   -82.9795185 Eh     change       -0.1527145E-04 Eh
 * total energy  :   -82.9795374 Eh     change       -0.1887755E-04 Eh
 * total energy  :   -82.9795541 Eh     change       -0.1673179E-04 Eh
 * total energy  :   -82.9795678 Eh     change       -0.1366414E-04 Eh
 * total energy  :   -82.9795786 Eh     change       -0.1080868E-04 Eh
 * total energy  :   -82.9795884 Eh     change       -0.9873819E-05 Eh
 * total energy  :   -82.9795972 Eh     change       -0.8732408E-05 Eh
 * total energy  :   -82.9796039 Eh     change       -0.6702856E-05 Eh
 * total energy  :   -82.9796086 Eh     change       -0.4691239E-05 Eh
   *** GEOMETRY OPTIMIZATION CONVERGED AFTER 54 ITERATIONS ***

 final structure:
================
42
 xtb: 6.5.1 (579679a)
C            6.93303112818515       -0.06925168382478        1.48619440378680
O            5.80266368505051        0.56697145910283        0.90505502976362
C            4.75542283052015       -0.24220897724287        0.61201181851240
O            4.80827500867232       -1.44335618886334        0.84807647952522
C            3.61485708143637        0.43309360253060        0.00808061611017
N            2.58104962120166       -0.43348911304711       -0.29269281411835
C            1.50946646435514       -0.01166539699569       -0.85232097612359
C            0.41628524047745       -1.00121645994317       -1.21669274827810
C            0.22154176131270       -1.07322672550673       -2.73533832323921
C            0.78193014509028       -2.38069319636019       -0.66691362991208
N           -0.85725712812944       -0.61970339205742       -0.55704850028160
C           -1.69092843630700        0.33788242287366       -0.96158983585873
O           -1.53728862326086        1.12911908085915       -1.87368252349382
C           -2.94734153085362        0.39883517877130       -0.13555726340763
N           -3.91814347673045        1.25186529800047       -0.26563149765378
N           -4.81712233816677        0.90004929218158        0.67171610255265
C           -6.06149176812492        1.62993443681704        0.79562490554010
C           -4.38574791343393       -0.14682994659298        1.34233653176630
C           -5.03877044774880       -0.88135524687808        2.43697336357542
O           -3.20662719636964       -0.48005511685640        0.85506502753676
N            1.33484126756148        1.31540098104553       -1.18245454988558
C            2.25923939671720        2.29181821923411       -0.91140473342538
O            2.01596898373032        3.46009022431340       -1.20343164611393
C            3.54561590213780        1.82512815730204       -0.26390428723605
O            4.42568960761351        2.66887568679295       -0.01836061054851
H            6.67447785891721       -0.50425504673427        2.45659834411141
H            7.69881160570154        0.69472093440416        1.61666232469342
H            7.30825745281408       -0.86318293645584        0.83288807108276
H            0.05551329923492       -0.08670217879285       -3.16240211542335
H            1.11559437750958       -1.50350059421811       -3.18519954856303
H           -0.63154323982240       -1.70734636916711       -2.96819782170549
H            0.00154001379786       -3.09882255662474       -0.90869568297146
H            1.72229907448158       -2.70964290588374       -1.10750361321233
H            0.90615777941873       -2.33376169326874        0.41401398990770
H           -1.15001131215941       -1.19977586618036        0.21055787136290
H           -5.94110879034038        2.58888946785747        0.29731689273048
H           -6.85540304425160        1.05440087737157        0.32133117888715
H           -6.28513802234911        1.76719186998981        1.85089781288961
H           -4.32556301193085       -1.56311860191515        2.89597961657442
H           -5.88018637128970       -1.45440849094453        2.04213344241053
H           -5.42816470523109       -0.18474349041490        3.17937226523366
H            0.46930877057541        1.61125698532769       -1.60986236711594

          :  Hamiltonian                  GFN1-xTB          :
         :: total energy             -82.979608566047 Eh    ::
         :: gradient norm              0.000281167653 Eh/a0 ::
         :: HOMO-LUMO gap              0.393603920662 eV    ::
         :: SCC energy               -83.767217999880 Eh    ::
         :: -> Gsolv                  -0.137060438086 Eh    ::
         :: repulsion energy           0.812637757666 Eh    ::

    * Orbital Energies and Occupations

         #    Occupation            Energy/Eh            Energy/eV
      -------------------------------------------------------------
         1        2.0000           -0.9361163             -25.4730
       ...           ...                  ...                  ...
        55        2.0000           -0.5047429             -13.7348
        56        2.0000           -0.5008643             -13.6292
        57        2.0000           -0.4958704             -13.4933
        58        2.0000           -0.4893884             -13.3169
        59        2.0000           -0.4823615             -13.1257
        60        2.0000           -0.4683533             -12.7445
        61        2.0000           -0.4667708             -12.7015
        62        2.0000           -0.4584843             -12.4760
        63        2.0000           -0.4424666             -12.0401
        64        2.0000           -0.4389657             -11.9449
        65        2.0000           -0.4204622             -11.4414
        66        2.0000           -0.3818427             -10.3905
        67        1.9990           -0.3697837             -10.0623 (HOMO)
        68        0.0010           -0.3553190              -9.6687 (LUMO)
        69                         -0.3417690              -9.3000
        70                         -0.2726004              -7.4178
        71                         -0.2454859              -6.6800
        72                         -0.2365528              -6.4369
        73                         -0.1995099              -5.4289
        74                         -0.1838673              -5.0033
        75                         -0.1711602              -4.6575
        76                         -0.1292548              -3.5172
        77                         -0.1238981              -3.3714
        78                         -0.1237312              -3.3669
       ...                                ...                  ...
       134                          0.7537805              20.5114
      -------------------------------------------------------------
                  HL-Gap            0.0144647 Eh            0.3936 eV

Wiberg/Mayer (AO) data.
largest (>0.10) Wiberg bond orders for each atom

     #   Z sym  total        # sym  WBO       # sym  WBO       # sym  WBO
 ---------------------------------------------------------------------------
     1   6 C    3.897 --    27 H    0.987    26 H    0.981    28 H    0.980
                             2 O    0.923
     2   8 O    2.163 --     3 C    1.052     1 C    0.923     4 O    0.111
     3   6 C    3.850 --     4 O    1.578     5 C    1.109     2 O    1.052
     4   8 O    1.853 --     3 C    1.578     2 O    0.111
     5   6 C    3.909 --    24 C    1.268     6 N    1.157     3 C    1.109
                            25 O    0.128
     6   7 N    3.033 --     7 C    1.629     5 C    1.157
     7   6 C    3.933 --     6 N    1.629    21 N    1.099     8 C    0.967
     8   6 C    3.913 --    10 C    1.002     9 C    0.988     7 C    0.967
                            11 N    0.890
     9   6 C    3.988 --     8 C    0.988    31 H    0.985    30 H    0.984
                            29 H    0.980
    10   6 C    3.991 --     8 C    1.002    32 H    0.986    34 H    0.982
                            33 H    0.981
    11   7 N    3.395 --    12 C    1.319    35 H    0.892     8 C    0.890
                            13 O    0.201
    12   6 C    3.926 --    13 O    1.576    11 N    1.319    14 C    0.957
    13   8 O    1.928 --    12 C    1.576    11 N    0.201
    14   6 C    3.833 --    15 N    1.613    20 O    1.050    12 C    0.957
    15   7 N    2.977 --    14 C    1.613    16 N    1.149
    16   7 N    3.632 --    18 C    1.427    15 N    1.149    17 C    0.911
    17   6 C    3.887 --    36 H    0.977    38 H    0.974    37 H    0.965
                            16 N    0.911
    18   6 C    3.841 --    16 N    1.427    20 O    1.145    19 C    1.042
    19   6 C    3.961 --    18 C    1.042    39 H    0.971    41 H    0.954
                            40 H    0.938
    20   8 O    2.372 --    18 C    1.145    14 C    1.050
    21   7 N    3.428 --    22 C    1.163     7 C    1.099    42 H    0.881
                            23 O    0.136
    22   6 C    3.879 --    23 O    1.579    21 N    1.163    24 C    0.966
    23   8 O    1.859 --    22 C    1.579    21 N    0.136
    24   6 C    3.941 --    25 O    1.525     5 C    1.268    22 C    0.966
    25   8 O    1.827 --    24 C    1.525     5 C    0.128
    26   1 H    1.013 --     1 C    0.981
    27   1 H    1.015 --     1 C    0.987
    28   1 H    1.014 --     1 C    0.980
    29   1 H    1.009 --     9 C    0.980
    30   1 H    1.002 --     9 C    0.984
    31   1 H    0.999 --     9 C    0.985
    32   1 H    0.999 --    10 C    0.986
    33   1 H    1.011 --    10 C    0.981
    34   1 H    1.007 --    10 C    0.982
    35   1 H    0.933 --    11 N    0.892
    36   1 H    0.992 --    17 C    0.977
    37   1 H    0.989 --    17 C    0.965
    38   1 H    0.990 --    17 C    0.974
    39   1 H    0.986 --    19 C    0.971
    40   1 H    0.985 --    19 C    0.938
    41   1 H    0.987 --    19 C    0.954
    42   1 H    0.949 --    21 N    0.881
 ---------------------------------------------------------------------------

           -------------------------------------------------
          | TOTAL ENERGY              -82.979608566047 Eh   |
          | GRADIENT NORM               0.000281167653 Eh/α |
          | HOMO-LUMO GAP               0.393603920662 eV   |
           -------------------------------------------------

 * finished run on 2023/06/21 at 17:23:04.321
