   * xtb version 6.5.1 (579679a) compiled by 'ehlert@majestix' on 2022-07-11
          program call               : /lustre/hpc/kemi/ree/PhD/git/ReactivityQM/dep/xtb-6.5.1/bin/xtb --gfn 1 /lustre/hpc/kemi/ree/PhD/git/ReactivityQM/calculations/R02methylcation/reac01prodE01/conf16/R02methylcation_reac01prodE01_conf16_gfn1.xyz --opt --vfukui --chrg -2 --uhf 0 --alpb DMSO

   ID    Z sym.   atoms
    1    6 C      1, 3, 5, 7-10, 12, 13, 15, 18, 19, 22, 24
    2    8 O      2, 4, 14, 20, 23, 25
    3    7 N      6, 11, 16, 17, 21
    4    1 H      26-42

      * Solvation model:               ALPB
        Solvent                        DMSO
        Solvent mass                       7.8130E+01 g/mol
          :  Hamiltonian                  GFN1-xTB          :
 * total energy  :   -83.6289083 Eh     change       -0.1665512E-10 Eh
 * total energy  :   -83.6425649 Eh     change       -0.1365655E-01 Eh
 * total energy  :   -83.6476190 Eh     change       -0.5054182E-02 Eh
 * total energy  :   -83.6484927 Eh     change       -0.8736036E-03 Eh
 * total energy  :   -83.6489426 Eh     change       -0.4499266E-03 Eh
 * total energy  :   -83.6491718 Eh     change       -0.2292141E-03 Eh
 * total energy  :   -83.6493336 Eh     change       -0.1617712E-03 Eh
 * total energy  :   -83.6494233 Eh     change       -0.8969036E-04 Eh
 * total energy  :   -83.6494760 Eh     change       -0.5279154E-04 Eh
 * total energy  :   -83.6495160 Eh     change       -0.3995408E-04 Eh
 * total energy  :   -83.6498409 Eh     change       -0.6267313E-05 Eh
 * total energy  :   -83.6498526 Eh     change       -0.1166252E-04 Eh
 * total energy  :   -83.6498637 Eh     change       -0.1112982E-04 Eh
 * total energy  :   -83.6498739 Eh     change       -0.1018492E-04 Eh
 * total energy  :   -83.6498873 Eh     change       -0.1339415E-04 Eh
 * total energy  :   -83.6498965 Eh     change       -0.9181198E-05 Eh
 * total energy  :   -83.6498960 Eh     change        0.4884848E-06 Eh
 * total energy  :   -83.6499021 Eh     change       -0.6138323E-05 Eh
 * total energy  :   -83.6499035 Eh     change       -0.1393920E-05 Eh
   *** GEOMETRY OPTIMIZATION CONVERGED AFTER 37 ITERATIONS ***

 final structure:
================
42
 xtb: 6.5.1 (579679a)
C            7.08123841440259        0.03177759534050       -1.04416572902339
O            5.77608236687934        0.58058386177986       -1.11655033124251
C            4.78808639150114       -0.16983655972960       -0.55201251169428
O            5.06026176196987       -1.24070083575226       -0.01570814466838
C            3.45666864241148        0.39864830482934       -0.65172847595335
N            2.48576470419910       -0.40562895544146       -0.07048508381217
C            1.25410916051136       -0.04537126457412       -0.08856386820234
C            0.17537715285729       -0.89514436503329        0.58674067621064
C            0.34737589755739       -2.34750387216191        0.10515453530226
C            0.45363093373509       -0.82928159031255        2.09635976357977
N           -1.12173929676387       -0.35683528383297        0.16965326407266
C           -2.29677864842884       -0.27385046955080        1.15610668966966
C           -2.95731095000342       -1.69200915828721        1.23741030478028
O           -2.04099786444578        0.27839746789872        2.30237568121624
C           -3.28108395273862        0.62383671683995        0.31734890965732
N           -2.97369264330779        1.68994525102499       -0.35318253852032
N           -4.15964057944459        2.25001384362541       -0.79013873871945
C           -5.10113228925012        1.48771665834414       -0.34927956317476
C           -6.56283177954914        1.64517160690249       -0.54697258788683
O           -4.62298862273301        0.44507995926448        0.36009093859706
N            0.85454216474644        1.13678436195863       -0.66174752459757
C            1.69267010378268        2.02303697180089       -1.26686743745271
O            1.24576788924622        3.05801947274084       -1.77027727917449
C            3.15617987918435        1.64235554601969       -1.26521385689571
O            3.97595159298511        2.42414581909545       -1.79373436946467
H            7.75376221672362        0.73491374728558       -1.53434414815021
H            7.38994503377681       -0.10733587050876       -0.00286232752294
H            7.12600810971278       -0.93614493748410       -1.55416998027340
H           -0.33302554326733       -3.00990180067174        0.63674304849905
H            1.37234427176960       -2.67435704541582        0.28491630095964
H            0.14221739190857       -2.42089403524086       -0.96246805477968
H           -0.24840182726099       -1.44675538992218        2.65308475433784
H            1.46497498458222       -1.19974802022630        2.27433763531695
H            0.38573256802926        0.19516172414518        2.46163033231978
H           -1.44788604930507       -0.89244200805393       -0.62818314830630
H           -3.89116479540433       -1.60484855341682        1.79070826342093
H           -2.29524798258511       -2.36590737572655        1.77690795244516
H           -3.16302588067779       -2.09727013452648        0.24859933383667
H           -6.96736926288262        0.77637629160822       -1.06627289358683
H           -6.75814129376085        2.53886538050249       -1.13508681742932
H           -7.06816045507303        1.72759824934278        0.41527796129505
H           -0.14807191557942        1.32333669551014       -0.66398093498514

          :  Hamiltonian                  GFN1-xTB          :
         :: total energy             -83.649903509937 Eh    ::
         :: gradient norm              0.000499683071 Eh/a0 ::
         :: HOMO-LUMO gap              2.134581782810 eV    ::
         :: SCC energy               -84.383693412418 Eh    ::
         :: -> Gsolv                  -0.276628991428 Eh    ::
         :: repulsion energy           0.759916237108 Eh    ::

    * Orbital Energies and Occupations

         #    Occupation            Energy/Eh            Energy/eV
      -------------------------------------------------------------
         1        2.0000           -0.8152271             -22.1835
       ...           ...                  ...                  ...
        56        2.0000           -0.4409311             -11.9983
        57        2.0000           -0.4397831             -11.9671
        58        2.0000           -0.4314011             -11.7390
        59        2.0000           -0.4269082             -11.6168
        60        2.0000           -0.4218816             -11.4800
        61        2.0000           -0.4104360             -11.1685
        62        2.0000           -0.4053675             -11.0306
        63        2.0000           -0.3992097             -10.8631
        64        2.0000           -0.3704813             -10.0813
        65        2.0000           -0.3624056              -9.8616
        66        2.0000           -0.3509073              -9.5487
        67        2.0000           -0.3455291              -9.4023
        68        2.0000           -0.3367946              -9.1646 (HOMO)
        69                         -0.2583502              -7.0301 (LUMO)
        70                         -0.2224764              -6.0539
        71                         -0.2180449              -5.9333
        72                         -0.2059736              -5.6048
        73                         -0.1851300              -5.0376
        74                         -0.1271541              -3.4600
        75                         -0.1186768              -3.2294
        76                         -0.1021037              -2.7784
        77                         -0.0958666              -2.6087
        78                         -0.0862684              -2.3475
        79                         -0.0803783              -2.1872
       ...                                ...                  ...
       134                          0.7560694              20.5737
      -------------------------------------------------------------
                  HL-Gap            0.0784444 Eh            2.1346 eV

Wiberg/Mayer (AO) data.
largest (>0.10) Wiberg bond orders for each atom

     #   Z sym  total        # sym  WBO       # sym  WBO       # sym  WBO
 ---------------------------------------------------------------------------
     1   6 C    3.904 --    26 H    0.987    28 H    0.980    27 H    0.980
                             2 O    0.931
     2   8 O    2.151 --     3 C    1.034     1 C    0.931     4 O    0.106
     3   6 C    3.849 --     4 O    1.565     5 C    1.129     2 O    1.034
     4   8 O    1.843 --     3 C    1.565     2 O    0.106
     5   6 C    3.920 --    24 C    1.281     6 N    1.143     3 C    1.129
                            25 O    0.130
     6   7 N    3.019 --     7 C    1.627     5 C    1.143
     7   6 C    3.925 --     6 N    1.627    21 N    1.111     8 C    0.966
     8   6 C    3.968 --     9 C    0.984    10 C    0.984    11 N    0.978
                             7 C    0.966
     9   6 C    3.995 --    31 H    0.985    29 H    0.985     8 C    0.984
                            30 H    0.983
    10   6 C    3.995 --    33 H    0.986     8 C    0.984    34 H    0.983
                            32 H    0.981
    11   7 N    3.010 --     8 C    0.978    35 H    0.951    12 C    0.847
    12   6 C    3.933 --    14 O    1.220    13 C    0.937    15 C    0.874
                            11 N    0.847
    13   6 C    3.991 --    38 H    0.989    36 H    0.985    37 H    0.983
                            12 C    0.937
    14   8 O    1.544 --    12 C    1.220
    15   6 C    3.801 --    16 N    1.653    20 O    1.045    12 C    0.874
    16   7 N    2.969 --    15 C    1.653    17 N    1.148
    17   7 N    2.977 --    18 C    1.658    16 N    1.148
    18   6 C    3.888 --    17 N    1.658    20 O    1.061    19 C    1.024
    19   6 C    3.993 --    18 C    1.024    40 H    0.985    41 H    0.971
                            39 H    0.970
    20   8 O    2.291 --    18 C    1.061    15 C    1.045
    21   7 N    3.451 --    22 C    1.186     7 C    1.111    42 H    0.878
                            23 O    0.136
    22   6 C    3.886 --    23 O    1.549    21 N    1.186    24 C    0.974
    23   8 O    1.830 --    22 C    1.549    21 N    0.136
    24   6 C    3.945 --    25 O    1.498     5 C    1.281    22 C    0.974
    25   8 O    1.803 --    24 C    1.498     5 C    0.130
    26   1 H    1.017 --     1 C    0.987
    27   1 H    1.016 --     1 C    0.980
    28   1 H    1.015 --     1 C    0.980
    29   1 H    1.009 --     9 C    0.985
    30   1 H    1.017 --     9 C    0.983
    31   1 H    1.007 --     9 C    0.985
    32   1 H    1.025 --    10 C    0.981
    33   1 H    1.015 --    10 C    0.986
    34   1 H    1.032 --    10 C    0.983
    35   1 H    0.981 --    11 N    0.951
    36   1 H    1.017 --    13 C    0.985
    37   1 H    1.016 --    13 C    0.983
    38   1 H    1.009 --    13 C    0.989
    39   1 H    1.002 --    19 C    0.970
    40   1 H    1.003 --    19 C    0.985
    41   1 H    1.002 --    19 C    0.971
    42   1 H    0.984 --    21 N    0.878
 ---------------------------------------------------------------------------

           -------------------------------------------------
          | TOTAL ENERGY              -83.649903509937 Eh   |
          | GRADIENT NORM               0.000499683071 Eh/α |
          | HOMO-LUMO GAP               2.134581782810 eV   |
           -------------------------------------------------

 * finished run on 2023/06/21 at 17:03:48.278
