   * xtb version 6.5.1 (579679a) compiled by 'ehlert@majestix' on 2022-07-11
          program call               : /lustre/hpc/kemi/ree/PhD/git/ReactivityQM/dep/xtb-6.5.1/bin/xtb --gfn 1 /lustre/hpc/kemi/ree/PhD/git/ReactivityQM/calculations/R02methylcation/reac01prodN16/conf04/R02methylcation_reac01prodN16_conf04_gfn1.xyz --opt --vfukui --chrg 0 --uhf 0 --alpb DMSO

   ID    Z sym.   atoms
    1    6 C      1, 2, 5, 6, 9-12, 14, 15, 18-20, 22
    2    7 N      3, 4, 8, 13, 24
    3    8 O      7, 16, 17, 21, 23, 25
    4    1 H      26-42

      * Solvation model:               ALPB
        Solvent                        DMSO
        Solvent mass                       7.8130E+01 g/mol
          :  Hamiltonian                  GFN1-xTB          :
 * total energy  :   -82.9208622 Eh     change       -0.2000888E-10 Eh
 * total energy  :   -82.9376742 Eh     change       -0.1681204E-01 Eh
 * total energy  :   -82.9457535 Eh     change       -0.8079276E-02 Eh
 * total energy  :   -82.9476637 Eh     change       -0.1910206E-02 Eh
 * total energy  :   -82.9491170 Eh     change       -0.1453331E-02 Eh
 * total energy  :   -82.9500293 Eh     change       -0.9122935E-03 Eh
 * total energy  :   -82.9506867 Eh     change       -0.6573973E-03 Eh
 * total energy  :   -82.9512391 Eh     change       -0.5523842E-03 Eh
 * total energy  :   -82.9516800 Eh     change       -0.4408801E-03 Eh
 * total energy  :   -82.9520534 Eh     change       -0.3733784E-03 Eh
 * total energy  :   -82.9545657 Eh     change       -0.3358411E-04 Eh
 * total energy  :   -82.9545959 Eh     change       -0.3025348E-04 Eh
 * total energy  :   -82.9546170 Eh     change       -0.2102584E-04 Eh
 * total energy  :   -82.9546305 Eh     change       -0.1355050E-04 Eh
 * total energy  :   -82.9546365 Eh     change       -0.5973172E-05 Eh
 * total energy  :   -82.9546420 Eh     change       -0.5480917E-05 Eh
 * total energy  :   -82.9546379 Eh     change        0.4093383E-05 Eh
 * total energy  :   -82.9546459 Eh     change       -0.7996337E-05 Eh
 * total energy  :   -82.9546489 Eh     change       -0.3001918E-05 Eh
   *** GEOMETRY OPTIMIZATION CONVERGED AFTER 34 ITERATIONS ***

 final structure:
================
42
 xtb: 6.5.1 (579679a)
C            6.50299057667465        2.09446785263352       -2.08639336656459
C            5.42012243540677        1.62221397651155       -1.19585980872148
N            5.08321692443506        2.09780505584039       -0.03475069098348
N            4.03132403894802        1.34955044764670        0.40032701874860
C            3.79424380092611        0.46509999724513       -0.52157708909912
C            2.72813504752026       -0.56840664978337       -0.49299169661252
O            2.54578493850381       -1.36178627091357       -1.40300050745662
N            2.01579453262071       -0.48951574008212        0.64583170454899
C            0.89516036791865       -1.36253380068722        1.02919927318565
C            0.58228650958643       -1.05532452396990        2.49520323809862
C            1.28584381827847       -2.83727380374050        0.88074197365123
C           -0.32043322311378       -1.02237141072561        0.17704159964535
N           -1.33206004960546       -0.46614088191098        0.72771786700422
C           -2.45806614145928       -0.14119254862726       -0.02943084793961
C           -3.45983360626147        0.40895621442789        0.76999900604244
O           -3.58201981552556        0.66458268479468        1.92921991076280
O           -4.78644665260965        0.72676076515819       -0.07857933391151
C           -5.96328437591197        0.50333325071664        0.72269093176357
C           -4.73612209112068        2.04491876594480       -0.66694005861990
C           -2.51656936026417       -0.37222664353321       -1.44296895085068
O           -3.44083979447166       -0.04146662638874       -2.18720994763550
C           -1.30372339726326       -1.06886195985327       -2.03746453215835
O           -1.21407962777167       -1.36926902117968       -3.21552495321200
N           -0.29100127016413       -1.34099160630293       -1.16016082755615
O            4.64262880600089        0.59136042816764       -1.55754039376568
H            7.13364667970927        1.25701919735587       -2.38283129903613
H            7.10085052554505        2.84216026734005       -1.57089265617746
H            6.07656509152252        2.53271196605172       -2.98941147177306
H            2.27807589790367        0.22664849842695        1.30713545815130
H            1.45363465332971       -1.26557242452794        3.11243960306966
H            0.30198586651446       -0.00934392704592        2.61102318673540
H           -0.24852194028862       -1.67480335395288        2.82905488354865
H            0.45518348029652       -3.46086192949120        1.20776387142946
H            2.15349574352062       -3.04681290174721        1.50405186225221
H            1.52788446551849       -3.08683671614627       -0.14960962699680
H           -5.93686224845744       -0.53574292217810        1.04485060373163
H           -5.96588150606268        1.17442147851096        1.58326928041718
H           -6.82831823048651        0.68655247826065        0.08937378728350
H           -3.81176462786484        2.10710491453846       -1.23786155165248
H           -4.76812033383662        2.80554013830717        0.11530008466714
H           -5.59398973222314        2.13621008901232       -1.33166723163775
H            0.54908382408834       -1.76008280410063       -1.54649130237899

          :  Hamiltonian                  GFN1-xTB          :
         :: total energy             -82.954648870446 Eh    ::
         :: gradient norm              0.000834011138 Eh/a0 ::
         :: HOMO-LUMO gap              2.422899309511 eV    ::
         :: SCC energy               -83.745424694828 Eh    ::
         :: -> Gsolv                  -0.060425654487 Eh    ::
         :: repulsion energy           0.816577551679 Eh    ::

    * Orbital Energies and Occupations

         #    Occupation            Energy/Eh            Energy/eV
      -------------------------------------------------------------
         1        2.0000           -0.8816253             -23.9902
       ...           ...                  ...                  ...
        55        2.0000           -0.5068026             -13.7908
        56        2.0000           -0.5041102             -13.7175
        57        2.0000           -0.4992277             -13.5847
        58        2.0000           -0.4910593             -13.3624
        59        2.0000           -0.4836603             -13.1611
        60        2.0000           -0.4711322             -12.8202
        61        2.0000           -0.4665108             -12.6944
        62        2.0000           -0.4635065             -12.6127
        63        2.0000           -0.4535875             -12.3427
        64        2.0000           -0.4534395             -12.3387
        65        2.0000           -0.4413532             -12.0098
        66        2.0000           -0.4172256             -11.3533
        67        2.0000           -0.4098672             -11.1531 (HOMO)
        68                         -0.3208272              -8.7302 (LUMO)
        69                         -0.3121967              -8.4953
        70                         -0.2684278              -7.3043
        71                         -0.2576848              -7.0120
        72                         -0.2400744              -6.5328
        73                         -0.2001909              -5.4475
        74                         -0.1678623              -4.5678
        75                         -0.1531547              -4.1676
        76                         -0.1474646              -4.0127
        77                         -0.1433354              -3.9004
        78                         -0.1424019              -3.8750
       ...                                ...                  ...
       134                          0.7871870              21.4204
      -------------------------------------------------------------
                  HL-Gap            0.0890399 Eh            2.4229 eV

Wiberg/Mayer (AO) data.
largest (>0.10) Wiberg bond orders for each atom

     #   Z sym  total        # sym  WBO       # sym  WBO       # sym  WBO
 ---------------------------------------------------------------------------
     1   6 C    3.986 --     2 C    1.031    27 H    0.982    26 H    0.966
                            28 H    0.960
     2   6 C    3.870 --     3 N    1.604    25 O    1.084     1 C    1.031
     3   7 N    2.980 --     2 C    1.604     4 N    1.201
     4   7 N    3.017 --     5 C    1.609     3 N    1.201
     5   6 C    3.876 --     4 N    1.609    25 O    1.065     6 C    0.990
     6   6 C    3.918 --     7 O    1.574     8 N    1.268     5 C    0.990
     7   8 O    1.919 --     6 C    1.574     8 N    0.178
     8   7 N    3.351 --     6 C    1.268     9 C    0.913    29 H    0.893
                             7 O    0.178
     9   6 C    3.932 --    10 C    1.002    11 C    0.989    12 C    0.966
                             8 N    0.913
    10   6 C    3.992 --     9 C    1.002    30 H    0.985    32 H    0.983
                            31 H    0.982
    11   6 C    3.988 --     9 C    0.989    33 H    0.985    34 H    0.984
                            35 H    0.977
    12   6 C    3.935 --    13 N    1.659    24 N    1.115     9 C    0.966
    13   7 N    3.024 --    12 C    1.659    14 C    1.098
    14   6 C    3.919 --    15 C    1.301    20 C    1.192    13 N    1.098
                            16 O    0.111
    15   6 C    3.809 --    16 O    1.719    14 C    1.301    17 O    0.602
    16   8 O    2.043 --    15 C    1.719    14 C    0.111
    17   8 O    2.443 --    18 C    0.860    19 C    0.852    15 C    0.602
    18   6 C    3.832 --    36 H    0.979    37 H    0.979    38 H    0.979
                            17 O    0.860
    19   6 C    3.827 --    40 H    0.983    41 H    0.978    39 H    0.974
                            17 O    0.852
    20   6 C    3.922 --    21 O    1.595    14 C    1.192    22 C    0.945
    21   8 O    1.907 --    20 C    1.595
    22   6 C    3.889 --    23 O    1.625    24 N    1.171    20 C    0.945
    23   8 O    1.902 --    22 C    1.625    24 N    0.140
    24   7 N    3.444 --    22 C    1.171    12 C    1.115    42 H    0.864
                            23 O    0.140
    25   8 O    2.332 --     2 C    1.084     5 C    1.065
    26   1 H    0.996 --     1 C    0.966
    27   1 H    0.998 --     1 C    0.982
    28   1 H    0.997 --     1 C    0.960
    29   1 H    0.950 --     8 N    0.893
    30   1 H    0.999 --    10 C    0.985
    31   1 H    1.009 --    10 C    0.982
    32   1 H    1.007 --    10 C    0.983
    33   1 H    1.001 --    11 C    0.985
    34   1 H    1.000 --    11 C    0.984
    35   1 H    1.008 --    11 C    0.977
    36   1 H    1.001 --    18 C    0.979
    37   1 H    1.005 --    18 C    0.979
    38   1 H    1.000 --    18 C    0.979
    39   1 H    1.014 --    19 C    0.974
    40   1 H    0.998 --    19 C    0.983
    41   1 H    1.001 --    19 C    0.978
    42   1 H    0.942 --    24 N    0.864
 ---------------------------------------------------------------------------

           -------------------------------------------------
          | TOTAL ENERGY              -82.954648870446 Eh   |
          | GRADIENT NORM               0.000834011138 Eh/α |
          | HOMO-LUMO GAP               2.422899309511 eV   |
           -------------------------------------------------

 * finished run on 2023/06/21 at 17:58:25.841
