   * xtb version 6.5.1 (579679a) compiled by 'ehlert@majestix' on 2022-07-11
          program call               : /lustre/hpc/kemi/ree/PhD/git/ReactivityQM/dep/xtb-6.5.1/bin/xtb --gfn 1 /lustre/hpc/kemi/ree/PhD/git/ReactivityQM/calculations/R02oxygendeprot/reac01prodN02/conf13/R02oxygendeprot_reac01prodN02_conf13_gfn1.xyz --opt --vfukui --chrg 0 --uhf 0 --alpb DMSO

   ID    Z sym.   atoms
    1    6 C      1, 3, 5, 7-10, 12, 14, 15, 18, 19, 22, 24
    2    8 O      2, 4, 13, 20, 23, 25
    3    7 N      6, 11, 16, 17, 21
    4    1 H      26-42

      * Solvation model:               ALPB
        Solvent                        DMSO
        Solvent mass                       7.8130E+01 g/mol
          :  Hamiltonian                  GFN1-xTB          :
 * total energy  :   -82.9416473 Eh     change       -0.6814105E-10 Eh
 * total energy  :   -82.9602487 Eh     change       -0.1860141E-01 Eh
 * total energy  :   -82.9684692 Eh     change       -0.8220540E-02 Eh
 * total energy  :   -82.9700747 Eh     change       -0.1605434E-02 Eh
 * total energy  :   -82.9712735 Eh     change       -0.1198821E-02 Eh
 * total energy  :   -82.9718409 Eh     change       -0.5674162E-03 Eh
 * total energy  :   -82.9723249 Eh     change       -0.4840368E-03 Eh
 * total energy  :   -82.9726462 Eh     change       -0.3212774E-03 Eh
 * total energy  :   -82.9728292 Eh     change       -0.1829664E-03 Eh
 * total energy  :   -82.9729472 Eh     change       -0.1180151E-03 Eh
 * total energy  :   -82.9756960 Eh     change       -0.3032936E-04 Eh
 * total energy  :   -82.9757310 Eh     change       -0.3498468E-04 Eh
 * total energy  :   -82.9757461 Eh     change       -0.1512517E-04 Eh
 * total energy  :   -82.9757584 Eh     change       -0.1223963E-04 Eh
 * total energy  :   -82.9757688 Eh     change       -0.1045366E-04 Eh
 * total energy  :   -82.9757739 Eh     change       -0.5054959E-05 Eh
 * total energy  :   -82.9757791 Eh     change       -0.5224751E-05 Eh
 * total energy  :   -82.9757858 Eh     change       -0.6710549E-05 Eh
 * total energy  :   -82.9757872 Eh     change       -0.1425826E-05 Eh
   *** GEOMETRY OPTIMIZATION CONVERGED AFTER 48 ITERATIONS ***

 final structure:
================
42
 xtb: 6.5.1 (579679a)
C            6.32694362456430        1.54879793875218        0.83636310650657
O            5.18472311752298        0.75663862775109        1.13932692202074
C            4.20626750202091        0.74827024536915        0.20666581936888
O            4.31741063442236        1.39028303622520       -0.82926251345181
C            3.04555195093704       -0.06813533983013        0.54956113152147
N            2.07355913316170       -0.04727146505880       -0.42864176836480
C            0.99319824894805       -0.71745955838865       -0.28860562921773
C           -0.04370832162819       -0.73967490921065       -1.38854201922562
C            0.22680120871446        0.37093841463106       -2.40457160929388
C           -0.07605334797020       -2.11228763686966       -2.06500230325907
N           -1.38178047912619       -0.52977210952573       -0.79038317600335
C           -1.70577632015675        0.44631573105864        0.02322593212263
O           -0.79707712683400        1.32440056094868        0.34073759899617
C           -1.06850572700046        2.42988138759430        1.21448459231624
C           -3.05422231578500        0.47520140130820        0.52993490621764
N           -3.62285967093023        1.31288332893311        1.35528941999163
N           -4.89447655167434        0.89952115037974        1.51889230048257
C           -5.04700018284108       -0.17027009252158        0.78777757711769
C           -6.25874004071668       -0.99600926396248        0.63075429600504
O           -3.91839664266332       -0.48693446872719        0.14036258178353
N            0.73305571104191       -1.47592716219110        0.83465115028873
C            1.60064353382775       -1.57208145009256        1.89787182501733
O            1.29282058952914       -2.24609424084331        2.87350686583344
C            2.90096146444142       -0.80748083904131        1.75566989545116
O            3.72679263167859       -0.87184005561089        2.67973355084578
H            6.81388823583962        1.19055896851908       -0.07585229997285
H            6.04291340370593        2.59628507094392        0.69672982908493
H            7.00964939254965        1.45944291162196        1.68056372477045
H            0.24613338473899        1.34038201790290       -1.91049786940156
H           -0.54556537928699        0.37080351531040       -3.16990178958297
H            1.19781260310507        0.19431921199351       -2.86566021488289
H           -0.83239358967280       -2.12909410094117       -2.84703722904465
H            0.89662971532466       -2.31910746389952       -2.50924254481838
H           -0.30292438115231       -2.88739135121934       -1.33524059679078
H           -2.11229337947696       -1.18059873813634       -1.03672126778626
H           -1.86660442163443        3.04527085391515        0.79763493486142
H           -0.13982092242332        2.99542495928664        1.27288381025850
H           -1.36407876587108        2.06705768598788        2.20024409696510
H           -6.05773953256060       -2.01243802274987        0.97105100167659
H           -6.53612576479959       -1.04676662651954       -0.42224336753609
H           -7.07495117073910       -0.56861058483496        1.20847579619799
H           -0.13466305113466       -1.97742853826703        0.90394253291968

          :  Hamiltonian                  GFN1-xTB          :
         :: total energy             -82.975787243378 Eh    ::
         :: gradient norm              0.000502349644 Eh/a0 ::
         :: HOMO-LUMO gap              0.293919356579 eV    ::
         :: SCC energy               -83.752137447700 Eh    ::
         :: -> Gsolv                  -0.105158462934 Eh    ::
         :: repulsion energy           0.802624927671 Eh    ::

    * Orbital Energies and Occupations

         #    Occupation            Energy/Eh            Energy/eV
      -------------------------------------------------------------
         1        2.0000           -0.8966256             -24.3984
       ...           ...                  ...                  ...
        55        2.0000           -0.5065027             -13.7826
        56        2.0000           -0.5012670             -13.6402
        57        2.0000           -0.5005378             -13.6203
        58        2.0000           -0.4938030             -13.4371
        59        2.0000           -0.4826764             -13.1343
        60        2.0000           -0.4795943             -13.0504
        61        2.0000           -0.4718167             -12.8388
        62        2.0000           -0.4694185             -12.7735
        63        2.0000           -0.4538921             -12.3510
        64        2.0000           -0.4459629             -12.1353
        65        2.0000           -0.4316906             -11.7469
        66        2.0000           -0.3913260             -10.6485
        67        1.9932           -0.3789349             -10.3113 (HOMO)
        68        0.0068           -0.3681336             -10.0174 (LUMO)
        69                         -0.2831808              -7.7057
        70                         -0.2811312              -7.6500
        71                         -0.2553501              -6.9484
        72                         -0.2480454              -6.7497
        73                         -0.2077514              -5.6532
        74                         -0.1591515              -4.3307
        75                         -0.1515877              -4.1249
        76                         -0.1438601              -3.9146
        77                         -0.1311294              -3.5682
        78                         -0.1253299              -3.4104
       ...                                ...                  ...
       134                          0.7512604              20.4428
      -------------------------------------------------------------
                  HL-Gap            0.0108013 Eh            0.2939 eV

Wiberg/Mayer (AO) data.
largest (>0.10) Wiberg bond orders for each atom

     #   Z sym  total        # sym  WBO       # sym  WBO       # sym  WBO
 ---------------------------------------------------------------------------
     1   6 C    3.894 --    28 H    0.987    27 H    0.980    26 H    0.980
                             2 O    0.920
     2   8 O    2.168 --     3 C    1.061     1 C    0.920     4 O    0.114
     3   6 C    3.850 --     4 O    1.585     5 C    1.097     2 O    1.061
     4   8 O    1.855 --     3 C    1.585     2 O    0.114
     5   6 C    3.902 --    24 C    1.258     6 N    1.168     3 C    1.097
                            25 O    0.123
     6   7 N    3.034 --     7 C    1.624     5 C    1.168
     7   6 C    3.927 --     6 N    1.624    21 N    1.093     8 C    0.970
     8   6 C    3.896 --    10 C    0.989     9 C    0.986     7 C    0.970
                            11 N    0.881
     9   6 C    3.983 --     8 C    0.986    30 H    0.986    29 H    0.982
                            31 H    0.980
    10   6 C    3.986 --     8 C    0.989    34 H    0.983    32 H    0.982
                            33 H    0.981
    11   7 N    3.473 --    12 C    1.440     8 C    0.881    35 H    0.875
                            13 O    0.106
    12   6 C    3.889 --    11 N    1.440    13 O    1.187    15 C    1.094
    13   8 O    2.268 --    12 C    1.187    14 C    0.867    11 N    0.106
    14   6 C    3.835 --    37 H    0.981    36 H    0.975    38 H    0.974
                            13 O    0.867
    15   6 C    3.882 --    16 N    1.540    12 C    1.094    20 O    1.045
    16   7 N    3.007 --    15 C    1.540    17 N    1.245
    17   7 N    2.985 --    18 C    1.556    16 N    1.245
    18   6 C    3.845 --    17 N    1.556    20 O    1.085    19 C    1.039
    19   6 C    3.980 --    18 C    1.039    41 H    0.980    40 H    0.956
                            39 H    0.954
    20   8 O    2.326 --    18 C    1.085    15 C    1.045
    21   7 N    3.415 --    22 C    1.147     7 C    1.093    42 H    0.897
                            23 O    0.134
    22   6 C    3.873 --    23 O    1.596    21 N    1.147    24 C    0.962
    23   8 O    1.873 --    22 C    1.596    21 N    0.134
    24   6 C    3.938 --    25 O    1.537     5 C    1.258    22 C    0.962
    25   8 O    1.829 --    24 C    1.537     5 C    0.123
    26   1 H    1.012 --     1 C    0.980
    27   1 H    1.013 --     1 C    0.980
    28   1 H    1.015 --     1 C    0.987
    29   1 H    1.009 --     9 C    0.982
    30   1 H    0.999 --     9 C    0.986
    31   1 H    1.008 --     9 C    0.980
    32   1 H    0.995 --    10 C    0.982
    33   1 H    0.999 --    10 C    0.981
    34   1 H    0.997 --    10 C    0.983
    35   1 H    0.919 --    11 N    0.875
    36   1 H    1.009 --    14 C    0.975
    37   1 H    1.003 --    14 C    0.981
    38   1 H    1.009 --    14 C    0.974
    39   1 H    0.992 --    19 C    0.954
    40   1 H    0.992 --    19 C    0.956
    41   1 H    0.995 --    19 C    0.980
    42   1 H    0.943 --    21 N    0.897
 ---------------------------------------------------------------------------

           -------------------------------------------------
          | TOTAL ENERGY              -82.975787243378 Eh   |
          | GRADIENT NORM               0.000502349644 Eh/α |
          | HOMO-LUMO GAP               0.293919356579 eV   |
           -------------------------------------------------

 * finished run on 2023/06/21 at 17:18:03.027
