   * xtb version 6.5.1 (579679a) compiled by 'ehlert@majestix' on 2022-07-11
          program call               : /lustre/hpc/kemi/ree/PhD/git/ReactivityQM/dep/xtb-6.5.1/bin/xtb --gfn 1 /lustre/hpc/kemi/ree/PhD/git/ReactivityQM/calculations/R02/reac01prodN08/conf02/R02_reac01prodN08_conf02_gfn1.xyz --opt --vfukui --chrg 1 --uhf 0 --alpb DMSO

   ID    Z sym.   atoms
    1    6 C      1, 3, 4, 6, 8-11, 13, 15, 18, 19, 22, 24
    2    8 O      2, 5, 14, 20, 23, 25
    3    7 N      7, 12, 16, 17, 21
    4    1 H      26-43

      * Solvation model:               ALPB
        Solvent                        DMSO
        Solvent mass                       7.8130E+01 g/mol
          :  Hamiltonian                  GFN1-xTB          :
 * total energy  :   -83.0199165 Eh     change       -0.7077432E-09 Eh
 * total energy  :   -83.0357326 Eh     change       -0.1581609E-01 Eh
 * total energy  :   -83.0470872 Eh     change       -0.1135461E-01 Eh
 * total energy  :   -83.0517006 Eh     change       -0.4613398E-02 Eh
 * total energy  :   -83.0559913 Eh     change       -0.4290726E-02 Eh
 * total energy  :   -83.0594643 Eh     change       -0.3472961E-02 Eh
 * total energy  :   -83.0643481 Eh     change       -0.4883835E-02 Eh
 * total energy  :   -83.0696975 Eh     change       -0.5349371E-02 Eh
 * total energy  :   -83.0732693 Eh     change       -0.3571866E-02 Eh
 * total energy  :   -83.0779670 Eh     change       -0.4697668E-02 Eh
 * total energy  :   -83.1694691 Eh     change       -0.1365828E-03 Eh
 * total energy  :   -83.1695057 Eh     change       -0.3651875E-04 Eh
 * total energy  :   -83.1695399 Eh     change       -0.3423185E-04 Eh
 * total energy  :   -83.1695496 Eh     change       -0.9727452E-05 Eh
 * total energy  :   -83.1695673 Eh     change       -0.1764536E-04 Eh
 * total energy  :   -83.1695735 Eh     change       -0.6283339E-05 Eh
 * total energy  :   -83.1695860 Eh     change       -0.1248673E-04 Eh
 * total energy  :   -83.1695916 Eh     change       -0.5595226E-05 Eh
 * total energy  :   -83.1695944 Eh     change       -0.2774653E-05 Eh
   *** GEOMETRY OPTIMIZATION CONVERGED AFTER 61 ITERATIONS ***

 final structure:
================
43
 xtb: 6.5.1 (579679a)
C           -5.96661877844544        2.07267935784948       -0.21626011123284
O           -5.04119616091503        1.65915662957520       -1.24341556266790
C           -3.94368165910406        1.04865043263496       -1.02002380622746
C           -3.11785509318591        0.71725558643898       -2.19781738999058
O           -3.63947977915495        0.76743810604204        0.19752480149559
C           -2.50588167173009        0.14381473665326        0.70789831069752
N           -1.52057291067622       -0.22395257173745       -0.14460036339642
C           -0.45611935624299       -0.78875921949120        0.35163806282092
C            0.65088570024965       -1.25094408248051       -0.58125564657881
C            0.74737196258018       -2.78332001511864       -0.54487413710273
C            0.36635130170883       -0.77796713588240       -2.00650670929155
N            1.92755421747656       -0.64432743094887       -0.18797048705400
C            2.66692233981326       -0.97026388404146        0.89097318285690
O            2.32124621367077       -1.73407117045191        1.78365700847349
C            3.97516938314401       -0.28251382958694        0.91133418437414
N            4.90305776010111       -0.35697524993354        1.81364237822382
N            5.92467955724424        0.43712783435715        1.39342627293973
C            5.56007119016980        0.94893162170305        0.25842131994997
C            6.31802581962272        1.87695774526721       -0.60767415649099
O            4.33475509585798        0.53430517712231       -0.10304422404745
N           -0.32318899890851       -1.02328565156382        1.67593662454752
C           -1.26467497835035       -0.68128716160268        2.62468661876797
O           -1.11549128046716       -0.88618644444647        3.81515470932463
C           -2.45152981674112       -0.05110111748431        2.05860872787304
O           -3.43219980765517        0.31496697881614        2.89153324010018
H           -5.61071148331887        1.78418108224865        0.77076070500549
H           -6.91967553017220        1.59605502800436       -0.44347262451453
H           -6.05921992801785        3.15549105564427       -0.29719708366906
H           -2.13989560064151        1.18760454455801       -2.09544696445757
H           -3.61123605526672        1.05725389371420       -3.10549250590811
H           -2.95030835443352       -0.35963742631702       -2.23084429894330
H            1.54895188624139       -3.10796039243833       -1.20604188476510
H           -0.19392865224220       -3.20736898196742       -0.88966262284095
H            0.94870124367498       -3.14165879740101        0.46226139687848
H            0.26617208852198        0.30565240193259       -2.03222972765751
H           -0.55828584287915       -1.22453198946207       -2.36633703913687
H            1.18176453856857       -1.07679785244289       -2.66249874259091
H            2.32211917679206        0.00893392773640       -0.84590001634179
H            7.29834854535273        2.06663898939449       -0.17650391725707
H            5.77395309007668        2.81591897060780       -0.70859721130949
H            6.42875072546461        1.44605680020908       -1.60249133126739
H            0.54957518427262       -1.45436015672917        2.00631483432945
H           -3.19267628205281        0.08220066100620        3.80748818609257

          :  Hamiltonian                  GFN1-xTB          :
         :: total energy             -83.169594403399 Eh    ::
         :: gradient norm              0.000432633399 Eh/a0 ::
         :: HOMO-LUMO gap              2.382904509981 eV    ::
         :: SCC energy               -83.968488037705 Eh    ::
         :: -> Gsolv                  -0.110901673897 Eh    ::
         :: repulsion energy           0.825044766103 Eh    ::

    * Orbital Energies and Occupations

         #    Occupation            Energy/Eh            Energy/eV
      -------------------------------------------------------------
         1        2.0000           -0.9283435             -25.2615
       ...           ...                  ...                  ...
        55        2.0000           -0.5289207             -14.3927
        56        2.0000           -0.5225517             -14.2194
        57        2.0000           -0.5143687             -13.9967
        58        2.0000           -0.5108143             -13.9000
        59        2.0000           -0.5069861             -13.7958
        60        2.0000           -0.4895771             -13.3221
        61        2.0000           -0.4869868             -13.2516
        62        2.0000           -0.4840735             -13.1723
        63        2.0000           -0.4750653             -12.9272
        64        2.0000           -0.4695036             -12.7758
        65        2.0000           -0.4583158             -12.4714
        66        2.0000           -0.4571707             -12.4402
        67        2.0000           -0.4507945             -12.2667 (HOMO)
        68                         -0.3632243              -9.8838 (LUMO)
        69                         -0.3218189              -8.7571
        70                         -0.3180856              -8.6555
        71                         -0.2975721              -8.0973
        72                         -0.2614518              -7.1145
        73                         -0.2084167              -5.6713
        74                         -0.1930586              -5.2534
        75                         -0.1776996              -4.8355
        76                         -0.1643368              -4.4718
        77                         -0.1438299              -3.9138
        78                         -0.1359726              -3.7000
       ...                                ...                  ...
       136                          0.7100421              19.3212
      -------------------------------------------------------------
                  HL-Gap            0.0875701 Eh            2.3829 eV

Wiberg/Mayer (AO) data.
largest (>0.10) Wiberg bond orders for each atom

     #   Z sym  total        # sym  WBO       # sym  WBO       # sym  WBO
 ---------------------------------------------------------------------------
     1   6 C    3.812 --    26 H    0.981    27 H    0.970    28 H    0.969
                             2 O    0.840
     2   8 O    2.329 --     3 C    1.307     1 C    0.840
     3   6 C    3.774 --     2 O    1.307     5 O    1.242     4 C    1.035
     4   6 C    3.965 --     3 C    1.035    30 H    0.974    31 H    0.936
                            29 H    0.934
     5   8 O    2.361 --     3 C    1.242     6 C    0.903
     6   6 C    3.837 --    24 C    1.474     7 N    1.206     5 O    0.903
     7   7 N    3.027 --     8 C    1.515     6 C    1.206
     8   6 C    3.922 --     7 N    1.515    21 N    1.234     9 C    0.972
     9   6 C    3.935 --    11 C    1.001    10 C    0.977     8 C    0.972
                            12 N    0.923
    10   6 C    3.984 --    33 H    0.984    32 H    0.981    34 H    0.978
                             9 C    0.977
    11   6 C    3.989 --     9 C    1.001    37 H    0.982    35 H    0.982
                            36 H    0.982
    12   7 N    3.347 --    13 C    1.265     9 C    0.923    38 H    0.887
                            14 O    0.171
    13   6 C    3.913 --    14 O    1.554    12 N    1.265    15 C    1.004
    14   8 O    1.925 --    13 C    1.554    12 N    0.171
    15   6 C    3.876 --    16 N    1.617    20 O    1.046    13 C    1.004
    16   7 N    3.004 --    15 C    1.617    17 N    1.205
    17   7 N    2.982 --    18 C    1.604    16 N    1.205
    18   6 C    3.866 --    17 N    1.604    20 O    1.073    19 C    1.033
    19   6 C    3.985 --    18 C    1.033    39 H    0.982    41 H    0.963
                            40 H    0.961
    20   8 O    2.317 --    18 C    1.073    15 C    1.046
    21   7 N    3.482 --     8 C    1.234    22 C    1.121    42 H    0.822
                            23 O    0.129
    22   6 C    3.915 --    23 O    1.597    21 N    1.121    24 C    1.068
    23   8 O    1.911 --    22 C    1.597    21 N    0.129
    24   6 C    3.925 --     6 C    1.474    25 O    1.107    22 C    1.068
    25   8 O    2.080 --    24 C    1.107    43 H    0.800
    26   1 H    0.999 --     1 C    0.981
    27   1 H    0.997 --     1 C    0.970
    28   1 H    0.997 --     1 C    0.969
    29   1 H    1.003 --     4 C    0.934
    30   1 H    0.990 --     4 C    0.974
    31   1 H    1.001 --     4 C    0.936
    32   1 H    0.997 --    10 C    0.981
    33   1 H    0.999 --    10 C    0.984
    34   1 H    1.006 --    10 C    0.978
    35   1 H    1.001 --    11 C    0.982
    36   1 H    1.004 --    11 C    0.982
    37   1 H    0.996 --    11 C    0.982
    38   1 H    0.931 --    12 N    0.887
    39   1 H    0.998 --    19 C    0.982
    40   1 H    0.996 --    19 C    0.961
    41   1 H    0.996 --    19 C    0.963
    42   1 H    0.917 --    21 N    0.822
    43   1 H    0.831 --    25 O    0.800
 ---------------------------------------------------------------------------

           -------------------------------------------------
          | TOTAL ENERGY              -83.169594403399 Eh   |
          | GRADIENT NORM               0.000432633399 Eh/α |
          | HOMO-LUMO GAP               2.382904509981 eV   |
           -------------------------------------------------

 * finished run on 2023/06/20 at 15:28:08.316
