   * xtb version 6.5.1 (579679a) compiled by 'ehlert@majestix' on 2022-07-11
          program call               : /lustre/hpc/kemi/ree/PhD/git/ReactivityQM/dep/xtb-6.5.1/bin/xtb --gfn 1 /lustre/hpc/kemi/ree/PhD/git/ReactivityQM/calculations/R02deprot/reac01prodE14/conf13/R02deprot_reac01prodE14_conf13_gfn1.xyz --opt --vfukui --chrg -2 --uhf 0 --alpb DMSO

   ID    Z sym.   atoms
    1    6 C      1, 3, 5, 7-10, 12, 14, 17, 18, 21, 23, 24
    2    8 O      2, 4, 13, 19, 22, 25
    3    7 N      6, 11, 15, 16, 20
    4    1 H      26-42

      * Solvation model:               ALPB
        Solvent                        DMSO
        Solvent mass                       7.8130E+01 g/mol
          :  Hamiltonian                  GFN1-xTB          :
 * total energy  :   -83.5925380 Eh     change       -0.1534772E-11 Eh
 * total energy  :   -83.6134008 Eh     change       -0.2086282E-01 Eh
 * total energy  :   -83.6226369 Eh     change       -0.9236119E-02 Eh
 * total energy  :   -83.6240697 Eh     change       -0.1432765E-02 Eh
 * total energy  :   -83.6251984 Eh     change       -0.1128694E-02 Eh
 * total energy  :   -83.6256217 Eh     change       -0.4232465E-03 Eh
 * total energy  :   -83.6260239 Eh     change       -0.4022508E-03 Eh
 * total energy  :   -83.6263205 Eh     change       -0.2965580E-03 Eh
 * total energy  :   -83.6265450 Eh     change       -0.2245835E-03 Eh
 * total energy  :   -83.6267394 Eh     change       -0.1943775E-03 Eh
 * total energy  :   -83.6319221 Eh     change       -0.1662346E-04 Eh
 * total energy  :   -83.6319377 Eh     change       -0.1561104E-04 Eh
 * total energy  :   -83.6319515 Eh     change       -0.1375710E-04 Eh
 * total energy  :   -83.6319631 Eh     change       -0.1162309E-04 Eh
 * total energy  :   -83.6319733 Eh     change       -0.1020137E-04 Eh
 * total energy  :   -83.6319831 Eh     change       -0.9841101E-05 Eh
 * total energy  :   -83.6319936 Eh     change       -0.1052098E-04 Eh
 * total energy  :   -83.6320055 Eh     change       -0.1184559E-04 Eh
 * total energy  :   -83.6320095 Eh     change       -0.3979786E-05 Eh
   *** GEOMETRY OPTIMIZATION CONVERGED AFTER 94 ITERATIONS ***

 final structure:
================
42
 xtb: 6.5.1 (579679a)
C           -5.95164038208622        1.35399241035238        0.62595301533354
O           -4.75003899969618        0.99728284361778       -0.02269568480730
C           -3.71916087342114        0.54055802960603        0.84801036978389
O           -3.97325153215127        0.49324131134320        2.07131699831038
C           -2.53398735623752        0.20948016418034        0.19338517365581
N           -1.47852970006297       -0.19149043939297        0.99487468053638
C           -0.32178737258477       -0.42119290870532        0.46542122614447
C            0.80270148404013       -0.87838818128850        1.39755889133819
C            0.77891735057981       -2.41292492054474        1.50794389879496
C            0.64399994635118       -0.23637271556369        2.77999441817501
N            2.06147679770264       -0.45825422125010        0.77515321190103
C            3.27738728082020       -0.62306488143718        1.30603240717964
O            3.51797881906164       -1.10345602631839        2.41745448637251
C            4.37420737056430       -0.13722802411710        0.43625523176161
N            5.65448819069942       -0.15227535271478        0.69794627114033
N            6.28309422602186        0.40545104190790       -0.38012632553181
C            5.35802417895816        0.72531116386593       -1.22901161780098
C            5.53493808769700        1.35997923786561       -2.55533657550166
O            4.12871509349025        0.41291177186939       -0.78105805486424
N            0.03655743686449       -0.32575748101755       -0.85298132788388
C           -0.87725824232610        0.02177958654642       -1.75301574824963
O           -0.61782546239407        0.10414852053244       -2.97308477248058
C           -2.35264055941270        0.30578874424991       -1.30895686099070
C           -3.23724835000289       -0.71880519867182       -2.05712887637575
O           -2.66555092081680        1.62756231588140       -1.79510727164310
H           -6.38184869200713        0.50320283854208        1.17061968086665
H           -6.65615301031454        1.67760487241220       -0.14214505359332
H           -5.79570926096531        2.17564970650497        1.33780166267838
H           -0.18214864216611       -2.72942046013479        1.91180800363827
H            0.91047491809939       -2.85683460479936        0.52128459416660
H            1.57303616161631       -2.76811763449817        2.16417533246208
H            0.80291957470943        0.84013204736578        2.71309822589444
H            1.34890795332263       -0.65537917916069        3.49638491167178
H           -0.37200580404772       -0.41679502395416        3.13341528744974
H            1.96483941467939       -0.15532477193134       -0.19513118006253
H            4.96536596353821        2.28758154651465       -2.60912552318983
H            5.17650125685342        0.69548408889789       -3.34154450738081
H            6.58846862926635        1.57221391744692       -2.71637907294655
H           -3.00500005331938       -1.72647669501966       -1.71150952893621
H           -3.04405348313141       -0.65446280429793       -3.12903706628000
H           -4.29269465014183       -0.52033346346064       -1.87877805686932
H           -3.57446678765829        1.83300182875549       -1.53373687386760

          :  Hamiltonian                  GFN1-xTB          :
         :: total energy             -83.632009468508 Eh    ::
         :: gradient norm              0.000185336360 Eh/a0 ::
         :: HOMO-LUMO gap              0.138083693803 eV    ::
         :: SCC energy               -84.364006418797 Eh    ::
         :: -> Gsolv                  -0.273276790336 Eh    ::
         :: repulsion energy           0.757788492675 Eh    ::

    * Orbital Energies and Occupations

         #    Occupation            Energy/Eh            Energy/eV
      -------------------------------------------------------------
         1        2.0000           -0.8411020             -22.8875
       ...           ...                  ...                  ...
        56        2.0000           -0.4356959             -11.8559
        57        2.0000           -0.4343655             -11.8197
        58        2.0000           -0.4280539             -11.6479
        59        2.0000           -0.4227263             -11.5030
        60        2.0000           -0.4205608             -11.4440
        61        2.0000           -0.4156789             -11.3112
        62        2.0000           -0.4081780             -11.1071
        63        2.0000           -0.3916550             -10.6575
        64        2.0000           -0.3807121             -10.3597
        65        2.0000           -0.3593370              -9.7781
        66        2.0000           -0.3524725              -9.5913
        67        2.0000           -0.3284160              -8.9367
        68        1.8705           -0.2885388              -7.8515 (HOMO)
        69        0.1295           -0.2834643              -7.7135 (LUMO)
        70                         -0.2382715              -6.4837
        71                         -0.1999913              -5.4420
        72                         -0.1688495              -4.5946
        73                         -0.1351523              -3.6777
        74                         -0.1339908              -3.6461
        75                         -0.1122543              -3.0546
        76                         -0.1010728              -2.7503
        77                         -0.0958964              -2.6095
        78                         -0.0903832              -2.4595
        79                         -0.0727639              -1.9800
       ...                                ...                  ...
       134                          0.7236300              19.6910
      -------------------------------------------------------------
                  HL-Gap            0.0050745 Eh            0.1381 eV

Wiberg/Mayer (AO) data.
largest (>0.10) Wiberg bond orders for each atom

     #   Z sym  total        # sym  WBO       # sym  WBO       # sym  WBO
 ---------------------------------------------------------------------------
     1   6 C    3.920 --    27 H    0.987    28 H    0.981    26 H    0.980
                             2 O    0.951
     2   8 O    2.070 --     1 C    0.951     3 C    0.900
     3   6 C    3.841 --     4 O    1.438     5 C    1.373     2 O    0.900
     4   8 O    1.730 --     3 C    1.438     5 C    0.119
     5   6 C    3.805 --     3 C    1.373     6 N    1.149    23 C    0.981
                             4 O    0.119
     6   7 N    3.007 --     7 C    1.573     5 C    1.149
     7   6 C    3.924 --     6 N    1.573    20 N    1.178     8 C    0.961
     8   6 C    3.920 --    10 C    0.994     9 C    0.979     7 C    0.961
                            11 N    0.916
     9   6 C    3.989 --    29 H    0.987    30 H    0.987    31 H    0.985
                             8 C    0.979
    10   6 C    3.994 --     8 C    0.994    32 H    0.987    33 H    0.985
                            34 H    0.982
    11   7 N    3.363 --    12 C    1.297     8 C    0.916    35 H    0.875
                            13 O    0.178
    12   6 C    3.891 --    13 O    1.512    11 N    1.297    14 C    1.007
    13   8 O    1.817 --    12 C    1.512    11 N    0.178
    14   6 C    3.808 --    15 N    1.576    19 O    1.031    12 C    1.007
    15   7 N    2.925 --    14 C    1.576    16 N    1.188
    16   7 N    2.979 --    17 C    1.621    15 N    1.188
    17   6 C    3.858 --    16 N    1.621    19 O    1.068    18 C    1.028
    18   6 C    3.990 --    17 C    1.028    38 H    0.984    36 H    0.968
                            37 H    0.966
    19   8 O    2.283 --    17 C    1.068    14 C    1.031
    20   7 N    2.942 --    21 C    1.372     7 C    1.178    22 O    0.134
    21   6 C    3.900 --    22 O    1.489    20 N    1.372    23 C    0.907
    22   8 O    1.762 --    21 C    1.489    20 N    0.134
    23   6 C    3.895 --     5 C    0.981    24 C    0.972    25 O    0.914
                            21 C    0.907
    24   6 C    3.990 --    39 H    0.988    40 H    0.986    41 H    0.985
                            23 C    0.972
    25   8 O    1.870 --    23 C    0.914    42 H    0.869
    26   1 H    1.022 --     1 C    0.980
    27   1 H    1.019 --     1 C    0.987
    28   1 H    1.022 --     1 C    0.981
    29   1 H    1.011 --     9 C    0.987
    30   1 H    1.010 --     9 C    0.987
    31   1 H    1.012 --     9 C    0.985
    32   1 H    1.010 --    10 C    0.987
    33   1 H    1.017 --    10 C    0.985
    34   1 H    1.030 --    10 C    0.982
    35   1 H    0.986 --    11 N    0.875
    36   1 H    0.999 --    18 C    0.968
    37   1 H    0.998 --    18 C    0.966
    38   1 H    1.001 --    18 C    0.984
    39   1 H    1.015 --    24 C    0.988
    40   1 H    1.022 --    24 C    0.986
    41   1 H    1.021 --    24 C    0.985
    42   1 H    0.916 --    25 O    0.869
 ---------------------------------------------------------------------------

           -------------------------------------------------
          | TOTAL ENERGY              -83.632009468508 Eh   |
          | GRADIENT NORM               0.000185336360 Eh/α |
          | HOMO-LUMO GAP               0.138083693803 eV   |
           -------------------------------------------------

 * finished run on 2023/06/20 at 18:04:38.958
