   * xtb version 6.5.1 (579679a) compiled by 'ehlert@majestix' on 2022-07-11
          program call               : /lustre/hpc/kemi/ree/PhD/git/ReactivityQM/dep/xtb-6.5.1/bin/xtb --gfn 1 /lustre/hpc/kemi/ree/PhD/git/ReactivityQM/calculations/R03/reac01prodN04/conf05/R03_reac01prodN04_conf05_gfn1.xyz --opt --vfukui --chrg 1 --uhf 0 --alpb DMSO

   ID    Z sym.   atoms
    1    6 C      1-5, 7-9
    2    7 N      6
    3    9 F      10
    4    1 H      11-21

      * Solvation model:               ALPB
        Solvent                        DMSO
        Solvent mass                       7.8130E+01 g/mol
          :  Hamiltonian                  GFN1-xTB          :
 * total energy  :   -30.7641117 Eh     change       -0.7545964E-11 Eh
 * total energy  :   -30.7684670 Eh     change       -0.4355344E-02 Eh
 * total energy  :   -30.7696395 Eh     change       -0.1172430E-02 Eh
 * total energy  :   -30.7697861 Eh     change       -0.1466802E-03 Eh
 * total energy  :   -30.7698915 Eh     change       -0.1054121E-03 Eh
 * total energy  :   -30.7699244 Eh     change       -0.3289190E-04 Eh
 * total energy  :   -30.7699498 Eh     change       -0.2538787E-04 Eh
 * total energy  :   -30.7699710 Eh     change       -0.2113292E-04 Eh
 * total energy  :   -30.7699780 Eh     change       -0.7062701E-05 Eh
 * total energy  :   -30.7699835 Eh     change       -0.5491831E-05 Eh
 * total energy  :   -30.7699855 Eh     change       -0.1937326E-05 Eh
   *** GEOMETRY OPTIMIZATION CONVERGED AFTER 11 ITERATIONS ***

 final structure:
================
21
 xtb: 6.5.1 (579679a)
C           -2.54742493192879       -1.14416775022695       -0.22707724329425
C           -1.36694917713024       -0.41916523597962        0.47140257939383
C           -0.04266348874217       -0.79655826300464       -0.05141899173932
C            0.91952673345937        0.12565324039526       -0.36921318708456
C            2.29942528358403       -0.30772906930612       -0.82377639611605
N            3.16816286810964       -0.45459660385103        0.33460058709453
C            0.62917494736094        1.49923297338003       -0.21102675510579
C           -0.59386045891913        1.95328376906724        0.27478784498772
C           -1.56089639904954        1.03007319484840        0.58002867680207
F           -2.73156090220609        1.42661472403919        1.00222199658609
H           -2.40688564889830       -2.21938704194975       -0.14748428013144
H           -3.48008789129636       -0.86019187833356        0.25555931350967
H           -2.57500238794066       -0.85654177386515       -1.27569295790325
H           -1.38718330001884       -0.80065152500421        1.51041343653789
H            0.14346865779842       -1.85763031315748       -0.17204087507754
H            2.72545771190186        0.44152546652976       -1.49491713705871
H            2.23885943916274       -1.26643990679110       -1.34293211490083
H            2.78149374853213       -1.15421026798606        0.95295684001870
H            3.20065711236281        0.41932604378197        0.84115015514098
H            1.38164464471195        2.22927706977824       -0.48940879480673
H           -0.79535656085376        3.01228514763508        0.38186430314698

          :  Hamiltonian                  GFN1-xTB          :
         :: total energy             -30.769985454126 Eh    ::
         :: gradient norm              0.000415821433 Eh/a0 ::
         :: HOMO-LUMO gap              0.457912492974 eV    ::
         :: SCC energy               -31.161794473999 Eh    ::
         :: -> Gsolv                  -0.086697532642 Eh    ::
         :: repulsion energy           0.401801900891 Eh    ::

    * Orbital Energies and Occupations

         #    Occupation            Energy/Eh            Energy/eV
      -------------------------------------------------------------
         1        2.0000           -0.9458192             -25.7370
       ...           ...                  ...                  ...
        15        2.0000           -0.5986930             -16.2913
        16        2.0000           -0.5977188             -16.2648
        17        2.0000           -0.5825618             -15.8523
        18        2.0000           -0.5773542             -15.7106
        19        2.0000           -0.5674137             -15.4401
        20        2.0000           -0.5584701             -15.1967
        21        2.0000           -0.5498096             -14.9611
        22        2.0000           -0.5392338             -14.6733
        23        2.0000           -0.5371142             -14.6156
        24        2.0000           -0.5300789             -14.4242
        25        2.0000           -0.5112033             -13.9106
        26        2.0000           -0.5030749             -13.6894
        27        1.9997           -0.4335177             -11.7966 (HOMO)
        28        0.0003           -0.4166897             -11.3387 (LUMO)
        29                         -0.3277694              -8.9191
        30                         -0.2481059              -6.7513
        31                         -0.1586966              -4.3184
        32                         -0.1516560              -4.1268
        33                         -0.1457659              -3.9665
        34                         -0.1439230              -3.9163
        35                         -0.1324735              -3.6048
        36                         -0.1190177              -3.2386
        37                         -0.1017508              -2.7688
        38                         -0.0910549              -2.4777
       ...                                ...                  ...
        62                          0.5383545              14.6494
      -------------------------------------------------------------
                  HL-Gap            0.0168280 Eh            0.4579 eV

Wiberg/Mayer (AO) data.
largest (>0.10) Wiberg bond orders for each atom

     #   Z sym  total        # sym  WBO       # sym  WBO       # sym  WBO
 ---------------------------------------------------------------------------
     1   6 C    3.963 --    13 H    0.983    11 H    0.983    12 H    0.981
                             2 C    0.914
     2   6 C    3.989 --     3 C    1.086     9 C    1.072     1 C    0.914
                            14 H    0.831
     3   6 C    3.956 --     4 C    1.557     2 C    1.086    15 H    0.963
     4   6 C    3.974 --     3 C    1.557     7 C    1.303     5 C    0.988
     5   6 C    3.973 --     6 N    0.993     4 C    0.988    17 H    0.975
                            16 H    0.974
     6   7 N    2.978 --     5 C    0.993    19 H    0.942    18 H    0.941
     7   6 C    3.943 --     8 C    1.410     4 C    1.303    20 H    0.964
     8   6 C    3.982 --     9 C    1.461     7 C    1.410    21 H    0.955
     9   6 C    3.842 --     8 C    1.461     2 C    1.072    10 F    1.033
    10   9 F    1.201 --     9 C    1.033
    11   1 H    0.992 --     1 C    0.983
    12   1 H    0.995 --     1 C    0.981
    13   1 H    0.994 --     1 C    0.983
    14   1 H    0.976 --     2 C    0.831
    15   1 H    0.989 --     3 C    0.963
    16   1 H    1.003 --     5 C    0.974
    17   1 H    1.003 --     5 C    0.975
    18   1 H    0.953 --     6 N    0.941
    19   1 H    0.953 --     6 N    0.942
    20   1 H    0.991 --     7 C    0.964
    21   1 H    0.984 --     8 C    0.955
 ---------------------------------------------------------------------------

           -------------------------------------------------
          | TOTAL ENERGY              -30.769985454126 Eh   |
          | GRADIENT NORM               0.000415821433 Eh/α |
          | HOMO-LUMO GAP               0.457912492974 eV   |
           -------------------------------------------------

 * finished run on 2023/06/20 at 15:14:34.124
