   * xtb version 6.5.1 (579679a) compiled by 'ehlert@majestix' on 2022-07-11
          program call               : /lustre/hpc/kemi/ree/PhD/git/ReactivityQM/dep/xtb-6.5.1/bin/xtb --gfn 1 /lustre/hpc/kemi/ree/PhD/git/ReactivityQM/calculations/R02oxygendeprot/reac01prodE01/conf08/R02oxygendeprot_reac01prodE01_conf08_gfn1.xyz --opt --vfukui --chrg -2 --uhf 0 --alpb DMSO

   ID    Z sym.   atoms
    1    6 C      1, 3, 5, 7-10, 12, 13, 15, 18, 19, 22, 24
    2    8 O      2, 4, 14, 20, 23, 25
    3    7 N      6, 11, 16, 17, 21
    4    1 H      26-42

      * Solvation model:               ALPB
        Solvent                        DMSO
        Solvent mass                       7.8130E+01 g/mol
          :  Hamiltonian                  GFN1-xTB          :
 * total energy  :   -83.6317707 Eh     change       -0.2575007E-10 Eh
 * total energy  :   -83.6440097 Eh     change       -0.1223901E-01 Eh
 * total energy  :   -83.6482935 Eh     change       -0.4283839E-02 Eh
 * total energy  :   -83.6492397 Eh     change       -0.9461793E-03 Eh
 * total energy  :   -83.6497449 Eh     change       -0.5052312E-03 Eh
 * total energy  :   -83.6500030 Eh     change       -0.2580238E-03 Eh
 * total energy  :   -83.6502085 Eh     change       -0.2055211E-03 Eh
 * total energy  :   -83.6503718 Eh     change       -0.1633337E-03 Eh
 * total energy  :   -83.6505120 Eh     change       -0.1401776E-03 Eh
 * total energy  :   -83.6506433 Eh     change       -0.1313303E-03 Eh
 * total energy  :   -83.6523691 Eh     change       -0.2779086E-04 Eh
 * total energy  :   -83.6523857 Eh     change       -0.1656541E-04 Eh
 * total energy  :   -83.6523985 Eh     change       -0.1283971E-04 Eh
 * total energy  :   -83.6524014 Eh     change       -0.2942506E-05 Eh
 * total energy  :   -83.6524116 Eh     change       -0.1015602E-04 Eh
 * total energy  :   -83.6524174 Eh     change       -0.5810480E-05 Eh
 * total energy  :   -83.6524291 Eh     change       -0.1171022E-04 Eh
 * total energy  :   -83.6524364 Eh     change       -0.7251029E-05 Eh
 * total energy  :   -83.6524405 Eh     change       -0.4126255E-05 Eh
   *** GEOMETRY OPTIMIZATION CONVERGED AFTER 47 ITERATIONS ***

 final structure:
================
42
 xtb: 6.5.1 (579679a)
C            4.74117624208202        2.96446522424288        1.35275165562875
O            3.90229296930482        1.93265047077075        0.86130453655158
C            4.38394785985083        0.65542196722752        1.01928714483858
O            5.47025208634213        0.47796028012843        1.55446526611465
C            3.48155515780027       -0.35135433037951        0.49756382537899
N            2.30819876559994        0.13411941590274       -0.05781050607675
C            1.43299467227990       -0.67143922227664       -0.53606846383266
C            0.15445021557883       -0.17120435717758       -1.18974382726250
C            0.37861970467590       -0.20816210036808       -2.71344906136519
C           -0.10397538461630        1.27121090705917       -0.72253155999494
N           -0.89905411667914       -1.12495756331315       -0.82168998067122
C           -2.34379798425872       -0.68953719688798       -1.11598321709459
C           -3.12455215731983       -2.04909648022999       -1.23798096844235
O           -2.51026931565009        0.11417688094209       -2.11910310178540
C           -2.83886859680021       -0.09631352303888        0.25802801583065
N           -2.16983008712941        0.04116273602151        1.36093605838486
N           -3.02739614365236        0.59590673322388        2.29141177034461
C           -4.15675314834196        0.75285402396755        1.68761540968567
C           -5.40711870666685        1.31932905992111        2.24965580724419
O           -4.11215079955006        0.33641551863884        0.40732004689330
N            1.62677893947221       -2.03823094006773       -0.52616228763430
C            2.73366168095829       -2.65393759393206       -0.01765336588760
O            2.82454971139676       -3.88343423868848       -0.04627775902897
C            3.78854816586930       -1.73615867767996        0.55815642906881
O            4.82514133208565       -2.23940841818757        1.03713605549049
H            4.89445317266425        2.86324653366616        2.43263181978766
H            4.24515505704312        3.91127422417749        1.14150142468220
H            5.71791272832586        2.94389406834458        0.85776753915884
H           -0.50213654759273        0.16186647289298       -3.23642374322484
H            1.23637553156200        0.41047720400916       -2.97953475592778
H            0.56995125329751       -1.23301539656773       -3.03175731402688
H           -0.25257254334262        1.29551221516310        0.35732080827295
H            0.76041831215617        1.88882760052807       -0.96907843500885
H           -0.98442221336496        1.68139008855153       -1.21491939833309
H           -0.84475628603209       -1.29010367888252        0.18425174825100
H           -4.18651881264162       -1.83274325235695       -1.33807498211465
H           -2.96094185828441       -2.68224780270069       -0.36802129964662
H           -2.77811394749777       -2.56199626394323       -2.13316918004718
H           -5.27769360626267        1.49933444626842        3.31415556297853
H           -6.23616638445512        0.62951406883856        2.09658505346890
H           -5.65360133704516        2.25911728525072        1.75489634543180
H            0.89425641884318       -2.62678538905619       -0.89931111606742

          :  Hamiltonian                  GFN1-xTB          :
         :: total energy             -83.652440488021 Eh    ::
         :: gradient norm              0.000794093003 Eh/a0 ::
         :: HOMO-LUMO gap              2.144584648000 eV    ::
         :: SCC energy               -84.386463763071 Eh    ::
         :: -> Gsolv                  -0.266872044971 Eh    ::
         :: repulsion energy           0.760522053739 Eh    ::

    * Orbital Energies and Occupations

         #    Occupation            Energy/Eh            Energy/eV
      -------------------------------------------------------------
         1        2.0000           -0.8172183             -22.2376
       ...           ...                  ...                  ...
        56        2.0000           -0.4410412             -12.0013
        57        2.0000           -0.4393277             -11.9547
        58        2.0000           -0.4349835             -11.8365
        59        2.0000           -0.4278180             -11.6415
        60        2.0000           -0.4237518             -11.5309
        61        2.0000           -0.4131401             -11.2421
        62        2.0000           -0.4078300             -11.0976
        63        2.0000           -0.3992144             -10.8632
        64        2.0000           -0.3709281             -10.0935
        65        2.0000           -0.3648634              -9.9284
        66        2.0000           -0.3522535              -9.5853
        67        2.0000           -0.3422598              -9.3134
        68        2.0000           -0.3381716              -9.2021 (HOMO)
        69                         -0.2593595              -7.0575 (LUMO)
        70                         -0.2247421              -6.1155
        71                         -0.2196773              -5.9777
        72                         -0.2097509              -5.7076
        73                         -0.1857753              -5.0552
        74                         -0.1281919              -3.4883
        75                         -0.1193166              -3.2468
        76                         -0.0967872              -2.6337
        77                         -0.0899248              -2.4470
        78                         -0.0823048              -2.2396
        79                         -0.0816403              -2.2215
       ...                                ...                  ...
       134                          0.7690206              20.9261
      -------------------------------------------------------------
                  HL-Gap            0.0788120 Eh            2.1446 eV

Wiberg/Mayer (AO) data.
largest (>0.10) Wiberg bond orders for each atom

     #   Z sym  total        # sym  WBO       # sym  WBO       # sym  WBO
 ---------------------------------------------------------------------------
     1   6 C    3.904 --    27 H    0.987    26 H    0.980    28 H    0.980
                             2 O    0.932
     2   8 O    2.131 --     3 C    1.014     1 C    0.932     4 O    0.105
     3   6 C    3.848 --     4 O    1.580     5 C    1.133     2 O    1.014
     4   8 O    1.859 --     3 C    1.580     2 O    0.105
     5   6 C    3.920 --    24 C    1.274     6 N    1.144     3 C    1.133
                            25 O    0.130
     6   7 N    3.021 --     7 C    1.635     5 C    1.144
     7   6 C    3.923 --     6 N    1.635    21 N    1.094     8 C    0.975
     8   6 C    3.968 --    10 C    0.988     9 C    0.980     7 C    0.975
                            11 N    0.973
     9   6 C    3.993 --    30 H    0.989    31 H    0.987     8 C    0.980
                            29 H    0.976
    10   6 C    3.996 --     8 C    0.988    33 H    0.986    32 H    0.984
                            34 H    0.981
    11   7 N    2.999 --     8 C    0.973    35 H    0.949    12 C    0.856
    12   6 C    3.937 --    14 O    1.227    13 C    0.923    15 C    0.874
                            11 N    0.856
    13   6 C    3.991 --    37 H    0.991    36 H    0.988    38 H    0.986
                            12 C    0.923
    14   8 O    1.548 --    12 C    1.227
    15   6 C    3.801 --    16 N    1.645    20 O    1.052    12 C    0.874
    16   7 N    2.991 --    15 C    1.645    17 N    1.146
    17   7 N    2.976 --    18 C    1.656    16 N    1.146
    18   6 C    3.889 --    17 N    1.656    20 O    1.066    19 C    1.024
    19   6 C    3.993 --    18 C    1.024    39 H    0.985    40 H    0.972
                            41 H    0.968
    20   8 O    2.299 --    18 C    1.066    15 C    1.052
    21   7 N    3.440 --    22 C    1.181     7 C    1.094    42 H    0.894
                            23 O    0.136
    22   6 C    3.883 --    23 O    1.557    21 N    1.181    24 C    0.972
    23   8 O    1.836 --    22 C    1.557    21 N    0.136
    24   6 C    3.944 --    25 O    1.508     5 C    1.274    22 C    0.972
    25   8 O    1.812 --    24 C    1.508     5 C    0.130
    26   1 H    1.015 --     1 C    0.980
    27   1 H    1.017 --     1 C    0.987
    28   1 H    1.016 --     1 C    0.980
    29   1 H    1.034 --     9 C    0.976
    30   1 H    1.009 --     9 C    0.989
    31   1 H    1.013 --     9 C    0.987
    32   1 H    1.025 --    10 C    0.984
    33   1 H    1.020 --    10 C    0.986
    34   1 H    1.031 --    10 C    0.981
    35   1 H    0.995 --    11 N    0.949
    36   1 H    1.017 --    13 C    0.988
    37   1 H    1.011 --    13 C    0.991
    38   1 H    1.020 --    13 C    0.986
    39   1 H    1.003 --    19 C    0.985
    40   1 H    1.002 --    19 C    0.972
    41   1 H    1.002 --    19 C    0.968
    42   1 H    0.965 --    21 N    0.894
 ---------------------------------------------------------------------------

           -------------------------------------------------
          | TOTAL ENERGY              -83.652440488021 Eh   |
          | GRADIENT NORM               0.000794093003 Eh/α |
          | HOMO-LUMO GAP               2.144584648000 eV   |
           -------------------------------------------------

 * finished run on 2023/06/21 at 17:01:01.173
