   * xtb version 6.5.1 (579679a) compiled by 'ehlert@majestix' on 2022-07-11
          program call               : /lustre/hpc/kemi/ree/PhD/git/ReactivityQM/dep/xtb-6.5.1/bin/xtb --gfn 1 /lustre/hpc/kemi/ree/PhD/git/ReactivityQM/calculations/R03/reac02prodE13/conf19/R03_reac02prodE13_conf19_gfn1.xyz --opt --vfukui --chrg -1 --uhf 0 --alpb DMSO

   ID    Z sym.   atoms
    1    6 C      1, 3, 5, 6, 8, 10, 12-16, 18, 20, 23, 24
    2    8 O      2, 4, 7, 9, 19, 25
    3    7 N      11, 17, 21, 22, 26
    4    1 H      27-46

      * Solvation model:               ALPB
        Solvent                        DMSO
        Solvent mass                       7.8130E+01 g/mol
          :  Hamiltonian                  GFN1-xTB          :
 * total energy  :   -86.9978009 Eh     change       -0.1351452E-10 Eh
 * total energy  :   -87.0128306 Eh     change       -0.1502968E-01 Eh
 * total energy  :   -87.0188130 Eh     change       -0.5982387E-02 Eh
 * total energy  :   -87.0200567 Eh     change       -0.1243714E-02 Eh
 * total energy  :   -87.0208237 Eh     change       -0.7669612E-03 Eh
 * total energy  :   -87.0212001 Eh     change       -0.3764272E-03 Eh
 * total energy  :   -87.0215411 Eh     change       -0.3410237E-03 Eh
 * total energy  :   -87.0218828 Eh     change       -0.3416755E-03 Eh
 * total energy  :   -87.0221740 Eh     change       -0.2912468E-03 Eh
 * total energy  :   -87.0223429 Eh     change       -0.1688474E-03 Eh
 * total energy  :   -87.0288726 Eh     change       -0.8694728E-05 Eh
 * total energy  :   -87.0288803 Eh     change       -0.7697766E-05 Eh
 * total energy  :   -87.0288882 Eh     change       -0.7902954E-05 Eh
 * total energy  :   -87.0288963 Eh     change       -0.8086961E-05 Eh
 * total energy  :   -87.0289039 Eh     change       -0.7658354E-05 Eh
 * total energy  :   -87.0289112 Eh     change       -0.7285760E-05 Eh
 * total energy  :   -87.0289191 Eh     change       -0.7825785E-05 Eh
 * total energy  :   -87.0289307 Eh     change       -0.1160722E-04 Eh
 * total energy  :   -87.0289346 Eh     change       -0.3960717E-05 Eh
   *** GEOMETRY OPTIMIZATION CONVERGED AFTER 122 ITERATIONS ***

 final structure:
================
46
 xtb: 6.5.1 (579679a)
C           -6.16989236715787        0.43540461941258        1.74945678762062
O           -4.95287856323786       -0.04565140763043        1.20184765123699
C           -3.85581724558565        0.82027924280606        1.35798594786311
O           -4.03210799365857        1.90143644440514        1.94050607423744
C           -2.66533174932068        0.35115652301550        0.77933475570540
C           -2.40601670251020       -0.95834616317176        0.20166195405034
O           -3.29981489490332       -1.99688522168856        0.35446928668569
C           -1.21163527528950       -1.21097670536352       -0.37143948606290
O           -0.76790108931779       -2.46739596821821       -0.78224003315099
C           -1.50175869789696       -3.09701662706735       -1.82217159747494
N           -0.22983114695884       -0.16967262585123       -0.57953895378007
C           -0.24428522160013        0.30351461071395       -1.98344410916702
C           -0.44728419069429        0.91640205161977        0.35429306040766
C            0.76065493170051        1.78151233521641        0.69052603859098
C            0.80247761493989        2.01398050159676        2.20960428623409
C            0.67532697499615        3.13000631422721       -0.04329267181850
N            1.96239130887456        1.05203407408787        0.27553594051896
C            3.21172091601165        1.50144114678734        0.42407184669408
O            3.53543376299672        2.58564242178210        0.89491026593204
C            4.24462516164856        0.53005868217887       -0.03785559039708
N            5.53261563485640        0.68501293278890        0.00001239086341
N            6.08267113674738       -0.46209604951731       -0.49441361907018
C            5.09661496257825       -1.24526918117668       -0.80145517001618
C            5.17627836238191       -2.60900418390617       -1.36976141771281
O            3.90692152850033       -0.67913807366176       -0.53786210096064
N           -1.55214742860011        1.16884943631625        0.93542942899656
H           -6.94031618235865       -0.30243861860147        1.52578514891114
H           -6.09085672975299        0.56171678295159        2.83589389783581
H           -6.44802412561278        1.39776287655577        1.30419283072822
H           -4.15083439455999       -1.65715114256630        0.68124778465809
H           -0.94718089060677       -3.99504794542404       -2.10263440470609
H           -2.50675184269485       -3.38517636121574       -1.48958704951998
H           -1.59365156491739       -2.44570810821085       -2.70034990997898
H           -0.05018873655829       -0.54966165553572       -2.63134124170435
H            0.54976133675731        1.03580843708139       -2.12207181760926
H           -1.20862910802222        0.75074156459625       -2.24694588493658
H           -0.14327446975298        2.45519835689569        2.52364908404990
H            1.61725210416164        2.68492247521619        2.47733307622976
H            0.93676720434317        1.06452979547966        2.72719000169914
H           -0.28479682645866        3.59353948313477        0.18068253027545
H            1.47548860118015        3.79577913350894        0.27728210016384
H            0.75186834158200        2.98288934985762       -1.11891556811570
H            1.80423769470639        0.13563322637978       -0.13054584840120
H            4.67947467742816       -3.31992652593918       -0.70998435612514
H            4.67929195338280       -2.64215804450716       -2.33872918987144
H            6.21933122824777       -2.89100820935634       -1.48831814959723

          :  Hamiltonian                  GFN1-xTB          :
         :: total energy             -87.028934627945 Eh    ::
         :: gradient norm              0.000220664063 Eh/a0 ::
         :: HOMO-LUMO gap              0.336565073464 eV    ::
         :: SCC energy               -87.821053862883 Eh    ::
         :: -> Gsolv                  -0.109756741721 Eh    ::
         :: repulsion energy           0.820918336743 Eh    ::

    * Orbital Energies and Occupations

         #    Occupation            Energy/Eh            Energy/eV
      -------------------------------------------------------------
         1        2.0000           -0.8580185             -23.3479
       ...           ...                  ...                  ...
        59        2.0000           -0.4633720             -12.6090
        60        2.0000           -0.4542470             -12.3607
        61        2.0000           -0.4522399             -12.3061
        62        2.0000           -0.4498018             -12.2397
        63        2.0000           -0.4435273             -12.0690
        64        2.0000           -0.4410183             -12.0007
        65        2.0000           -0.4322327             -11.7616
        66        2.0000           -0.4296580             -11.6916
        67        2.0000           -0.4063325             -11.0569
        68        2.0000           -0.4023267             -10.9479
        69        2.0000           -0.3812514             -10.3744
        70        2.0000           -0.3783289             -10.2949
        71        1.9970           -0.3109890              -8.4624 (HOMO)
        72        0.0030           -0.2986205              -8.1259 (LUMO)
        73                         -0.2510290              -6.8308
        74                         -0.2248963              -6.1197
        75                         -0.1960280              -5.3342
        76                         -0.1868494              -5.0844
        77                         -0.1405297              -3.8240
        78                         -0.1220618              -3.3215
        79                         -0.1106236              -3.0102
        80                         -0.1104740              -3.0062
        81                         -0.1053046              -2.8655
        82                         -0.1038654              -2.8263
       ...                                ...                  ...
       144                          0.7299308              19.8624
      -------------------------------------------------------------
                  HL-Gap            0.0123685 Eh            0.3366 eV

Wiberg/Mayer (AO) data.
largest (>0.10) Wiberg bond orders for each atom

     #   Z sym  total        # sym  WBO       # sym  WBO       # sym  WBO
 ---------------------------------------------------------------------------
     1   6 C    3.907 --    27 H    0.987    28 H    0.981    29 H    0.981
                             2 O    0.934
     2   8 O    2.097 --     1 C    0.934     3 C    0.933
     3   6 C    3.866 --     4 O    1.480     5 C    1.301     2 O    0.933
     4   8 O    1.787 --     3 C    1.480     5 C    0.110
     5   6 C    3.857 --     3 C    1.301    26 N    1.118     6 C    1.101
                             4 O    0.110
     6   6 C    3.901 --     8 C    1.646     5 C    1.101     7 O    1.005
     7   8 O    1.987 --     6 C    1.005    30 H    0.825
     8   6 C    3.837 --     6 C    1.646    11 N    0.960     9 O    0.950
     9   8 O    2.022 --     8 C    0.950    10 C    0.935
    10   6 C    3.916 --    31 H    0.986    33 H    0.981    32 H    0.980
                             9 O    0.935
    11   7 N    3.098 --    13 C    0.962     8 C    0.960    12 C    0.944
    12   6 C    3.970 --    34 H    0.985    36 H    0.985    35 H    0.984
                            11 N    0.944
    13   6 C    3.941 --    26 N    1.726    14 C    0.974    11 N    0.962
    14   6 C    3.925 --    15 C    0.986    16 C    0.982    13 C    0.974
                            17 N    0.917
    15   6 C    3.993 --    39 H    0.987    14 C    0.986    38 H    0.984
                            37 H    0.983
    16   6 C    3.993 --    40 H    0.986    42 H    0.983    41 H    0.982
                            14 C    0.982
    17   7 N    3.388 --    18 C    1.304    14 C    0.917    43 H    0.881
                            19 O    0.186
    18   6 C    3.923 --    19 O    1.555    17 N    1.304    20 C    0.984
    19   8 O    1.875 --    18 C    1.555    17 N    0.186
    20   6 C    3.866 --    21 N    1.625    25 O    1.048    18 C    0.984
    21   7 N    2.992 --    20 C    1.625    22 N    1.192
    22   7 N    2.980 --    23 C    1.617    21 N    1.192
    23   6 C    3.871 --    22 N    1.617    25 O    1.073    24 C    1.030
    24   6 C    3.988 --    23 C    1.030    46 H    0.983    44 H    0.965
                            45 H    0.964
    25   8 O    2.315 --    23 C    1.073    20 C    1.048
    26   7 N    3.058 --    13 C    1.726     5 C    1.118
    27   1 H    1.017 --     1 C    0.987
    28   1 H    1.018 --     1 C    0.981
    29   1 H    1.019 --     1 C    0.981
    30   1 H    0.886 --     7 O    0.825
    31   1 H    1.019 --    10 C    0.986
    32   1 H    1.026 --    10 C    0.980
    33   1 H    1.016 --    10 C    0.981
    34   1 H    1.017 --    12 C    0.985
    35   1 H    1.017 --    12 C    0.984
    36   1 H    1.011 --    12 C    0.985
    37   1 H    1.021 --    15 C    0.983
    38   1 H    1.012 --    15 C    0.984
    39   1 H    1.009 --    15 C    0.987
    40   1 H    1.009 --    16 C    0.986
    41   1 H    1.013 --    16 C    0.982
    42   1 H    1.010 --    16 C    0.983
    43   1 H    0.966 --    17 N    0.881
    44   1 H    0.998 --    24 C    0.965
    45   1 H    0.997 --    24 C    0.964
    46   1 H    1.000 --    24 C    0.983
 ---------------------------------------------------------------------------

           -------------------------------------------------
          | TOTAL ENERGY              -87.028934627945 Eh   |
          | GRADIENT NORM               0.000220664063 Eh/α |
          | HOMO-LUMO GAP               0.336565073464 eV   |
           -------------------------------------------------

 * finished run on 2023/06/20 at 15:34:26.601
