   * xtb version 6.5.1 (579679a) compiled by 'ehlert@majestix' on 2022-07-11
          program call               : /lustre/hpc/kemi/ree/PhD/git/ReactivityQM/dep/xtb-6.5.1/bin/xtb --gfn 1 /lustre/hpc/kemi/ree/PhD/git/ReactivityQM/calculations/R02oxygendeprot/reac01prodN11/conf02/R02oxygendeprot_reac01prodN11_conf02_gfn1.xyz --opt --vfukui --chrg 0 --uhf 0 --alpb DMSO

   ID    Z sym.   atoms
    1    6 C      1, 3, 5, 7-10, 12, 13, 15, 18, 19, 22, 24
    2    8 O      2, 4, 14, 20, 23, 25
    3    7 N      6, 11, 16, 17, 21
    4    1 H      26-42

      * Solvation model:               ALPB
        Solvent                        DMSO
        Solvent mass                       7.8130E+01 g/mol
          :  Hamiltonian                  GFN1-xTB          :
 * total energy  :   -82.8627889 Eh     change       -0.2033573E-10 Eh
 * total energy  :   -82.8766275 Eh     change       -0.1383860E-01 Eh
 * total energy  :   -82.8834204 Eh     change       -0.6792842E-02 Eh
 * total energy  :   -82.8846375 Eh     change       -0.1217146E-02 Eh
 * total energy  :   -82.8852980 Eh     change       -0.6604746E-03 Eh
 * total energy  :   -82.8856683 Eh     change       -0.3703062E-03 Eh
 * total energy  :   -82.8859178 Eh     change       -0.2494867E-03 Eh
 * total energy  :   -82.8860919 Eh     change       -0.1740931E-03 Eh
 * total energy  :   -82.8862129 Eh     change       -0.1209830E-03 Eh
 * total energy  :   -82.8863002 Eh     change       -0.8735307E-04 Eh
 * total energy  :   -82.8875832 Eh     change       -0.1226429E-04 Eh
 * total energy  :   -82.8875936 Eh     change       -0.1047374E-04 Eh
 * total energy  :   -82.8876045 Eh     change       -0.1080625E-04 Eh
 * total energy  :   -82.8876150 Eh     change       -0.1051258E-04 Eh
 * total energy  :   -82.8876273 Eh     change       -0.1231630E-04 Eh
 * total energy  :   -82.8876370 Eh     change       -0.9674194E-05 Eh
 * total energy  :   -82.8876484 Eh     change       -0.1145372E-04 Eh
 * total energy  :   -82.8876535 Eh     change       -0.5064526E-05 Eh
 * total energy  :   -82.8876576 Eh     change       -0.4151864E-05 Eh
   *** GEOMETRY OPTIMIZATION CONVERGED AFTER 45 ITERATIONS ***

 final structure:
================
42
 xtb: 6.5.1 (579679a)
C            6.81959696565132        1.16974578356273       -0.25596485246599
O            5.48237062128137        1.17227353239497        0.25248077209328
C            4.59209516623753        0.45579085781482       -0.42027007098558
O            4.85547319449134       -0.17631090423008       -1.41844275824122
C            3.21597262678911        0.49528546799222        0.16977623559907
N            2.29490773829787       -0.10319485996936       -0.58092871786828
C            1.03874579421588       -0.18073641358498       -0.19190543913228
C            0.06265084406511       -0.99836934332341       -1.00240048600450
C           -0.09637131111856       -2.36510840107890       -0.31708070726597
C            0.59725248016620       -1.17843148172740       -2.43368884954557
N           -1.15748661357467       -0.23274921768826       -1.04221283965627
C           -2.52945914720769       -0.72751162554560       -0.89225909621523
C           -3.35624518285266        0.09145384079332       -1.96894525567386
O           -2.72573743383873       -1.98742439103613       -0.97522330510029
C           -2.98373831742288       -0.11170225153568        0.45814707607411
N           -2.21419916154250        0.27666822134702        1.42187117926769
N           -3.04105582308107        0.67824010745834        2.43820064230095
C           -4.25288441820703        0.50942021527371        2.01786460564036
C           -5.51477254223516        0.79146786039606        2.73552615422348
O           -4.27955378531494        0.01109042120042        0.76447356042181
N            0.59375056084810        0.46025315885704        0.90326578173589
C            1.41003429761864        1.15020846206641        1.78593067458545
O            0.94691835185352        1.67743602722328        2.77261293835711
C            2.88892803668952        1.14350675803236        1.43041219274455
O            3.69293066151985        1.67767999436483        2.17776500105282
H            7.21433999718186        0.15130795639711       -0.26440387486249
H            6.83392810810453        1.57014293694244       -1.27204058955621
H            7.40675069443570        1.79971916590349        0.40883847480505
H           -0.64931016785495       -3.04852709968304       -0.95657400261733
H           -0.61897570677275       -2.25562632058721        0.63112868926064
H            0.89536018940642       -2.77661084588470       -0.13532598861529
H           -0.12050210282833       -1.75543613794295       -3.01209477143990
H            0.74073471403757       -0.20749098961104       -2.90264263716340
H            1.55054820953791       -1.70290064000128       -2.39734058326220
H           -1.05648385824143        0.75836321804470       -1.18157705083779
H           -3.01072885002300       -0.22310086816041       -2.94884490777999
H           -4.40063430841060       -0.17341638471112       -1.83129493885021
H           -3.21144206749182        1.15787124617270       -1.83201159199448
H           -6.07033911716091        1.57178034480901        2.21585315354955
H           -6.13583375384849       -0.10310523333694        2.76172295074359
H           -5.29438723890635        1.11676034852782        3.74947495624466
H           -0.41314934447799        0.42128748404734        1.13812727644179

          :  Hamiltonian                  GFN1-xTB          :
         :: total energy             -82.887657628925 Eh    ::
         :: gradient norm              0.000500655185 Eh/a0 ::
         :: HOMO-LUMO gap              0.133580674039 eV    ::
         :: SCC energy               -83.649725430347 Eh    ::
         :: -> Gsolv                  -0.060865295668 Eh    ::
         :: repulsion energy           0.789044384567 Eh    ::

    * Orbital Energies and Occupations

         #    Occupation            Energy/Eh            Energy/eV
      -------------------------------------------------------------
         1        2.0000           -0.8709188             -23.6989
       ...           ...                  ...                  ...
        55        2.0000           -0.5129303             -13.9575
        56        2.0000           -0.5090024             -13.8507
        57        2.0000           -0.5049287             -13.7398
        58        2.0000           -0.5000761             -13.6078
        59        2.0000           -0.4904870             -13.3468
        60        2.0000           -0.4882963             -13.2872
        61        2.0000           -0.4804183             -13.0728
        62        2.0000           -0.4682503             -12.7417
        63        2.0000           -0.4613521             -12.5540
        64        2.0000           -0.4506871             -12.2638
        65        2.0000           -0.4468231             -12.1587
        66        2.0000           -0.4393536             -11.9554
        67        1.8596           -0.4233836             -11.5209 (HOMO)
        68        0.1404           -0.4184746             -11.3873 (LUMO)
        69                         -0.3247333              -8.8364
        70                         -0.3024017              -8.2288
        71                         -0.2769299              -7.5356
        72                         -0.2606219              -7.0919
        73                         -0.2493031              -6.7839
        74                         -0.1764015              -4.8001
        75                         -0.1441594              -3.9228
        76                         -0.1394065              -3.7934
        77                         -0.1349133              -3.6712
        78                         -0.1316264              -3.5817
       ...                                ...                  ...
       134                          0.7473900              20.3375
      -------------------------------------------------------------
                  HL-Gap            0.0049090 Eh            0.1336 eV

Wiberg/Mayer (AO) data.
largest (>0.10) Wiberg bond orders for each atom

     #   Z sym  total        # sym  WBO       # sym  WBO       # sym  WBO
 ---------------------------------------------------------------------------
     1   6 C    3.866 --    28 H    0.986    26 H    0.978    27 H    0.978
                             2 O    0.893
     2   8 O    2.208 --     3 C    1.129     1 C    0.893     4 O    0.140
     3   6 C    3.847 --     4 O    1.653     2 O    1.129     5 C    0.993
     4   8 O    1.901 --     3 C    1.653     2 O    0.140
     5   6 C    3.783 --     6 N    1.399    24 C    1.107     3 C    0.993
     6   7 N    2.999 --     5 C    1.399     7 C    1.376
     7   6 C    3.878 --     6 N    1.376    21 N    1.256     8 C    0.980
     8   6 C    3.931 --     7 C    0.980    11 N    0.964     9 C    0.959
                            10 C    0.951
     9   6 C    3.978 --    31 H    0.984    30 H    0.984    29 H    0.975
                             8 C    0.959
    10   6 C    3.973 --    33 H    0.984    32 H    0.983    34 H    0.980
                             8 C    0.951
    11   7 N    3.262 --     8 C    0.964    12 C    0.914    35 H    0.903
                            14 O    0.163
    12   6 C    3.889 --    14 O    1.266    11 N    0.914    15 C    0.838
                            13 C    0.798
    13   6 C    3.850 --    38 H    0.986    36 H    0.981    37 H    0.979
                            12 C    0.798
    14   8 O    1.620 --    12 C    1.266    11 N    0.163
    15   6 C    3.795 --    16 N    1.633    20 O    1.087    12 C    0.838
    16   7 N    3.085 --    15 C    1.633    17 N    1.157
    17   7 N    2.982 --    18 C    1.636    16 N    1.157
    18   6 C    3.859 --    17 N    1.636    20 O    1.053    19 C    1.031
    19   6 C    3.984 --    18 C    1.031    41 H    0.981    40 H    0.965
                            39 H    0.961
    20   8 O    2.326 --    15 C    1.087    18 C    1.053
    21   7 N    3.473 --     7 C    1.256    22 C    1.099    42 H    0.812
                            23 O    0.104
    22   6 C    3.853 --    23 O    1.679    21 N    1.099    24 C    0.936
    23   8 O    1.918 --    22 C    1.679    21 N    0.104
    24   6 C    3.860 --    25 O    1.670     5 C    1.107    22 C    0.936
    25   8 O    1.831 --    24 C    1.670
    26   1 H    1.005 --     1 C    0.978
    27   1 H    1.005 --     1 C    0.978
    28   1 H    1.010 --     1 C    0.986
    29   1 H    1.014 --     9 C    0.975
    30   1 H    1.005 --     9 C    0.984
    31   1 H    1.001 --     9 C    0.984
    32   1 H    0.999 --    10 C    0.983
    33   1 H    1.000 --    10 C    0.984
    34   1 H    1.007 --    10 C    0.980
    35   1 H    0.937 --    11 N    0.903
    36   1 H    0.996 --    13 C    0.981
    37   1 H    1.001 --    13 C    0.979
    38   1 H    0.996 --    13 C    0.986
    39   1 H    0.997 --    19 C    0.961
    40   1 H    0.996 --    19 C    0.965
    41   1 H    0.997 --    19 C    0.981
    42   1 H    0.956 --    21 N    0.812
 ---------------------------------------------------------------------------

           -------------------------------------------------
          | TOTAL ENERGY              -82.887657628925 Eh   |
          | GRADIENT NORM               0.000500655185 Eh/α |
          | HOMO-LUMO GAP               0.133580674039 eV   |
           -------------------------------------------------

 * finished run on 2023/06/21 at 17:27:08.853
