   * xtb version 6.5.1 (579679a) compiled by 'ehlert@majestix' on 2022-07-11
          program call               : /lustre/hpc/kemi/ree/PhD/git/ReactivityQM/dep/xtb-6.5.1/bin/xtb --gfn 1 /lustre/hpc/kemi/ree/PhD/git/ReactivityQM/calculations/R03/reac02prodN07/conf10/R03_reac02prodN07_conf10_gfn1.xyz --opt --vfukui --chrg 1 --uhf 0 --alpb DMSO

   ID    Z sym.   atoms
    1    6 C      1, 3, 5, 7-10, 12, 14, 17-19, 22, 23, 25
    2    8 O      2, 4, 13, 20, 24, 26
    3    7 N      6, 11, 15, 16, 21
    4    1 H      27-46

      * Solvation model:               ALPB
        Solvent                        DMSO
        Solvent mass                       7.8130E+01 g/mol
          :  Hamiltonian                  GFN1-xTB          :
 * total energy  :   -86.3359210 Eh     change       -0.3002754E-10 Eh
 * total energy  :   -86.3539436 Eh     change       -0.1802255E-01 Eh
 * total energy  :   -86.3598756 Eh     change       -0.5932000E-02 Eh
 * total energy  :   -86.3609011 Eh     change       -0.1025484E-02 Eh
 * total energy  :   -86.3615040 Eh     change       -0.6029564E-03 Eh
 * total energy  :   -86.3617483 Eh     change       -0.2442858E-03 Eh
 * total energy  :   -86.3619589 Eh     change       -0.2105972E-03 Eh
 * total energy  :   -86.3620864 Eh     change       -0.1275246E-03 Eh
 * total energy  :   -86.3621631 Eh     change       -0.7669775E-04 Eh
 * total energy  :   -86.3622172 Eh     change       -0.5409179E-04 Eh
 * total energy  :   -86.3623768 Eh     change       -0.2465323E-04 Eh
 * total energy  :   -86.3623983 Eh     change       -0.2150064E-04 Eh
 * total energy  :   -86.3624047 Eh     change       -0.6346369E-05 Eh
 * total energy  :   -86.3624198 Eh     change       -0.1507723E-04 Eh
 * total energy  :   -86.3624283 Eh     change       -0.8587351E-05 Eh
 * total energy  :   -86.3624336 Eh     change       -0.5223454E-05 Eh
 * total energy  :   -86.3624418 Eh     change       -0.8189767E-05 Eh
 * total energy  :   -86.3624468 Eh     change       -0.5067663E-05 Eh
 * total energy  :   -86.3624506 Eh     change       -0.3738508E-05 Eh
   *** GEOMETRY OPTIMIZATION CONVERGED AFTER 22 ITERATIONS ***

 final structure:
================
46
 xtb: 6.5.1 (579679a)
C           -5.36405544589841        0.33264797124323       -3.38447750450276
O           -4.39977368752669        0.25026395523818       -2.32718297153436
C           -4.51208499521218        1.14072732281172       -1.35409923442921
O           -5.37985821462136        1.99580926289830       -1.32649716464886
C           -3.48335241121238        1.01447620909737       -0.29585368085841
N           -2.55349277322109        0.02285252147079       -0.42718755228640
C           -1.62333845833114       -0.13238083419078        0.45747861754177
C           -0.68363580202806       -1.30849927359666        0.22244270185541
C           -0.91891913370001       -1.87636315801764       -1.18385167573772
C           -0.93765476883962       -2.39749025392573        1.27364228949359
N            0.70640869188586       -0.81301788794024        0.27423721924589
C            1.77604499566253       -1.62373805484027        0.22577671266341
O            1.78890532411448       -2.83271303972518        0.26618304869214
C            3.04999273253650       -0.82503776846733        0.12756358189137
N            3.17960192316022        0.46778375806746        0.10860416583190
N            4.50355635818268        0.68135916432050       -0.01528975454613
C            5.01089280707410        2.03584112574371       -0.09499631156037
C            5.14001740140736       -0.47115217556837       -0.07402321606024
C            6.58201390580186       -0.72989313128781       -0.21668413662775
O            4.24441587136268       -1.43153390492853        0.01736777672426
N           -1.53609949008122        0.67435797660687        1.56118603012824
C           -0.51590323309444        0.56923082628114        2.60606161907312
C           -2.44093416772534        1.71092429606640        1.80593998841629
O           -2.33110841275312        2.39987813170481        2.80748717322274
C           -3.47044706476016        1.86520771892435        0.78091072053349
O           -4.35009349729788        2.84691771148918        0.97330644346802
H           -5.27347036072773        1.29403435645495       -3.89473354429528
H           -6.37270357503691        0.23038411475166       -2.97792352154577
H           -5.14372674269866       -0.48361121496489       -4.06901597767046
H           -1.94149200250526       -2.24037384903391       -1.26579425873726
H           -0.22860463820712       -2.69801098483088       -1.36455150996250
H           -0.75891896285152       -1.10132978848519       -1.93094795029111
H           -0.43166293920928       -3.31862849908484        0.99189696068932
H           -2.00904775952869       -2.58815760023039        1.32613057776983
H           -0.58552635848095       -2.09355932113379        2.25592871448350
H            0.85291664351306        0.16693462678514        0.09561172324691
H            4.32915778805163        2.68283878251702        0.45149380859099
H            6.00606863316603        2.06413142991968        0.34131490853156
H            5.05164010141452        2.33374982636936       -1.14258448420588
H            6.74437929554681       -1.79175088612112       -0.39290269833054
H            7.10455998084294       -0.43072901962610        0.69410439448468
H            6.98618938900715       -0.14524870861361       -1.04297873701273
H           -0.99423489165777        0.25870392090180        3.53568440423410
H            0.25392600945076       -0.13653455951245        2.32661418937026
H           -0.07403301891714        1.55566099793568        2.74731210538864
H           -4.99651304605652        2.87503690652862        0.22922200927315

          :  Hamiltonian                  GFN1-xTB          :
         :: total energy             -86.362450560896 Eh    ::
         :: gradient norm              0.000738639756 Eh/a0 ::
         :: HOMO-LUMO gap              1.943203228940 eV    ::
         :: SCC energy               -87.204422212687 Eh    ::
         :: -> Gsolv                  -0.123799809444 Eh    ::
         :: repulsion energy           0.870391945880 Eh    ::

    * Orbital Energies and Occupations

         #    Occupation            Energy/Eh            Energy/eV
      -------------------------------------------------------------
         1        2.0000           -0.9400595             -25.5803
       ...           ...                  ...                  ...
        58        2.0000           -0.5271865             -14.3455
        59        2.0000           -0.5232753             -14.2390
        60        2.0000           -0.5198635             -14.1462
        61        2.0000           -0.5189265             -14.1207
        62        2.0000           -0.5131690             -13.9640
        63        2.0000           -0.5031997             -13.6928
        64        2.0000           -0.4963371             -13.5060
        65        2.0000           -0.4931485             -13.4193
        66        2.0000           -0.4825593             -13.1311
        67        2.0000           -0.4785592             -13.0223
        68        2.0000           -0.4654667             -12.6660
        69        2.0000           -0.4516114             -12.2890
        70        2.0000           -0.4346522             -11.8275 (HOMO)
        71                         -0.3632408              -9.8843 (LUMO)
        72                         -0.3469114              -9.4399
        73                         -0.3309944              -9.0068
        74                         -0.2930519              -7.9743
        75                         -0.2478009              -6.7430
        76                         -0.2466955              -6.7129
        77                         -0.1858056              -5.0560
        78                         -0.1737088              -4.7269
        79                         -0.1648186              -4.4849
        80                         -0.1496608              -4.0725
        81                         -0.1403058              -3.8179
       ...                                ...                  ...
       144                          0.7168691              19.5070
      -------------------------------------------------------------
                  HL-Gap            0.0714114 Eh            1.9432 eV

Wiberg/Mayer (AO) data.
largest (>0.10) Wiberg bond orders for each atom

     #   Z sym  total        # sym  WBO       # sym  WBO       # sym  WBO
 ---------------------------------------------------------------------------
     1   6 C    3.864 --    29 H    0.986    28 H    0.979    27 H    0.979
                             2 O    0.890
     2   8 O    2.218 --     3 C    1.139     1 C    0.890     4 O    0.131
     3   6 C    3.849 --     4 O    1.608     2 O    1.139     5 C    1.018
     4   8 O    1.945 --     3 C    1.608     2 O    0.131
     5   6 C    3.963 --    25 C    1.475     6 N    1.186     3 C    1.018
     6   7 N    3.033 --     7 C    1.573     5 C    1.186
     7   6 C    3.934 --     6 N    1.573    21 N    1.175     8 C    0.976
     8   6 C    3.918 --     9 C    0.989    10 C    0.984     7 C    0.976
                            11 N    0.903
     9   6 C    3.987 --     8 C    0.989    32 H    0.984    31 H    0.983
                            30 H    0.982
    10   6 C    3.986 --     8 C    0.984    34 H    0.983    35 H    0.980
                            33 H    0.977
    11   7 N    3.372 --    12 C    1.274     8 C    0.903    36 H    0.893
                            13 O    0.195
    12   6 C    3.924 --    13 O    1.624    11 N    1.274    14 C    0.952
    13   8 O    1.950 --    12 C    1.624    11 N    0.195
    14   6 C    3.842 --    15 N    1.609    20 O    1.068    12 C    0.952
    15   7 N    2.991 --    14 C    1.609    16 N    1.150
    16   7 N    3.630 --    18 C    1.422    15 N    1.150    17 C    0.909
    17   6 C    3.883 --    38 H    0.977    37 H    0.975    39 H    0.963
                            16 N    0.909
    18   6 C    3.841 --    16 N    1.422    20 O    1.156    19 C    1.041
    19   6 C    3.960 --    18 C    1.041    40 H    0.971    42 H    0.953
                            41 H    0.939
    20   8 O    2.391 --    18 C    1.156    14 C    1.068
    21   7 N    3.501 --     7 C    1.175    23 C    1.104    22 C    0.930
                            24 O    0.136
    22   6 C    3.922 --    44 H    0.978    45 H    0.974    43 H    0.974
                            21 N    0.930
    23   6 C    3.911 --    24 O    1.592    21 N    1.104    25 C    1.067
    24   8 O    1.907 --    23 C    1.592    21 N    0.136
    25   6 C    3.923 --     5 C    1.475    26 O    1.129    23 C    1.067
    26   8 O    2.097 --    25 C    1.129    46 H    0.775
    27   1 H    1.006 --     1 C    0.979
    28   1 H    1.006 --     1 C    0.979
    29   1 H    1.010 --     1 C    0.986
    30   1 H    1.009 --     9 C    0.982
    31   1 H    1.002 --     9 C    0.983
    32   1 H    1.007 --     9 C    0.984
    33   1 H    1.008 --    10 C    0.977
    34   1 H    1.000 --    10 C    0.983
    35   1 H    1.000 --    10 C    0.980
    36   1 H    0.938 --    11 N    0.893
    37   1 H    0.991 --    17 C    0.975
    38   1 H    0.989 --    17 C    0.977
    39   1 H    0.989 --    17 C    0.963
    40   1 H    0.986 --    19 C    0.971
    41   1 H    0.985 --    19 C    0.939
    42   1 H    0.986 --    19 C    0.953
    43   1 H    1.002 --    22 C    0.974
    44   1 H    1.008 --    22 C    0.978
    45   1 H    1.005 --    22 C    0.974
    46   1 H    0.850 --    26 O    0.775
 ---------------------------------------------------------------------------

           -------------------------------------------------
          | TOTAL ENERGY              -86.362450560896 Eh   |
          | GRADIENT NORM               0.000738639756 Eh/α |
          | HOMO-LUMO GAP               1.943203228940 eV   |
           -------------------------------------------------

 * finished run on 2023/06/20 at 15:42:22.569
