   * xtb version 6.5.1 (579679a) compiled by 'ehlert@majestix' on 2022-07-11
          program call               : /lustre/hpc/kemi/ree/PhD/git/ReactivityQM/dep/xtb-6.5.1/bin/xtb --gfn 1 /lustre/hpc/kemi/ree/PhD/git/ReactivityQM/calculations/R01/reac01prodN01/conf11/R01_reac01prodN01_conf11_gfn1.xyz --opt --vfukui --chrg 1 --uhf 0 --alpb DMSO

   ID    Z sym.   atoms
    1    6 C      1, 3, 5, 8, 9, 11
    2    8 O      2, 4, 10
    3    7 N      6, 7
    4    1 H      12-20

      * Solvation model:               ALPB
        Solvent                        DMSO
        Solvent mass                       7.8130E+01 g/mol
          :  Hamiltonian                  GFN1-xTB          :
 * total energy  :   -37.5507180 Eh     change       -0.1288925E-10 Eh
 * total energy  :   -37.5663669 Eh     change       -0.1564888E-01 Eh
 * total energy  :   -37.5734853 Eh     change       -0.7118383E-02 Eh
 * total energy  :   -37.5755104 Eh     change       -0.2025142E-02 Eh
 * total energy  :   -37.5768331 Eh     change       -0.1322695E-02 Eh
 * total energy  :   -37.5773951 Eh     change       -0.5620421E-03 Eh
 * total energy  :   -37.5778236 Eh     change       -0.4284443E-03 Eh
 * total energy  :   -37.5781160 Eh     change       -0.2923995E-03 Eh
 * total energy  :   -37.5782721 Eh     change       -0.1561467E-03 Eh
 * total energy  :   -37.5783723 Eh     change       -0.1001507E-03 Eh
 * total energy  :   -37.5794041 Eh     change       -0.1843996E-04 Eh
 * total energy  :   -37.5794439 Eh     change       -0.3981407E-04 Eh
 * total energy  :   -37.5794652 Eh     change       -0.2130104E-04 Eh
 * total energy  :   -37.5794958 Eh     change       -0.3059030E-04 Eh
 * total energy  :   -37.5795110 Eh     change       -0.1523372E-04 Eh
 * total energy  :   -37.5795183 Eh     change       -0.7264268E-05 Eh
 * total energy  :   -37.5795195 Eh     change       -0.1253299E-05 Eh
 * total energy  :   -37.5795213 Eh     change       -0.1773006E-05 Eh
 * total energy  :   -37.5795235 Eh     change       -0.2248705E-05 Eh
   *** GEOMETRY OPTIMIZATION CONVERGED AFTER 38 ITERATIONS ***

 final structure:
================
20
 xtb: 6.5.1 (579679a)
C            3.92673979595014       -0.12346317063027        0.04763276989881
O            2.63112327539214        0.47142809816764        0.26147275551531
C            1.58993257906990       -0.22175571603415       -0.12004590476871
O            1.59644621763265       -1.31075515921621       -0.62994613751701
C            0.32640502446063        0.53150070916417        0.16349120330612
N            0.15253356788029        1.67947998353147        0.69891884282491
N           -1.18385104378136        1.94480967459442        0.74536646729797
C           -1.82501376982106        0.96028279625185        0.23894471027099
C           -3.27331014605985        0.78739723867001        0.05957399775788
O           -0.91408628478010       -0.01839220470154       -0.17169832905351
C           -1.16453025230906       -1.32699065040827       -0.78370525824903
H            3.97973255481222       -1.07792193055715        0.57295767721134
H            4.08083264038627       -0.28051715114232       -1.02072011718596
H            4.65195150641480        0.58206307383353        0.44603144946737
H           -3.51476880419521        0.68255165113127       -0.99893145667004
H           -3.78065318031120        1.66233954943021        0.46311456497106
H           -3.61956510313722       -0.10697112998429        0.57830887081724
H           -0.76047993668913       -2.08135235761777       -0.11244998101024
H           -2.24037512077877       -1.41680633149998       -0.89152317401860
H           -0.65906152013627       -1.33692697298268       -1.74674395086550

          :  Hamiltonian                  GFN1-xTB          :
         :: total energy             -37.579523543933 Eh    ::
         :: gradient norm              0.000371413781 Eh/a0 ::
         :: HOMO-LUMO gap              3.706588075494 eV    ::
         :: SCC energy               -37.929065238115 Eh    ::
         :: -> Gsolv                  -0.089848593474 Eh    ::
         :: repulsion energy           0.358263380226 Eh    ::

    * Orbital Energies and Occupations

         #    Occupation            Energy/Eh            Energy/eV
      -------------------------------------------------------------
         1        2.0000           -0.9754566             -26.5435
       ...           ...                  ...                  ...
        18        2.0000           -0.6071523             -16.5215
        19        2.0000           -0.6031500             -16.4125
        20        2.0000           -0.5993713             -16.3097
        21        2.0000           -0.5934800             -16.1494
        22        2.0000           -0.5857920             -15.9402
        23        2.0000           -0.5723302             -15.5739
        24        2.0000           -0.5624789             -15.3058
        25        2.0000           -0.5502010             -14.9717
        26        2.0000           -0.5416883             -14.7401
        27        2.0000           -0.5294571             -14.4073
        28        2.0000           -0.5288657             -14.3912
        29        2.0000           -0.5196081             -14.1393
        30        2.0000           -0.5141935             -13.9919 (HOMO)
        31                         -0.3779789             -10.2853 (LUMO)
        32                         -0.3209959              -8.7347
        33                         -0.2591386              -7.0515
        34                         -0.1948285              -5.3016
        35                         -0.1789493              -4.8695
        36                         -0.1550570              -4.2193
        37                         -0.1279388              -3.4814
        38                         -0.1184909              -3.2243
        39                         -0.1178387              -3.2066
        40                         -0.1042385              -2.8365
        41                         -0.0900998              -2.4517
       ...                                ...                  ...
        62                          0.7180237              19.5384
      -------------------------------------------------------------
                  HL-Gap            0.1362146 Eh            3.7066 eV

Wiberg/Mayer (AO) data.
largest (>0.10) Wiberg bond orders for each atom

     #   Z sym  total        # sym  WBO       # sym  WBO       # sym  WBO
 ---------------------------------------------------------------------------
     1   6 C    3.832 --    14 H    0.984    12 H    0.976    13 H    0.976
                             2 O    0.862
     2   8 O    2.245 --     3 C    1.178     1 C    0.862     4 O    0.154
     3   6 C    3.879 --     4 O    1.670     2 O    1.178     5 C    0.962
     4   8 O    1.975 --     3 C    1.670     2 O    0.154
     5   6 C    3.810 --     6 N    1.708     3 C    0.962    10 O    0.884
     6   7 N    3.040 --     5 C    1.708     7 N    1.158
     7   7 N    3.024 --     8 C    1.684     6 N    1.158
     8   6 C    3.800 --     7 N    1.684     9 C    1.046    10 O    0.881
     9   6 C    3.967 --     8 C    1.046    16 H    0.968    17 H    0.949
                            15 H    0.947
    10   8 O    2.653 --     5 C    0.884     8 C    0.881    11 C    0.741
    11   6 C    3.717 --    19 H    0.973    18 H    0.967    20 H    0.967
                            10 O    0.741
    12   1 H    0.999 --     1 C    0.976
    13   1 H    0.999 --     1 C    0.976
    14   1 H    1.005 --     1 C    0.984
    15   1 H    0.987 --     9 C    0.947
    16   1 H    0.988 --     9 C    0.968
    17   1 H    0.987 --     9 C    0.949
    18   1 H    0.995 --    11 C    0.967
    19   1 H    0.989 --    11 C    0.973
    20   1 H    0.996 --    11 C    0.967
 ---------------------------------------------------------------------------

           -------------------------------------------------
          | TOTAL ENERGY              -37.579523543933 Eh   |
          | GRADIENT NORM               0.000371413781 Eh/α |
          | HOMO-LUMO GAP               3.706588075494 eV   |
           -------------------------------------------------

 * finished run on 2023/06/20 at 14:54:43.012
