   * xtb version 6.5.1 (579679a) compiled by 'ehlert@majestix' on 2022-07-11
          program call               : /lustre/hpc/kemi/ree/PhD/git/ReactivityQM/dep/xtb-6.5.1/bin/xtb --gfn 1 /lustre/hpc/kemi/ree/PhD/git/ReactivityQM/calculations/R02oxygendeprot/reac01prodN08/conf13/R02oxygendeprot_reac01prodN08_conf13_gfn1.xyz --opt --vfukui --chrg 0 --uhf 0 --alpb DMSO

   ID    Z sym.   atoms
    1    6 C      1, 3, 5, 7-10, 12, 14, 17, 18, 21, 23, 25
    2    8 O      2, 4, 13, 19, 22, 24
    3    7 N      6, 11, 15, 16, 20
    4    1 H      26-42

      * Solvation model:               ALPB
        Solvent                        DMSO
        Solvent mass                       7.8130E+01 g/mol
          :  Hamiltonian                  GFN1-xTB          :
 * total energy  :   -82.9945431 Eh     change       -0.1264766E-10 Eh
 * total energy  :   -83.0100319 Eh     change       -0.1548888E-01 Eh
 * total energy  :   -83.0156382 Eh     change       -0.5606300E-02 Eh
 * total energy  :   -83.0169673 Eh     change       -0.1329091E-02 Eh
 * total energy  :   -83.0175983 Eh     change       -0.6310075E-03 Eh
 * total energy  :   -83.0178228 Eh     change       -0.2244815E-03 Eh
 * total energy  :   -83.0179469 Eh     change       -0.1241289E-03 Eh
 * total energy  :   -83.0180313 Eh     change       -0.8431935E-04 Eh
 * total energy  :   -83.0181011 Eh     change       -0.6981310E-04 Eh
 * total energy  :   -83.0181686 Eh     change       -0.6755714E-04 Eh
 * total energy  :   -83.0189762 Eh     change       -0.2819580E-04 Eh
 * total energy  :   -83.0189893 Eh     change       -0.1309115E-04 Eh
 * total energy  :   -83.0190069 Eh     change       -0.1760121E-04 Eh
 * total energy  :   -83.0190165 Eh     change       -0.9593864E-05 Eh
 * total energy  :   -83.0190286 Eh     change       -0.1209072E-04 Eh
 * total energy  :   -83.0190400 Eh     change       -0.1137321E-04 Eh
 * total energy  :   -83.0190483 Eh     change       -0.8286404E-05 Eh
 * total energy  :   -83.0190547 Eh     change       -0.6456260E-05 Eh
 * total energy  :   -83.0190593 Eh     change       -0.4617597E-05 Eh
   *** GEOMETRY OPTIMIZATION CONVERGED AFTER 45 ITERATIONS ***

 final structure:
================
42
 xtb: 6.5.1 (579679a)
C           -6.03074085819364        0.07312752017309        1.72435080338817
O           -4.90247035552380       -0.24526723401698        0.90520726166962
C           -3.82013059178074        0.51236702066436        1.07019069927555
O           -3.77291152465720        1.42618478915908        1.86407026936081
C           -2.66787517670620        0.14277811482784        0.19277972943714
N           -1.58855013634714        0.96478130098169        0.38787157019017
C           -0.50920671712885        0.78107506364623       -0.29294761640994
C            0.66618938094838        1.72645719897306       -0.09688489600646
C            0.32821916409295        2.72901727035872        1.00809536879058
C            0.97301425495794        2.46850978305674       -1.40435120436254
N            1.84412439542810        0.97469827879416        0.35882528819217
C            2.61623750660939        0.17663901427373       -0.40271047806706
O            2.39416691011392       -0.13897939833022       -1.56183975390507
C            3.79165548117389       -0.30856726142162        0.36037763306791
N            4.05143738632041       -0.05533717345522        1.60826280298690
N            5.21675770244143       -0.69345031577267        1.90378281258369
C            5.59571227536520       -1.29513930962543        0.81600831295192
C            6.81127858315110       -2.11345705715429        0.61342685244743
O            4.73565429428691       -1.09094196645809       -0.19198102072205
N           -0.40928815897002       -0.21562881164036       -1.21066051222276
C           -1.41068958037243       -1.11590853035456       -1.49548450494028
O           -1.22671856592200       -1.99581624943109       -2.32571568871218
C           -2.63621174390233       -0.88843128906865       -0.72080676815400
O           -3.71814350150260       -1.66360602474937       -0.87764944082013
C           -3.77768113677273       -2.74282966812092       -1.81026880302577
H           -6.34762272922302        1.10335208821781        1.54484833276043
H           -5.77419464789691       -0.04659532509843        2.77990274064136
H           -6.82233105548281       -0.61973526162289        1.44724241384896
H           -0.55090317831848        3.30448586493174        0.72299891328665
H            0.11358716746953        2.20710035918448        1.93964749048844
H            1.16464372832615        3.40817761075360        1.15988154074731
H            1.85184347932531        3.09609697884021       -1.26775001363183
H            1.15930015966732        1.77409772752423       -2.22043986893018
H            0.12354392831003        3.09764283929828       -1.66582038644994
H            2.16092973416092        1.16117684871467        1.29931861333530
H            7.27475792624528       -2.32521637638957        1.57353357791058
H            6.55506585997389       -3.04500980677767        0.11127361997246
H            7.51955181900414       -1.57420965423620       -0.01560124671711
H            0.46629679332424       -0.34063860337645       -1.71590105697281
H           -4.78337958818883       -3.15384001110102       -1.71340954790945
H           -3.62277284137361       -2.39053296712007       -2.83231610457282
H           -3.04214484244192       -3.51361937703862       -1.56936273479937

          :  Hamiltonian                  GFN1-xTB          :
         :: total energy             -83.019059340478 Eh    ::
         :: gradient norm              0.000630521342 Eh/a0 ::
         :: HOMO-LUMO gap              2.784088209052 eV    ::
         :: SCC energy               -83.800531207185 Eh    ::
         :: -> Gsolv                  -0.048487286047 Eh    ::
         :: repulsion energy           0.806590112505 Eh    ::

    * Orbital Energies and Occupations

         #    Occupation            Energy/Eh            Energy/eV
      -------------------------------------------------------------
         1        2.0000           -0.8665193             -23.5792
       ...           ...                  ...                  ...
        55        2.0000           -0.5088423             -13.8463
        56        2.0000           -0.5033353             -13.6964
        57        2.0000           -0.4961799             -13.5017
        58        2.0000           -0.4860512             -13.2261
        59        2.0000           -0.4822921             -13.1238
        60        2.0000           -0.4807205             -13.0811
        61        2.0000           -0.4707737             -12.8104
        62        2.0000           -0.4676112             -12.7243
        63        2.0000           -0.4579454             -12.4613
        64        2.0000           -0.4561560             -12.4126
        65        2.0000           -0.4482754             -12.1982
        66        2.0000           -0.4469991             -12.1635
        67        2.0000           -0.4259872             -11.5917 (HOMO)
        68                         -0.3236739              -8.8076 (LUMO)
        69                         -0.3157670              -8.5925
        70                         -0.2836250              -7.7178
        71                         -0.2593924              -7.0584
        72                         -0.2392045              -6.5091
        73                         -0.2037652              -5.5447
        74                         -0.1601344              -4.3575
        75                         -0.1431628              -3.8957
        76                         -0.1379419              -3.7536
        77                         -0.1319076              -3.5894
        78                         -0.1304375              -3.5494
       ...                                ...                  ...
       134                          0.7185133              19.5517
      -------------------------------------------------------------
                  HL-Gap            0.1023134 Eh            2.7841 eV

Wiberg/Mayer (AO) data.
largest (>0.10) Wiberg bond orders for each atom

     #   Z sym  total        # sym  WBO       # sym  WBO       # sym  WBO
 ---------------------------------------------------------------------------
     1   6 C    3.873 --    28 H    0.986    27 H    0.980    26 H    0.979
                             2 O    0.897
     2   8 O    2.204 --     3 C    1.115     1 C    0.897     4 O    0.134
     3   6 C    3.851 --     4 O    1.652     2 O    1.115     5 C    1.002
     4   8 O    1.914 --     3 C    1.652     2 O    0.134
     5   6 C    3.962 --    23 C    1.482     6 N    1.186     3 C    1.002
     6   7 N    3.027 --     7 C    1.581     5 C    1.186
     7   6 C    3.932 --     6 N    1.581    20 N    1.186     8 C    0.969
     8   6 C    3.933 --     9 C    1.001    10 C    0.983     7 C    0.969
                            11 N    0.917
     9   6 C    3.991 --     8 C    1.001    31 H    0.985    30 H    0.983
                            29 H    0.982
    10   6 C    3.988 --    34 H    0.985    32 H    0.983     8 C    0.983
                            33 H    0.979
    11   7 N    3.348 --    12 C    1.265     8 C    0.917    35 H    0.892
                            13 O    0.175
    12   6 C    3.916 --    13 O    1.570    11 N    1.265    14 C    0.994
    13   8 O    1.923 --    12 C    1.570    11 N    0.175
    14   6 C    3.877 --    15 N    1.606    19 O    1.065    12 C    0.994
    15   7 N    3.018 --    14 C    1.606    16 N    1.204
    16   7 N    2.981 --    17 C    1.601    15 N    1.204
    17   6 C    3.870 --    16 N    1.601    19 O    1.084    18 C    1.032
    18   6 C    3.986 --    17 C    1.032    36 H    0.982    37 H    0.968
                            38 H    0.959
    19   8 O    2.333 --    17 C    1.084    14 C    1.065
    20   7 N    3.476 --     7 C    1.186    21 C    1.140    39 H    0.851
                            22 O    0.133
    21   6 C    3.912 --    22 O    1.570    20 N    1.140    23 C    1.065
    22   8 O    1.898 --    21 C    1.570    20 N    0.133
    23   6 C    3.917 --     5 C    1.482    24 O    1.096    21 C    1.065
    24   8 O    2.193 --    23 C    1.096    25 C    0.896
    25   6 C    3.872 --    40 H    0.984    41 H    0.979    42 H    0.979
                            24 O    0.896
    26   1 H    1.008 --     1 C    0.979
    27   1 H    1.008 --     1 C    0.980
    28   1 H    1.011 --     1 C    0.986
    29   1 H    1.008 --     9 C    0.982
    30   1 H    1.005 --     9 C    0.983
    31   1 H    0.999 --     9 C    0.985
    32   1 H    0.999 --    10 C    0.983
    33   1 H    1.008 --    10 C    0.979
    34   1 H    1.000 --    10 C    0.985
    35   1 H    0.949 --    11 N    0.892
    36   1 H    0.998 --    18 C    0.982
    37   1 H    0.996 --    18 C    0.968
    38   1 H    0.996 --    18 C    0.959
    39   1 H    0.933 --    20 N    0.851
    40   1 H    1.012 --    25 C    0.984
    41   1 H    1.014 --    25 C    0.979
    42   1 H    1.015 --    25 C    0.979
 ---------------------------------------------------------------------------

           -------------------------------------------------
          | TOTAL ENERGY              -83.019059340478 Eh   |
          | GRADIENT NORM               0.000630521342 Eh/α |
          | HOMO-LUMO GAP               2.784088209052 eV   |
           -------------------------------------------------

 * finished run on 2023/06/21 at 17:23:38.032
