   * xtb version 6.5.1 (579679a) compiled by 'ehlert@majestix' on 2022-07-11
          program call               : /lustre/hpc/kemi/ree/PhD/git/ReactivityQM/dep/xtb-6.5.1/bin/xtb --gfn 1 /lustre/hpc/kemi/ree/PhD/git/ReactivityQM/calculations/RaltegravirCLI/reac02prodE03/conf11/RaltegravirCLI_reac02prodE03_conf11_gfn1.xyz --opt --vfukui --chrg -1 --uhf 0 --alpb DMSO

   ID    Z sym.   atoms
    1    6 C      1, 3, 5, 7, 8, 11-15, 17, 18, 20-24
    2    7 N      2, 10, 19, 25
    3    8 O      4, 6, 9
    4    9 F      16
    5    1 H      26-47

      * Solvation model:               ALPB
        Solvent                        DMSO
        Solvent mass                       7.8130E+01 g/mol
          :  Hamiltonian                  GFN1-xTB          :
 * total energy  :   -80.1268971 Eh     change       -0.2882388E-09 Eh
 * total energy  :   -80.1390202 Eh     change       -0.1212305E-01 Eh
 * total energy  :   -80.1446671 Eh     change       -0.5646943E-02 Eh
 * total energy  :   -80.1465863 Eh     change       -0.1919162E-02 Eh
 * total energy  :   -80.1478313 Eh     change       -0.1244976E-02 Eh
 * total energy  :   -80.1487459 Eh     change       -0.9146277E-03 Eh
 * total energy  :   -80.1493791 Eh     change       -0.6332621E-03 Eh
 * total energy  :   -80.1500771 Eh     change       -0.6979942E-03 Eh
 * total energy  :   -80.1507776 Eh     change       -0.7005034E-03 Eh
 * total energy  :   -80.1513490 Eh     change       -0.5713946E-03 Eh
 * total energy  :   -80.1672185 Eh     change       -0.1773590E-04 Eh
 * total energy  :   -80.1672839 Eh     change       -0.6536920E-04 Eh
 * total energy  :   -80.1673054 Eh     change       -0.2150444E-04 Eh
 * total energy  :   -80.1673269 Eh     change       -0.2151797E-04 Eh
 * total energy  :   -80.1673443 Eh     change       -0.1741217E-04 Eh
 * total energy  :   -80.1673638 Eh     change       -0.1948347E-04 Eh
 * total energy  :   -80.1673766 Eh     change       -0.1276771E-04 Eh
 * total energy  :   -80.1673817 Eh     change       -0.5110387E-05 Eh
 * total energy  :   -80.1673846 Eh     change       -0.2942075E-05 Eh
   *** GEOMETRY OPTIMIZATION CONVERGED AFTER 80 ITERATIONS ***

 final structure:
================
47
 xtb: 6.5.1 (579679a)
C           -3.35892674250396       -2.67494352386522       -1.04993364511590
N           -2.13897814607236       -1.96118988548818       -0.68450638484478
C           -0.94495788434255       -2.44309151497893       -1.21431656659524
O           -0.88315732461857       -3.55195009593955       -1.84247433256016
C            0.12544993278294       -1.52331266455792       -1.14367936012040
O            1.17084897262822       -1.75936389251221       -2.01886189001046
C            0.03200993918292       -0.36391859997523       -0.36438346481605
C            0.75536204262684        0.86571484178518       -0.47500037473735
O            0.47444916496769        1.90149050101490        0.16116788214588
N            1.81071789988147        0.88855690391830       -1.39473684037027
C            2.78764152085442        1.96267300889134       -1.27121566261180
C            3.74636213681763        1.69544571221321       -0.12885774258033
C            3.44036597508169        2.12013270645476        1.16340824859928
C            4.29894655090536        1.85201546968686        2.21993556732885
C            5.45998115674870        1.14734360347240        1.95862329141928
F            6.29999355759801        0.88329175515762        2.97894564691541
C            5.79633887353794        0.70686990943448        0.69211904487829
C            4.92561060636150        0.98739382177944       -0.35271040473187
N           -0.95365154761403       -0.43588993643877        0.70182377941997
C           -0.53702217213604       -1.34295768627929        1.79593815290652
C           -2.18510575268290       -0.84108650512472        0.09687948131533
C           -3.35106574931115        0.12597955744497        0.13266785887139
C           -4.44231655074206       -0.36176918045984        1.10711848299230
C           -2.85812781957363        1.50736328132250        0.60233388639604
N           -3.96480186566311        0.24909804071241       -1.20052151828864
H           -4.06446560877470       -2.00042956529165       -1.53761244473692
H           -3.09886192379016       -3.48583532458672       -1.73277778179485
H           -3.82266880966734       -3.09733631618328       -0.15651552341193
H            0.97505998353987       -2.61263872897550       -2.44827784677166
H            2.22940139545171       -0.00625120864306       -1.61417504835348
H            3.33702444275973        2.03298040092402       -2.21475769496822
H            2.25069646754811        2.90254916877855       -1.10524313990208
H            2.52040689567205        2.66601622592424        1.34485738410971
H            4.07745815382156        2.18197351592991        3.22668652416059
H            6.71761140582996        0.16343622537569        0.52870915671273
H            5.17584496355588        0.65621168899235       -1.35417292682158
H           -1.30763657247983       -1.32407728030640        2.56752860347939
H           -0.39869279158307       -2.37572586024288        1.45059609200293
H            0.40270527103756       -0.97739311115926        2.21190137418754
H           -4.00183546211910       -0.56460039290666        2.08273047895644
H           -5.21523041537328        0.39843963151617        1.22195428343194
H           -4.90878823027967       -1.27347839104340        0.73825939516572
H           -2.06978949417353        1.87638673166039       -0.05424630790367
H           -2.45793024797372        1.44256396358209        1.61417071771647
H           -3.68629273154064        2.21522291335682        0.59317685632157
H           -3.34211353188182        0.76472000672875       -1.81117465121092
H           -4.81786893429084        0.78337307889477       -1.11957763618168

          :  Hamiltonian                  GFN1-xTB          :
         :: total energy             -80.167384605433 Eh    ::
         :: gradient norm              0.000404664912 Eh/a0 ::
         :: HOMO-LUMO gap              0.918972750435 eV    ::
         :: SCC energy               -81.012051701422 Eh    ::
         :: -> Gsolv                  -0.100859551329 Eh    ::
         :: repulsion energy           0.876686636955 Eh    ::

    * Orbital Energies and Occupations

         #    Occupation            Energy/Eh            Energy/eV
      -------------------------------------------------------------
         1        2.0000           -0.8538227             -23.2337
       ...           ...                  ...                  ...
        56        2.0000           -0.4595733             -12.5056
        57        2.0000           -0.4588616             -12.4863
        58        2.0000           -0.4506123             -12.2618
        59        2.0000           -0.4388324             -11.9412
        60        2.0000           -0.4258539             -11.5881
        61        2.0000           -0.4122456             -11.2178
        62        2.0000           -0.4067556             -11.0684
        63        2.0000           -0.3938990             -10.7185
        64        2.0000           -0.3914903             -10.6530
        65        2.0000           -0.3847792             -10.4704
        66        2.0000           -0.3670799              -9.9888
        67        2.0000           -0.3615969              -9.8396
        68        2.0000           -0.2946168              -8.0169 (HOMO)
        69                         -0.2608452              -7.0980 (LUMO)
        70                         -0.2555733              -6.9545
        71                         -0.2518615              -6.8535
        72                         -0.1724492              -4.6926
        73                         -0.1327232              -3.6116
        74                         -0.1208989              -3.2898
        75                         -0.1156483              -3.1469
        76                         -0.1043980              -2.8408
        77                         -0.1028440              -2.7985
        78                         -0.0975755              -2.6552
        79                         -0.0934158              -2.5420
       ...                                ...                  ...
       144                          0.6787229              18.4690
      -------------------------------------------------------------
                  HL-Gap            0.0337716 Eh            0.9190 eV

Wiberg/Mayer (AO) data.
largest (>0.10) Wiberg bond orders for each atom

     #   Z sym  total        # sym  WBO       # sym  WBO       # sym  WBO
 ---------------------------------------------------------------------------
     1   6 C    3.953 --    28 H    0.982    27 H    0.977    26 H    0.975
                             2 N    0.949
     2   7 N    3.504 --    21 C    1.207     3 C    1.097     1 C    0.949
                             4 O    0.113
     3   6 C    3.919 --     4 O    1.324     5 C    1.245     2 N    1.097
                            21 C    0.122
     4   8 O    1.697 --     3 C    1.324     2 N    0.113
     5   6 C    3.888 --     7 C    1.346     3 C    1.245     6 O    0.995
                            21 C    0.129
     6   8 O    1.996 --     5 C    0.995    29 H    0.832
     7   6 C    3.906 --     5 C    1.346     8 C    1.198    19 N    0.954
                            21 C    0.134
     8   6 C    3.909 --     9 O    1.471     7 C    1.198    10 N    1.091
     9   8 O    1.812 --     8 C    1.471    10 N    0.102
    10   7 N    3.197 --     8 C    1.091    11 C    0.962    30 H    0.912
                             9 O    0.102
    11   6 C    3.969 --    12 C    0.994    31 H    0.978    32 H    0.973
                            10 N    0.962
    12   6 C    3.985 --    18 C    1.418    13 C    1.413    11 C    0.994
    13   6 C    3.991 --    14 C    1.445    12 C    1.413    33 H    0.968
                            17 C    0.111
    14   6 C    3.992 --    13 C    1.445    15 C    1.401    34 H    0.971
                            18 C    0.109
    15   6 C    3.855 --    17 C    1.404    14 C    1.401    16 F    0.915
    16   9 F    1.040 --    15 C    0.915
    17   6 C    3.992 --    18 C    1.440    15 C    1.404    35 H    0.970
                            13 C    0.111
    18   6 C    3.994 --    17 C    1.440    12 C    1.418    36 H    0.972
                            14 C    0.109
    19   7 N    3.045 --    21 C    0.987    20 C    0.960     7 C    0.954
    20   6 C    3.986 --    37 H    0.989    39 H    0.988    38 H    0.982
                            19 N    0.960
    21   6 C    3.849 --     2 N    1.207    22 C    0.992    19 N    0.987
                             7 C    0.134     5 C    0.129     3 C    0.122
    22   6 C    3.963 --    21 C    0.992    24 C    0.989    23 C    0.982
                            25 N    0.966
    23   6 C    3.990 --    40 H    0.986    41 H    0.985    42 H    0.983
                            22 C    0.982
    24   6 C    3.995 --    22 C    0.989    45 H    0.987    44 H    0.984
                            43 H    0.981
    25   7 N    2.984 --    22 C    0.966    47 H    0.950    46 H    0.950
    26   1 H    1.034 --     1 C    0.975
    27   1 H    1.023 --     1 C    0.977
    28   1 H    1.011 --     1 C    0.982
    29   1 H    0.886 --     6 O    0.832
    30   1 H    0.972 --    10 N    0.912
    31   1 H    1.010 --    11 C    0.978
    32   1 H    1.020 --    11 C    0.973
    33   1 H    1.019 --    13 C    0.968
    34   1 H    1.000 --    14 C    0.971
    35   1 H    0.999 --    17 C    0.970
    36   1 H    1.001 --    18 C    0.972
    37   1 H    1.024 --    20 C    0.989
    38   1 H    1.010 --    20 C    0.982
    39   1 H    1.020 --    20 C    0.988
    40   1 H    1.012 --    23 C    0.986
    41   1 H    1.003 --    23 C    0.985
    42   1 H    1.011 --    23 C    0.983
    43   1 H    1.026 --    24 C    0.981
    44   1 H    1.020 --    24 C    0.984
    45   1 H    1.007 --    24 C    0.987
    46   1 H    0.970 --    25 N    0.950
    47   1 H    0.965 --    25 N    0.950
 ---------------------------------------------------------------------------

           -------------------------------------------------
          | TOTAL ENERGY              -80.167384605433 Eh   |
          | GRADIENT NORM               0.000404664912 Eh/α |
          | HOMO-LUMO GAP               0.918972750435 eV   |
           -------------------------------------------------

 * finished run on 2023/06/20 at 14:59:42.968
