   * xtb version 6.5.1 (579679a) compiled by 'ehlert@majestix' on 2022-07-11
          program call               : /lustre/hpc/kemi/ree/PhD/git/ReactivityQM/dep/xtb-6.5.1/bin/xtb --gfn 1 /lustre/hpc/kemi/ree/PhD/git/ReactivityQM/calculations/R02oxygendeprot/reac01/conf07/R02oxygendeprot_reac01_conf07_gfn1.xyz --opt --vfukui --chrg -1 --uhf 0 --alpb DMSO

   ID    Z sym.   atoms
    1    6 C      1, 3, 5, 7-10, 12, 14, 17, 18, 21, 23
    2    8 O      2, 4, 13, 19, 22, 24
    3    7 N      6, 11, 15, 16, 20
    4    1 H      25-38

      * Solvation model:               ALPB
        Solvent                        DMSO
        Solvent mass                       7.8130E+01 g/mol
          :  Hamiltonian                  GFN1-xTB          :
 * total energy  :   -79.6000166 Eh     change       -0.3390710E-10 Eh
 * total energy  :   -79.6133178 Eh     change       -0.1330124E-01 Eh
 * total energy  :   -79.6187800 Eh     change       -0.5462159E-02 Eh
 * total energy  :   -79.6197761 Eh     change       -0.9961204E-03 Eh
 * total energy  :   -79.6202652 Eh     change       -0.4891482E-03 Eh
 * total energy  :   -79.6204234 Eh     change       -0.1581121E-03 Eh
 * total energy  :   -79.6205253 Eh     change       -0.1019419E-03 Eh
 * total energy  :   -79.6206084 Eh     change       -0.8310957E-04 Eh
 * total energy  :   -79.6207001 Eh     change       -0.9170672E-04 Eh
 * total energy  :   -79.6208025 Eh     change       -0.1024114E-03 Eh
 * total energy  :   -79.6215384 Eh     change       -0.1537252E-04 Eh
 * total energy  :   -79.6215507 Eh     change       -0.1233101E-04 Eh
 * total energy  :   -79.6215606 Eh     change       -0.9900192E-05 Eh
 * total energy  :   -79.6215698 Eh     change       -0.9208711E-05 Eh
 * total energy  :   -79.6215855 Eh     change       -0.1566524E-04 Eh
 * total energy  :   -79.6215940 Eh     change       -0.8554678E-05 Eh
 * total energy  :   -79.6216046 Eh     change       -0.1057427E-04 Eh
 * total energy  :   -79.6216097 Eh     change       -0.5110236E-05 Eh
 * total energy  :   -79.6216123 Eh     change       -0.2583870E-05 Eh
   *** GEOMETRY OPTIMIZATION CONVERGED AFTER 33 ITERATIONS ***

 final structure:
================
38
 xtb: 6.5.1 (579679a)
C            6.19371728408586        0.43845041149874        2.01203596587272
O            5.14110600660022       -0.30195060036275        1.41208204109957
C            4.09038943169686        0.42783028078112        0.95700248703969
O            4.08280260323600        1.64834085322149        1.07558852462195
C            3.02824536918223       -0.35304619451476        0.34248182541920
N            1.98951170478285        0.43256679206776       -0.12299317751592
C            0.97692184683789       -0.09244767128145       -0.70669280406705
C           -0.13844801959737        0.80328091241405       -1.22359725000793
C            0.22665731981950        2.26296349738946       -0.94438884447882
C           -0.36096871899920        0.60490771230306       -2.72734052253836
N           -1.38380922315451        0.53450326580152       -0.47928814108142
C           -2.19771593652947       -0.52087944922823       -0.64395309226980
O           -2.01387306877127       -1.47003077941992       -1.39025589060950
C           -3.39043322681463       -0.41195431195851        0.23992185257227
N           -3.60146210510684        0.50474104352952        1.13570291911094
N           -4.79900022498047        0.21487092185687        1.72016953526402
C           -5.24144583278272       -0.85961547112320        1.14136944283123
C           -6.51005789712638       -1.57150929419185        1.41093588152838
O           -4.39579384224448       -1.30573390798259        0.20110009128473
N            0.87344614075095       -1.45301352295102       -0.89768465382365
C            1.81669627505507       -2.35192026861033       -0.47570964961732
O            1.65103686883353       -3.55375691647612       -0.67466063418379
C            3.02798780956049       -1.76689353925982        0.21856869614409
O            3.91464945015969       -2.54298264670406        0.62089282242749
H            6.60763634268031        1.16555823613068        1.30638266579556
H            6.96451320901952       -0.27570354795120        2.29918151065882
H            5.83609002070234        0.97305155005916        2.89774985096008
H           -0.56944735196746        2.92023284786188       -1.28795144938587
H            1.14744973437006        2.51466885012677       -1.46845948334102
H            0.38547604177669        2.41535130027122        0.12262700339581
H            0.54657923969520        0.88388452556354       -3.26040259787740
H           -0.60084094446162       -0.42891622105733       -2.96344004460875
H           -1.17798523088827        1.23957480573736       -3.06527618576165
H           -1.68987722126479        1.25344624829487        0.15912962931606
H           -7.15938735199414       -1.51691900782838        0.53762030501480
H           -6.31368978054482       -2.62231436849817        1.61922776794672
H           -7.01101648683980       -1.11596149988303        2.26082544104659
H            0.05433876522384       -1.82762783562497       -1.35850083817820

          :  Hamiltonian                  GFN1-xTB          :
         :: total energy             -79.621612302800 Eh    ::
         :: gradient norm              0.000929221950 Eh/a0 ::
         :: HOMO-LUMO gap              1.589713703895 eV    ::
         :: SCC energy               -80.347622867531 Eh    ::
         :: -> Gsolv                  -0.124822887685 Eh    ::
         :: repulsion energy           0.748892430157 Eh    ::

    * Orbital Energies and Occupations

         #    Occupation            Energy/Eh            Energy/eV
      -------------------------------------------------------------
         1        2.0000           -0.8606603             -23.4198
       ...           ...                  ...                  ...
        52        2.0000           -0.4861737             -13.2295
        53        2.0000           -0.4793420             -13.0436
        54        2.0000           -0.4642352             -12.6325
        55        2.0000           -0.4607141             -12.5367
        56        2.0000           -0.4571454             -12.4396
        57        2.0000           -0.4530651             -12.3285
        58        2.0000           -0.4483545             -12.2003
        59        2.0000           -0.4431689             -12.0592
        60        2.0000           -0.4359793             -11.8636
        61        2.0000           -0.4349321             -11.8351
        62        2.0000           -0.4131423             -11.2422
        63        2.0000           -0.3764740             -10.2444
        64        2.0000           -0.3642846              -9.9127 (HOMO)
        65                         -0.3058637              -8.3230 (LUMO)
        66                         -0.2677421              -7.2856
        67                         -0.2543516              -6.9213
        68                         -0.2378282              -6.4716
        69                         -0.1951143              -5.3093
        70                         -0.1944290              -5.2907
        71                         -0.1410794              -3.8390
        72                         -0.1213673              -3.3026
        73                         -0.1196327              -3.2554
        74                         -0.1170341              -3.1847
        75                         -0.1068614              -2.9078
       ...                                ...                  ...
       124                          0.7567518              20.5923
      -------------------------------------------------------------
                  HL-Gap            0.0584209 Eh            1.5897 eV

Wiberg/Mayer (AO) data.
largest (>0.10) Wiberg bond orders for each atom

     #   Z sym  total        # sym  WBO       # sym  WBO       # sym  WBO
 ---------------------------------------------------------------------------
     1   6 C    3.899 --    26 H    0.987    27 H    0.981    25 H    0.980
                             2 O    0.926
     2   8 O    2.159 --     3 C    1.046     1 C    0.926     4 O    0.109
     3   6 C    3.850 --     4 O    1.574     5 C    1.116     2 O    1.046
     4   8 O    1.849 --     3 C    1.574     2 O    0.109
     5   6 C    3.914 --    23 C    1.271     6 N    1.153     3 C    1.116
                            24 O    0.129
     6   7 N    3.031 --     7 C    1.631     5 C    1.153
     7   6 C    3.934 --     6 N    1.631    20 N    1.103     8 C    0.968
     8   6 C    3.929 --     9 C    1.002    10 C    0.989     7 C    0.968
                            11 N    0.905
     9   6 C    3.993 --     8 C    1.002    28 H    0.986    29 H    0.983
                            30 H    0.983
    10   6 C    3.990 --     8 C    0.989    31 H    0.985    33 H    0.985
                            32 H    0.978
    11   7 N    3.359 --    12 C    1.279     8 C    0.905    34 H    0.897
                            13 O    0.181
    12   6 C    3.919 --    13 O    1.571    11 N    1.279    14 C    0.985
    13   8 O    1.912 --    12 C    1.571    11 N    0.181
    14   6 C    3.873 --    15 N    1.613    19 O    1.064    12 C    0.985
    15   7 N    3.014 --    14 C    1.613    16 N    1.196
    16   7 N    2.980 --    17 C    1.608    15 N    1.196
    17   6 C    3.872 --    16 N    1.608    19 O    1.083    18 C    1.031
    18   6 C    3.987 --    17 C    1.031    37 H    0.983    36 H    0.966
                            35 H    0.962
    19   8 O    2.330 --    17 C    1.083    14 C    1.064
    20   7 N    3.435 --    21 C    1.169     7 C    1.103    38 H    0.879
                            22 O    0.136
    21   6 C    3.881 --    22 O    1.574    20 N    1.169    23 C    0.968
    22   8 O    1.854 --    21 C    1.574    20 N    0.136
    23   6 C    3.942 --    24 O    1.519     5 C    1.271    21 C    0.968
    24   8 O    1.824 --    23 C    1.519     5 C    0.129
    25   1 H    1.014 --     1 C    0.980
    26   1 H    1.016 --     1 C    0.987
    27   1 H    1.014 --     1 C    0.981
    28   1 H    1.001 --     9 C    0.986
    29   1 H    1.011 --     9 C    0.983
    30   1 H    1.011 --     9 C    0.983
    31   1 H    1.003 --    10 C    0.985
    32   1 H    1.011 --    10 C    0.978
    33   1 H    1.001 --    10 C    0.985
    34   1 H    0.954 --    11 N    0.897
    35   1 H    0.997 --    18 C    0.962
    36   1 H    0.997 --    18 C    0.966
    37   1 H    0.999 --    18 C    0.983
    38   1 H    0.953 --    20 N    0.879
 ---------------------------------------------------------------------------

           -------------------------------------------------
          | TOTAL ENERGY              -79.621612302800 Eh   |
          | GRADIENT NORM               0.000929221950 Eh/α |
          | HOMO-LUMO GAP               1.589713703895 eV   |
           -------------------------------------------------

 * finished run on 2023/06/21 at 17:00:40.935
