   * xtb version 6.5.1 (579679a) compiled by 'ehlert@majestix' on 2022-07-11
          program call               : /lustre/hpc/kemi/ree/PhD/git/ReactivityQM/dep/xtb-6.5.1/bin/xtb --gfn 1 /lustre/hpc/kemi/ree/PhD/git/ReactivityQM/calculations/R01/reac02prodE05/conf14/R01_reac02prodE05_conf14_gfn1.xyz --opt --vfukui --chrg -1 --uhf 0 --alpb DMSO

   ID    Z sym.   atoms
    1    6 C      1, 3, 5, 6, 8, 11-15
    2    8 O      2, 4, 7, 9
    3    7 N      10, 16, 17
    4    1 H      18-33

      * Solvation model:               ALPB
        Solvent                        DMSO
        Solvent mass                       7.8130E+01 g/mol
          :  Hamiltonian                  GFN1-xTB          :
 * total energy  :   -58.5474607 Eh     change       -0.2678746E-11 Eh
 * total energy  :   -58.5550824 Eh     change       -0.7621689E-02 Eh
 * total energy  :   -58.5573247 Eh     change       -0.2242323E-02 Eh
 * total energy  :   -58.5575799 Eh     change       -0.2551814E-03 Eh
 * total energy  :   -58.5577255 Eh     change       -0.1456507E-03 Eh
 * total energy  :   -58.5577763 Eh     change       -0.5078978E-04 Eh
 * total energy  :   -58.5578227 Eh     change       -0.4640387E-04 Eh
 * total energy  :   -58.5578634 Eh     change       -0.4068296E-04 Eh
 * total energy  :   -58.5578981 Eh     change       -0.3472196E-04 Eh
 * total energy  :   -58.5579293 Eh     change       -0.3111520E-04 Eh
 * total energy  :   -58.5601300 Eh     change       -0.2884057E-04 Eh
 * total energy  :   -58.5601378 Eh     change       -0.7821767E-05 Eh
 * total energy  :   -58.5601657 Eh     change       -0.2795872E-04 Eh
 * total energy  :   -58.5601729 Eh     change       -0.7156399E-05 Eh
 * total energy  :   -58.5601891 Eh     change       -0.1620039E-04 Eh
 * total energy  :   -58.5601965 Eh     change       -0.7412965E-05 Eh
 * total energy  :   -58.5602078 Eh     change       -0.1134241E-04 Eh
 * total energy  :   -58.5602147 Eh     change       -0.6832732E-05 Eh
 * total energy  :   -58.5602193 Eh     change       -0.4629510E-05 Eh
   *** GEOMETRY OPTIMIZATION CONVERGED AFTER 66 ITERATIONS ***

 final structure:
================
33
 xtb: 6.5.1 (579679a)
C            4.77405169843557        0.12452492769290       -1.36953658088417
O            3.60843739453217       -0.48049755392376       -0.81344914603530
C            2.54255171002199        0.33094708889468       -0.64267014524948
O            2.60120277386614        1.50762187652739       -0.94148165639710
C            1.33399813746214       -0.33974823208281       -0.08429610239125
C            1.37442435696698       -1.55670941007691        0.61300366395538
O            2.54566797578937       -2.30399322083488        0.81398865284984
C            0.22313140257704       -1.98832019738627        1.34350364937892
O            0.15023475604729       -2.97191904960042        2.10279129123660
N           -0.86772841620061       -1.12920677112618        1.24150060941425
C           -1.01911163421902       -0.27392852624508        0.07134535683357
C           -1.51171709768720       -1.12484165903908       -1.12795981596087
C           -2.03293278049866        0.84705652607144        0.45317782158646
C           -1.44194652712148        1.66115513998373        1.61069350584267
C           -2.30117553420724        1.77410989612850       -0.74150459361932
N           -3.27208753542621        0.22160405777004        0.92241923985144
N            0.22701030665905        0.35890765017558       -0.30109039351946
H            4.56898407438041        0.48227264431669       -2.38296389733057
H            5.09983807359224        0.96765053433916       -0.75233315523601
H            5.54791013646252       -0.64056035272353       -1.39625220838528
H            3.08631980721608       -2.30502590678206        0.01505599149243
H           -1.74563476786064       -1.51198991802722        1.56820345080307
H           -2.49968396075179       -1.53684262034169       -0.93456646651568
H           -0.81734677795284       -1.94893818249128       -1.29238815499483
H           -1.54469671842404       -0.51609158559979       -2.02902635387519
H           -1.26456749222530        1.01460346053982        2.47177756310717
H           -0.49349475796440        2.10394183328181        1.30219392924372
H           -2.12470737945768        2.45783128152585        1.90488671008407
H           -2.88957959063312        1.26481680345844       -1.50348941941461
H           -2.85587130184765        2.65463220816048       -0.41824905663204
H           -1.35293630927756        2.09198270034573       -1.17889334940816
H           -3.78185550554204       -0.15928588834215        0.13580381014455
H           -3.86669151671356        0.92424244541086        1.33980425002473

          :  Hamiltonian                  GFN1-xTB          :
         :: total energy             -58.560219307199 Eh    ::
         :: gradient norm              0.000995768883 Eh/a0 ::
         :: HOMO-LUMO gap              1.442412356406 eV    ::
         :: SCC energy               -59.094898360393 Eh    ::
         :: -> Gsolv                  -0.109564019812 Eh    ::
         :: repulsion energy           0.554658820227 Eh    ::

    * Orbital Energies and Occupations

         #    Occupation            Energy/Eh            Energy/eV
      -------------------------------------------------------------
         1        2.0000           -0.8121669             -22.1002
       ...           ...                  ...                  ...
        36        2.0000           -0.4786585             -13.0250
        37        2.0000           -0.4765442             -12.9674
        38        2.0000           -0.4720948             -12.8464
        39        2.0000           -0.4690657             -12.7639
        40        2.0000           -0.4537853             -12.3481
        41        2.0000           -0.4474512             -12.1758
        42        2.0000           -0.4386038             -11.9350
        43        2.0000           -0.4233040             -11.5187
        44        2.0000           -0.3973716             -10.8130
        45        2.0000           -0.3914128             -10.6509
        46        2.0000           -0.3831973             -10.4273
        47        2.0000           -0.3710199             -10.0960
        48        2.0000           -0.3171929              -8.6313 (HOMO)
        49                         -0.2641852              -7.1888 (LUMO)
        50                         -0.1882119              -5.1215
        51                         -0.1259500              -3.4273
        52                         -0.1157697              -3.1503
        53                         -0.1055438              -2.8720
        54                         -0.1017403              -2.7685
        55                         -0.0922798              -2.5111
        56                         -0.0831374              -2.2623
        57                         -0.0672595              -1.8302
        58                         -0.0625610              -1.7024
        59                         -0.0578178              -1.5733
       ...                                ...                  ...
       100                          0.7347994              19.9949
      -------------------------------------------------------------
                  HL-Gap            0.0530077 Eh            1.4424 eV

Wiberg/Mayer (AO) data.
largest (>0.10) Wiberg bond orders for each atom

     #   Z sym  total        # sym  WBO       # sym  WBO       # sym  WBO
 ---------------------------------------------------------------------------
     1   6 C    3.887 --    20 H    0.987    18 H    0.981    19 H    0.980
                             2 O    0.909
     2   8 O    2.185 --     3 C    1.067     1 C    0.909     4 O    0.120
     3   6 C    3.815 --     4 O    1.647     2 O    1.067     5 C    1.005
     4   8 O    1.899 --     3 C    1.647     2 O    0.120
     5   6 C    3.970 --    17 N    1.431     6 C    1.325     3 C    1.005
     6   6 C    3.853 --     5 C    1.325     8 C    1.190     7 O    0.963
                            17 N    0.188
     7   8 O    1.931 --     6 C    0.963    21 H    0.858
     8   6 C    3.917 --     9 O    1.481     6 C    1.190    10 N    1.099
     9   8 O    1.777 --     8 C    1.481    10 N    0.106
    10   7 N    3.215 --     8 C    1.099    11 C    0.940    22 H    0.917
                             9 O    0.106
    11   6 C    3.942 --    17 N    0.999    12 C    0.970    13 C    0.953
                            10 N    0.940
    12   6 C    3.995 --    24 H    0.985    23 H    0.984    25 H    0.984
                            11 C    0.970
    13   6 C    3.961 --    14 C    1.001    15 C    0.993    16 N    0.979
                            11 C    0.953
    14   6 C    3.997 --    13 C    1.001    28 H    0.987    26 H    0.984
                            27 H    0.983
    15   6 C    3.996 --    13 C    0.993    30 H    0.986    29 H    0.984
                            31 H    0.982
    16   7 N    2.968 --    13 C    0.979    32 H    0.949    33 H    0.948
    17   7 N    2.931 --     5 C    1.431    11 C    0.999     6 C    0.188
    18   1 H    1.011 --     1 C    0.981
    19   1 H    1.012 --     1 C    0.980
    20   1 H    1.013 --     1 C    0.987
    21   1 H    0.899 --     7 O    0.858
    22   1 H    0.981 --    10 N    0.917
    23   1 H    1.005 --    12 C    0.984
    24   1 H    1.009 --    12 C    0.985
    25   1 H    1.013 --    12 C    0.984
    26   1 H    1.020 --    14 C    0.984
    27   1 H    1.021 --    14 C    0.983
    28   1 H    1.005 --    14 C    0.987
    29   1 H    1.008 --    15 C    0.984
    30   1 H    1.007 --    15 C    0.986
    31   1 H    1.021 --    15 C    0.982
    32   1 H    0.969 --    16 N    0.949
    33   1 H    0.965 --    16 N    0.948
 ---------------------------------------------------------------------------

           -------------------------------------------------
          | TOTAL ENERGY              -58.560219307199 Eh   |
          | GRADIENT NORM               0.000995768883 Eh/α |
          | HOMO-LUMO GAP               1.442412356406 eV   |
           -------------------------------------------------

 * finished run on 2023/06/20 at 15:00:27.720
