   * xtb version 6.5.1 (579679a) compiled by 'ehlert@majestix' on 2022-07-11
          program call               : /lustre/hpc/kemi/ree/PhD/git/ReactivityQM/dep/xtb-6.5.1/bin/xtb --gfn 1 /lustre/hpc/kemi/ree/PhD/git/ReactivityQM/calculations/RaltegravirCLI/reac02prodE01/conf12/RaltegravirCLI_reac02prodE01_conf12_gfn1.xyz --opt --vfukui --chrg -1 --uhf 0 --alpb DMSO

   ID    Z sym.   atoms
    1    6 C      1, 3-6, 9-11, 14-18, 20-22, 24
    2    7 N      2, 7, 8, 13
    3    8 O      12, 23, 25
    4    9 F      19
    5    1 H      26-47

      * Solvation model:               ALPB
        Solvent                        DMSO
        Solvent mass                       7.8130E+01 g/mol
          :  Hamiltonian                  GFN1-xTB          :
 * total energy  :   -80.1759653 Eh     change       -0.1242029E-10 Eh
 * total energy  :   -80.1873031 Eh     change       -0.1133781E-01 Eh
 * total energy  :   -80.1901066 Eh     change       -0.2803467E-02 Eh
 * total energy  :   -80.1906914 Eh     change       -0.5847972E-03 Eh
 * total energy  :   -80.1909955 Eh     change       -0.3041063E-03 Eh
 * total energy  :   -80.1911800 Eh     change       -0.1844534E-03 Eh
 * total energy  :   -80.1913257 Eh     change       -0.1457270E-03 Eh
 * total energy  :   -80.1914240 Eh     change       -0.9826929E-04 Eh
 * total energy  :   -80.1914841 Eh     change       -0.6015423E-04 Eh
 * total energy  :   -80.1915147 Eh     change       -0.3055734E-04 Eh
 * total energy  :   -80.1915761 Eh     change       -0.1626192E-04 Eh
 * total energy  :   -80.1915848 Eh     change       -0.8684231E-05 Eh
 * total energy  :   -80.1915950 Eh     change       -0.1022144E-04 Eh
 * total energy  :   -80.1916101 Eh     change       -0.1506649E-04 Eh
 * total energy  :   -80.1916157 Eh     change       -0.5649725E-05 Eh
 * total energy  :   -80.1916273 Eh     change       -0.1152193E-04 Eh
 * total energy  :   -80.1916333 Eh     change       -0.6014524E-05 Eh
 * total energy  :   -80.1916468 Eh     change       -0.1358081E-04 Eh
 * total energy  :   -80.1916497 Eh     change       -0.2815300E-05 Eh
   *** GEOMETRY OPTIMIZATION CONVERGED AFTER 22 ITERATIONS ***

 final structure:
================
47
 xtb: 6.5.1 (579679a)
C           -3.92406629224074        1.05026673936538        2.08794605748126
N           -2.74406503808807        0.87109360938849        1.24845488282653
C           -2.64010741190851       -0.06831280700255        0.24913809234468
C           -3.77073646331551       -1.03692636507647       -0.13377417297363
C           -4.83671647048833       -0.29485413905648       -0.95554498793368
C           -4.40153226810965       -1.77676807527185        1.05310187450249
N           -3.20682871179245       -2.06624526412449       -1.00348579796922
N           -1.57170651531247       -0.16845918632553       -0.47461531118077
C           -0.47958440073719        0.63021766588773       -0.30010774843788
C            0.70931111639324        0.40157723083417       -1.32997039141492
C            0.83087504640925        1.77704378482450       -2.10162346824609
O            0.55057479763712       -0.61912356076257       -2.11234795261666
N            1.94364943476200        0.28279727562702       -0.40904697805224
C            3.10954123615460       -0.17606114004223       -1.17232132272612
C            4.22004328607152       -0.52930229448088       -0.21399231250539
C            4.34353135054322       -1.82476774571275        0.28697881204676
C            5.34191217517822       -2.14684758580193        1.19672649817191
C            6.20930545459458       -1.14735594839575        1.59715873860952
F            7.18207563629126       -1.45055501189097        2.48187693376603
C            6.12202123633861        0.14875292897696        1.12406190328528
C            5.11785467061867        0.44861479009159        0.21332356931199
C           -0.52461180644508        1.56787452469874        0.69157659037905
O            0.50190765637221        2.42975981522201        0.96797988103424
C           -1.68025021584047        1.72069797800849        1.53190641736684
O           -1.73863101541942        2.55788583010704        2.44436409731762
H           -3.85781972056579        2.03230615632076        2.55697756134936
H           -4.83060559248898        1.00623271990290        1.49204743545953
H           -3.95204973032893        0.29004011733733        2.86830799065936
H           -5.55921419794490       -1.01712864459658       -1.33419210116331
H           -4.37019592580897        0.21098359224245       -1.80079854504794
H           -5.36532202864412        0.44336627733228       -0.35681655794626
H           -3.64090119411970       -2.06291001417453        1.77861382792036
H           -4.88037492288273       -2.68201565921634        0.67907642832371
H           -5.16208895469785       -1.18155981552927        1.55112634035162
H           -2.55643509930161       -2.62692168010515       -0.46389019866847
H           -2.67301278653618       -1.61339271999026       -1.74509853785224
H            1.62975784651599        1.69360501785190       -2.83690140627998
H            1.03747077940978        2.61260844641785       -1.43660796101115
H           -0.10660118422049        1.95618217714599       -2.62726566749237
H            2.15270371842851        1.21248375528036       -0.04599871957346
H            2.81409255706689       -1.06219784519140       -1.74930192751895
H            3.46744098452434        0.59323125262338       -1.87570400462460
H            3.65673564084591       -2.59845669028939       -0.04063101982860
H            5.45001437431337       -3.15051070384857        1.58729776561884
H            6.82406266549743        0.90069503622200        1.45962626123290
H            5.03707441305538        1.45932715908239       -0.17110168700932
H            0.22150087021554        3.00302601609358        1.70116181871491

          :  Hamiltonian                  GFN1-xTB          :
         :: total energy             -80.191649665053 Eh    ::
         :: gradient norm              0.000236713429 Eh/a0 ::
         :: HOMO-LUMO gap              1.653235203743 eV    ::
         :: SCC energy               -81.044991914042 Eh    ::
         :: -> Gsolv                  -0.113387750364 Eh    ::
         :: repulsion energy           0.883322873809 Eh    ::

    * Orbital Energies and Occupations

         #    Occupation            Energy/Eh            Energy/eV
      -------------------------------------------------------------
         1        2.0000           -0.8512275             -23.1631
       ...           ...                  ...                  ...
        56        2.0000           -0.4560361             -12.4094
        57        2.0000           -0.4472539             -12.1704
        58        2.0000           -0.4360547             -11.8657
        59        2.0000           -0.4328686             -11.7790
        60        2.0000           -0.4302117             -11.7067
        61        2.0000           -0.4236449             -11.5280
        62        2.0000           -0.4171419             -11.3510
        63        2.0000           -0.4030008             -10.9662
        64        2.0000           -0.3980275             -10.8309
        65        2.0000           -0.3851129             -10.4795
        66        2.0000           -0.3624284              -9.8622
        67        2.0000           -0.3347501              -9.1090
        68        2.0000           -0.3253913              -8.8543 (HOMO)
        69                         -0.2646360              -7.2011 (LUMO)
        70                         -0.2580754              -7.0226
        71                         -0.2478291              -6.7438
        72                         -0.2378540              -6.4723
        73                         -0.1364995              -3.7143
        74                         -0.1337257              -3.6389
        75                         -0.1287474              -3.5034
        76                         -0.1189527              -3.2369
        77                         -0.1099137              -2.9909
        78                         -0.0970383              -2.6405
        79                         -0.0892260              -2.4280
       ...                                ...                  ...
       144                          0.6989452              19.0193
      -------------------------------------------------------------
                  HL-Gap            0.0607553 Eh            1.6532 eV

Wiberg/Mayer (AO) data.
largest (>0.10) Wiberg bond orders for each atom

     #   Z sym  total        # sym  WBO       # sym  WBO       # sym  WBO
 ---------------------------------------------------------------------------
     1   6 C    3.939 --    28 H    0.979    27 H    0.978    26 H    0.973
                             2 N    0.942
     2   7 N    3.488 --     3 C    1.162    24 C    1.111     1 C    0.942
                            25 O    0.122
     3   6 C    3.928 --     8 N    1.571     2 N    1.162     4 C    0.962
     4   6 C    3.971 --     7 N    0.995     6 C    0.994     5 C    0.984
                             3 C    0.962
     5   6 C    3.995 --    30 H    0.985     4 C    0.984    29 H    0.984
                            31 H    0.980
     6   6 C    3.995 --     4 C    0.994    32 H    0.986    33 H    0.984
                            34 H    0.983
     7   7 N    2.959 --     4 C    0.995    35 H    0.948    36 H    0.937
     8   7 N    3.050 --     3 C    1.571     9 C    1.211
     9   6 C    3.912 --    22 C    1.511     8 N    1.211    10 C    0.881
    10   6 C    3.935 --    12 O    1.240    11 C    0.915     9 C    0.881
                            13 N    0.845
    11   6 C    3.988 --    38 H    0.988    39 H    0.987    37 H    0.984
                            10 C    0.915
    12   8 O    1.513 --    10 C    1.240
    13   7 N    2.956 --    14 C    0.982    40 H    0.959    10 C    0.845
    14   6 C    3.982 --    15 C    1.003    13 N    0.982    42 H    0.970
                            41 H    0.969
    15   6 C    3.984 --    16 C    1.412    21 C    1.412    14 C    1.003
    16   6 C    3.993 --    17 C    1.443    15 C    1.412    43 H    0.973
                            20 C    0.110
    17   6 C    3.992 --    16 C    1.443    18 C    1.403    44 H    0.971
                            21 C    0.110
    18   6 C    3.854 --    17 C    1.403    20 C    1.402    19 F    0.911
    19   9 F    1.035 --    18 C    0.911
    20   6 C    3.992 --    21 C    1.443    18 C    1.402    45 H    0.971
                            16 C    0.110
    21   6 C    3.993 --    20 C    1.443    15 C    1.412    46 H    0.973
                            17 C    0.110
    22   6 C    3.908 --     9 C    1.511    24 C    1.142    23 O    1.027
    23   8 O    2.025 --    22 C    1.027    47 H    0.827
    24   6 C    3.912 --    25 O    1.493    22 C    1.142     2 N    1.111
    25   8 O    1.847 --    24 C    1.493     2 N    0.122
    26   1 H    1.013 --     1 C    0.973
    27   1 H    1.010 --     1 C    0.978
    28   1 H    1.006 --     1 C    0.979
    29   1 H    1.008 --     5 C    0.984
    30   1 H    1.004 --     5 C    0.985
    31   1 H    1.006 --     5 C    0.980
    32   1 H    1.003 --     6 C    0.986
    33   1 H    1.008 --     6 C    0.984
    34   1 H    1.006 --     6 C    0.983
    35   1 H    0.971 --     7 N    0.948
    36   1 H    0.986 --     7 N    0.937
    37   1 H    1.016 --    11 C    0.984
    38   1 H    1.013 --    11 C    0.988
    39   1 H    1.017 --    11 C    0.987
    40   1 H    0.995 --    13 N    0.959
    41   1 H    1.041 --    14 C    0.969
    42   1 H    1.008 --    14 C    0.970
    43   1 H    1.003 --    16 C    0.973
    44   1 H    1.000 --    17 C    0.971
    45   1 H    1.000 --    20 C    0.971
    46   1 H    1.002 --    21 C    0.973
    47   1 H    0.871 --    23 O    0.827
 ---------------------------------------------------------------------------

           -------------------------------------------------
          | TOTAL ENERGY              -80.191649665053 Eh   |
          | GRADIENT NORM               0.000236713429 Eh/α |
          | HOMO-LUMO GAP               1.653235203743 eV   |
           -------------------------------------------------

 * finished run on 2023/06/20 at 14:56:04.978
