   * xtb version 6.5.1 (579679a) compiled by 'ehlert@majestix' on 2022-07-11
          program call               : /lustre/hpc/kemi/ree/PhD/git/ReactivityQM/dep/xtb-6.5.1/bin/xtb --gfn 1 /lustre/hpc/kemi/ree/PhD/git/ReactivityQM/calculations/R02oxygendeprot/reac01prodE13/conf18/R02oxygendeprot_reac01prodE13_conf18_gfn1.xyz --opt --vfukui --chrg -2 --uhf 0 --alpb DMSO

   ID    Z sym.   atoms
    1    6 C      1, 3, 5, 6, 8, 10, 12-15, 17, 19, 22, 23
    2    8 O      2, 4, 7, 9, 18, 24
    3    7 N      11, 16, 20, 21, 25
    4    1 H      26-42

      * Solvation model:               ALPB
        Solvent                        DMSO
        Solvent mass                       7.8130E+01 g/mol
          :  Hamiltonian                  GFN1-xTB          :
 * total energy  :   -83.5657997 Eh     change       -0.7020162E-10 Eh
 * total energy  :   -83.5797611 Eh     change       -0.1396141E-01 Eh
 * total energy  :   -83.5853433 Eh     change       -0.5582155E-02 Eh
 * total energy  :   -83.5863199 Eh     change       -0.9766450E-03 Eh
 * total energy  :   -83.5867809 Eh     change       -0.4609620E-03 Eh
 * total energy  :   -83.5869123 Eh     change       -0.1314221E-03 Eh
 * total energy  :   -83.5869998 Eh     change       -0.8750781E-04 Eh
 * total energy  :   -83.5870685 Eh     change       -0.6872367E-04 Eh
 * total energy  :   -83.5871549 Eh     change       -0.8633120E-04 Eh
 * total energy  :   -83.5872879 Eh     change       -0.1329827E-03 Eh
 * total energy  :   -83.5938611 Eh     change       -0.1636552E-04 Eh
 * total energy  :   -83.5938718 Eh     change       -0.1066443E-04 Eh
 * total energy  :   -83.5938804 Eh     change       -0.8647322E-05 Eh
 * total energy  :   -83.5938883 Eh     change       -0.7886234E-05 Eh
 * total energy  :   -83.5939024 Eh     change       -0.1414741E-04 Eh
 * total energy  :   -83.5939090 Eh     change       -0.6565811E-05 Eh
 * total energy  :   -83.5939172 Eh     change       -0.8156446E-05 Eh
 * total energy  :   -83.5939260 Eh     change       -0.8805407E-05 Eh
 * total energy  :   -83.5939309 Eh     change       -0.4956128E-05 Eh
   *** GEOMETRY OPTIMIZATION CONVERGED AFTER 79 ITERATIONS ***

 final structure:
================
42
 xtb: 6.5.1 (579679a)
C           -3.48363943081216        0.81428370632583        4.13150457877791
O           -3.48079642733055        0.74980404027920        2.72394030847587
C           -2.23934179363058        0.44145698005938        2.14731486786663
O           -1.26525214093443        0.26232170626179        2.91356085856306
C           -2.22636313847395        0.36280277498982        0.74104199572488
C           -3.39058998645275        0.55767725625351       -0.15156795157448
O           -4.55262094551817        0.86261026919876        0.26638414244236
C           -3.10875766705457        0.37298950482716       -1.50763719553176
O           -4.03713905430281        0.43978948207429       -2.54786999327542
C           -4.72419026187349        1.67535898358237       -2.69243723140536
N           -1.80883501723612        0.07502448121857       -1.96413907174705
C           -0.79404393623887       -0.10049490017928       -1.05884161878676
C            0.58066012428231       -0.44252361168065       -1.61922723070937
C            0.51785272424668       -1.76699411105966       -2.39861066617205
C            1.05427523777169        0.69787156375772       -2.54063316756700
N            1.47145548812786       -0.59090264946689       -0.47936287140479
C            2.83893830481036       -0.73528785613940       -0.59791704441853
O            3.40795328630060       -1.03582342250047       -1.66995143459771
C            3.50649098479353       -0.55260672447062        0.66070848452516
N            2.93359380628937       -0.23477025969919        1.82123455522401
N            3.94126038392485       -0.14577416630089        2.74117405994348
C            5.04809217458517       -0.40269503000896        2.12568761579453
C            6.41262591448029       -0.41967967175729        2.70860886590541
O            4.87346676864013       -0.67189968068350        0.80971304603395
N           -0.96880708432770        0.03869782508902        0.20441244081882
H           -3.20164197722141       -0.14734393601256        4.58164022768212
H           -4.49768450780314        1.06896595422076        4.44590399920392
H           -2.79123570075987        1.58157372705227        4.50338517521922
H           -4.02504137117657        2.50498368042114       -2.85888083314091
H           -5.33891892011883        1.89512856827877       -1.80982892181145
H           -5.37213194141247        1.57904637952442       -3.56597006144414
H           -1.68312528225770       -0.07401557222162       -2.94759903311212
H            1.50159114652416       -2.01688763403293       -2.79344364608592
H            0.18534599843552       -2.57093033015386       -1.74141670823736
H           -0.17836140215017       -1.68133417312407       -3.23080781695578
H            1.11886545973417        1.62974140512627       -1.97900497811310
H            2.03200593690550        0.46664974095580       -2.96037999908023
H            0.34882056226362        0.83003581036077       -3.35891411863748
H            1.12077583697858       -0.18198690646467        0.38792753714121
H            7.04239035055447        0.32660703190889        2.22384125005954
H            6.35560710777170       -0.20299130813911        3.77264646400449
H            6.87645138966707       -1.39534792767570        2.56381112039513

          :  Hamiltonian                  GFN1-xTB          :
         :: total energy             -83.593930928603 Eh    ::
         :: gradient norm              0.000406501983 Eh/a0 ::
         :: HOMO-LUMO gap              0.046900767858 eV    ::
         :: SCC energy               -84.321406828208 Eh    ::
         :: -> Gsolv                  -0.283129273795 Eh    ::
         :: repulsion energy           0.752325499438 Eh    ::

    * Orbital Energies and Occupations

         #    Occupation            Energy/Eh            Energy/eV
      -------------------------------------------------------------
         1        2.0000           -0.8038894             -21.8749
       ...           ...                  ...                  ...
        56        2.0000           -0.4332866             -11.7903
        57        2.0000           -0.4312179             -11.7340
        58        2.0000           -0.4256482             -11.5825
        59        2.0000           -0.4087905             -11.1238
        60        2.0000           -0.4060796             -11.0500
        61        2.0000           -0.4051235             -11.0240
        62        2.0000           -0.3975094             -10.8168
        63        2.0000           -0.3894236             -10.5968
        64        2.0000           -0.3878399             -10.5537
        65        2.0000           -0.3833637             -10.4319
        66        2.0000           -0.3409233              -9.2770
        67        2.0000           -0.3346417              -9.1061
        68        1.4248           -0.2668639              -7.2617 (HOMO)
        69        0.5752           -0.2651403              -7.2148 (LUMO)
        70                         -0.2117362              -5.7616
        71                         -0.1992249              -5.4212
        72                         -0.1619745              -4.4076
        73                         -0.1403263              -3.8185
        74                         -0.1256595              -3.4194
        75                         -0.1069210              -2.9095
        76                         -0.1053084              -2.8656
        77                         -0.1050683              -2.8591
        78                         -0.0978050              -2.6614
        79                         -0.0733697              -1.9965
       ...                                ...                  ...
       134                          0.7135419              19.4165
      -------------------------------------------------------------
                  HL-Gap            0.0017236 Eh            0.0469 eV

Wiberg/Mayer (AO) data.
largest (>0.10) Wiberg bond orders for each atom

     #   Z sym  total        # sym  WBO       # sym  WBO       # sym  WBO
 ---------------------------------------------------------------------------
     1   6 C    3.924 --    27 H    0.987    26 H    0.980    28 H    0.980
                             2 O    0.957
     2   8 O    2.067 --     1 C    0.957     3 C    0.943
     3   6 C    3.788 --     4 O    1.438     5 C    1.303     2 O    0.943
     4   8 O    1.695 --     3 C    1.438
     5   6 C    3.754 --     3 C    1.303    25 N    1.097     6 C    1.071
     6   6 C    3.924 --     7 O    1.383     8 C    1.346     5 C    1.071
     7   8 O    1.680 --     6 C    1.383     8 C    0.119
     8   6 C    3.530 --     6 C    1.346    11 N    1.006     9 O    0.947
                             7 O    0.119
     9   8 O    2.008 --     8 C    0.947    10 C    0.935
    10   6 C    3.910 --    31 H    0.987    29 H    0.983    30 H    0.979
                             9 O    0.935
    11   7 N    3.241 --    12 C    1.126     8 C    1.006    32 H    0.911
                            25 N    0.108
    12   6 C    3.929 --    25 N    1.618    11 N    1.126    13 C    0.973
    13   6 C    3.952 --    14 C    0.985    15 C    0.980    12 C    0.973
                            16 N    0.951
    14   6 C    3.991 --    34 H    0.987    35 H    0.986    13 C    0.985
                            33 H    0.981
    15   6 C    3.990 --    36 H    0.987    38 H    0.986    37 H    0.981
                            13 C    0.980
    16   7 N    3.195 --    17 C    1.136    13 C    0.951    39 H    0.893
                            18 O    0.124
    17   6 C    3.776 --    18 O    1.443    16 N    1.136    19 C    1.128
    18   8 O    1.700 --    17 C    1.443    16 N    0.124
    19   6 C    3.693 --    20 N    1.416    17 C    1.128    24 O    0.981
    20   7 N    2.765 --    19 C    1.416    21 N    1.186
    21   7 N    2.981 --    22 C    1.628    20 N    1.186
    22   6 C    3.821 --    21 N    1.628    24 O    1.050    23 C    1.024
    23   6 C    3.994 --    22 C    1.024    41 H    0.986    42 H    0.972
                            40 H    0.971
    24   8 O    2.188 --    22 C    1.050    19 C    0.981
    25   7 N    2.983 --    12 C    1.618     5 C    1.097    11 N    0.108
    26   1 H    1.022 --     1 C    0.980
    27   1 H    1.021 --     1 C    0.987
    28   1 H    1.022 --     1 C    0.980
    29   1 H    1.014 --    10 C    0.983
    30   1 H    1.038 --    10 C    0.979
    31   1 H    1.020 --    10 C    0.987
    32   1 H    0.960 --    11 N    0.911
    33   1 H    1.020 --    14 C    0.981
    34   1 H    1.010 --    14 C    0.987
    35   1 H    1.006 --    14 C    0.986
    36   1 H    1.007 --    15 C    0.987
    37   1 H    1.016 --    15 C    0.981
    38   1 H    1.006 --    15 C    0.986
    39   1 H    0.997 --    16 N    0.893
    40   1 H    1.001 --    23 C    0.971
    41   1 H    1.004 --    23 C    0.986
    42   1 H    1.001 --    23 C    0.972
 ---------------------------------------------------------------------------

           -------------------------------------------------
          | TOTAL ENERGY              -83.593930928603 Eh   |
          | GRADIENT NORM               0.000406501983 Eh/α |
          | HOMO-LUMO GAP               0.046900767858 eV   |
           -------------------------------------------------

 * finished run on 2023/06/21 at 17:14:44.699
