   * xtb version 6.5.1 (579679a) compiled by 'ehlert@majestix' on 2022-07-11
          program call               : /lustre/hpc/kemi/ree/PhD/git/ReactivityQM/dep/xtb-6.5.1/bin/xtb --gfn 1 /lustre/hpc/kemi/ree/PhD/git/ReactivityQM/calculations/R03/reac02prodN04/conf07/R03_reac02prodN04_conf07_gfn1.xyz --opt --vfukui --chrg 1 --uhf 0 --alpb DMSO

   ID    Z sym.   atoms
    1    6 C      1, 3, 5, 7-10, 12, 14, 17, 18, 21, 22, 24, 26
    2    8 O      2, 4, 13, 19, 23, 25
    3    7 N      6, 11, 15, 16, 20
    4    1 H      27-46

      * Solvation model:               ALPB
        Solvent                        DMSO
        Solvent mass                       7.8130E+01 g/mol
          :  Hamiltonian                  GFN1-xTB          :
 * total energy  :   -86.2869403 Eh     change       -0.1115552E-10 Eh
 * total energy  :   -86.3033689 Eh     change       -0.1642857E-01 Eh
 * total energy  :   -86.3097996 Eh     change       -0.6430741E-02 Eh
 * total energy  :   -86.3114583 Eh     change       -0.1658722E-02 Eh
 * total energy  :   -86.3127367 Eh     change       -0.1278365E-02 Eh
 * total energy  :   -86.3135432 Eh     change       -0.8065551E-03 Eh
 * total energy  :   -86.3141567 Eh     change       -0.6135008E-03 Eh
 * total energy  :   -86.3145813 Eh     change       -0.4245150E-03 Eh
 * total energy  :   -86.3148429 Eh     change       -0.2616118E-03 Eh
 * total energy  :   -86.3149668 Eh     change       -0.1238775E-03 Eh
 * total energy  :   -86.3155669 Eh     change       -0.3829305E-04 Eh
 * total energy  :   -86.3155964 Eh     change       -0.2954815E-04 Eh
 * total energy  :   -86.3156130 Eh     change       -0.1660573E-04 Eh
 * total energy  :   -86.3156250 Eh     change       -0.1198475E-04 Eh
 * total energy  :   -86.3156393 Eh     change       -0.1433497E-04 Eh
 * total energy  :   -86.3156641 Eh     change       -0.2473268E-04 Eh
 * total energy  :   -86.3156718 Eh     change       -0.7725804E-05 Eh
 * total energy  :   -86.3156823 Eh     change       -0.1047012E-04 Eh
 * total energy  :   -86.3156865 Eh     change       -0.4278438E-05 Eh
   *** GEOMETRY OPTIMIZATION CONVERGED AFTER 28 ITERATIONS ***

 final structure:
================
46
 xtb: 6.5.1 (579679a)
C           -5.27802857525451        1.54529358494344        2.53355123605865
O           -4.28753237333297        1.29765908649229        1.50633248599219
C           -3.27276661236544        0.48660454553795        1.83814900979837
O           -3.14545500518153       -0.02494961544316        2.91172529601427
C           -2.31973416240258        0.29323864688286        0.68637464991371
N           -1.24545421372724       -0.46432061122993        0.96928124199662
C           -0.33220476137140       -0.70920517548852        0.06285281652636
C            0.80470849785050       -1.61293451633061        0.51824809871819
C            0.77624462183817       -1.75328392482556        2.04685111081494
C            0.62032912565140       -2.99126082348681       -0.13687290308713
N            2.07337330137175       -0.98801906408444        0.13438356431680
C            3.27563391505314       -1.59468491608970        0.32153783604180
O            3.43736134943121       -2.75517632097322        0.64632803943608
C            4.40875148619795       -0.67858280573165        0.05389016389136
N            5.67580568461317       -0.94295167010730        0.12168960146759
N            6.33509851707172        0.20675537016707       -0.18811307857250
C            5.43096510854353        1.10523120969787       -0.42620683422903
C            5.63584354386988        2.52037958253322       -0.80296950398750
O            4.18905289463583        0.60995710313216       -0.29092662757912
N           -0.43672702866983       -0.23180548022404       -1.19943153471018
C            0.50828007307499       -0.48780034937415       -2.29336330609238
C           -1.51384075583023        0.56794848270656       -1.61617388794694
O           -1.58852571466349        0.96696280803181       -2.76260314099360
C           -2.46693329408121        0.81675719385413       -0.56627879392866
O           -3.55518578825325        1.67385236598734       -0.89478332827295
C           -4.45492013396265        1.26345510072368       -1.98104423044975
H           -6.08230157107960        2.09309046306228        2.05081637036418
H           -4.82654638277788        2.13663032601277        3.33111696551797
H           -5.63423862809618        0.59150503345680        2.92463149676437
H            1.60992457916990       -2.37751312329402        2.36457475938813
H            0.86130610297003       -0.77374040133246        2.51320980500614
H           -0.15805944298034       -2.21476100778864        2.35984991940457
H            1.31410607591869       -3.70651811441500        0.30108260790564
H            0.79189958194629       -2.94462415756376       -1.20907523661420
H           -0.39801973219991       -3.33211664914190        0.04242376288938
H            2.07396229894713        0.01497390377811        0.04877896376880
H            5.21800028371110        2.70543005484829       -1.79222186478012
H            5.12136249113009        3.16989056798105       -0.09544901872783
H            6.69919705183926        2.74921121953366       -0.80808356001931
H           -0.00107454890614       -1.08959585877589       -3.04570091235907
H            0.78082506929571        0.47219960067576       -2.73017930006155
H            1.39171881721235       -0.99691906024160       -1.92960805938187
H           -4.07676413893994        1.82441750308701       -0.04469491695400
H           -3.87017752514139        1.27959191773906       -2.89780352849516
H           -5.24435887647731        2.00952272317449       -2.00308015159893
H           -4.84490420564862        0.27020825190058       -1.76767308315035

          :  Hamiltonian                  GFN1-xTB          :
         :: total energy             -86.315686540079 Eh    ::
         :: gradient norm              0.000796128946 Eh/a0 ::
         :: HOMO-LUMO gap              2.317222516749 eV    ::
         :: SCC energy               -87.148483478391 Eh    ::
         :: -> Gsolv                  -0.124904634452 Eh    ::
         :: repulsion energy           0.861879119729 Eh    ::

    * Orbital Energies and Occupations

         #    Occupation            Energy/Eh            Energy/eV
      -------------------------------------------------------------
         1        2.0000           -0.9282391             -25.2587
       ...           ...                  ...                  ...
        58        2.0000           -0.5216864             -14.1958
        59        2.0000           -0.5206421             -14.1674
        60        2.0000           -0.5174108             -14.0795
        61        2.0000           -0.5107982             -13.8995
        62        2.0000           -0.5088366             -13.8461
        63        2.0000           -0.4949820             -13.4691
        64        2.0000           -0.4855466             -13.2124
        65        2.0000           -0.4830380             -13.1441
        66        2.0000           -0.4769082             -12.9773
        67        2.0000           -0.4742885             -12.9060
        68        2.0000           -0.4674820             -12.7208
        69        2.0000           -0.4581928             -12.4681
        70        2.0000           -0.4556574             -12.3991 (HOMO)
        71                         -0.3705010             -10.0818 (LUMO)
        72                         -0.3207829              -8.7289
        73                         -0.3194913              -8.6938
        74                         -0.2779709              -7.5640
        75                         -0.2616347              -7.1194
        76                         -0.2077684              -5.6537
        77                         -0.2063163              -5.6142
        78                         -0.1701268              -4.6294
        79                         -0.1686822              -4.5901
        80                         -0.1534586              -4.1758
        81                         -0.1528258              -4.1586
       ...                                ...                  ...
       144                          0.7344337              19.9850
      -------------------------------------------------------------
                  HL-Gap            0.0851564 Eh            2.3172 eV

Wiberg/Mayer (AO) data.
largest (>0.10) Wiberg bond orders for each atom

     #   Z sym  total        # sym  WBO       # sym  WBO       # sym  WBO
 ---------------------------------------------------------------------------
     1   6 C    3.827 --    27 H    0.985    29 H    0.978    28 H    0.978
                             2 O    0.851
     2   8 O    2.231 --     3 C    1.087     1 C    0.851     4 O    0.138
     3   6 C    3.848 --     4 O    1.730     2 O    1.087     5 C    0.962
     4   8 O    1.989 --     3 C    1.730     2 O    0.138
     5   6 C    3.972 --    24 C    1.513     6 N    1.269     3 C    0.962
     6   7 N    3.035 --     7 C    1.473     5 C    1.269
     7   6 C    3.916 --     6 N    1.473    20 N    1.261     8 C    0.978
     8   6 C    3.932 --     9 C    0.988     7 C    0.978    10 C    0.974
                            11 N    0.928
     9   6 C    3.986 --     8 C    0.988    31 H    0.984    32 H    0.983
                            30 H    0.981
    10   6 C    3.984 --    35 H    0.984    34 H    0.981    33 H    0.974
                             8 C    0.974
    11   7 N    3.325 --    12 C    1.218     8 C    0.928    36 H    0.894
                            13 O    0.167
    12   6 C    3.912 --    13 O    1.608    11 N    1.218    14 C    0.997
    13   8 O    1.921 --    12 C    1.608    11 N    0.167
    14   6 C    3.874 --    15 N    1.620    19 O    1.045    12 C    0.997
    15   7 N    3.003 --    14 C    1.620    16 N    1.202
    16   7 N    2.983 --    17 C    1.608    15 N    1.202
    17   6 C    3.866 --    16 N    1.608    19 O    1.071    18 C    1.032
    18   6 C    3.985 --    17 C    1.032    39 H    0.982    38 H    0.964
                            37 H    0.961
    19   8 O    2.314 --    17 C    1.071    14 C    1.045
    20   7 N    3.541 --     7 C    1.261    22 C    1.074    21 C    0.916
                            23 O    0.126
    21   6 C    3.900 --    42 H    0.975    41 H    0.970    40 H    0.969
                            20 N    0.916
    22   6 C    3.920 --    23 O    1.596    24 C    1.128    20 N    1.074
    23   8 O    1.934 --    22 C    1.596    20 N    0.126
    24   6 C    3.827 --     5 C    1.513    22 C    1.128    25 O    0.868
    25   8 O    2.438 --    24 C    0.868    26 C    0.792    43 H    0.685
    26   6 C    3.765 --    46 H    0.983    45 H    0.977    44 H    0.973
                            25 O    0.792
    27   1 H    1.004 --     1 C    0.985
    28   1 H    1.000 --     1 C    0.978
    29   1 H    1.001 --     1 C    0.978
    30   1 H    1.003 --     9 C    0.981
    31   1 H    1.004 --     9 C    0.984
    32   1 H    1.008 --     9 C    0.983
    33   1 H    1.009 --    10 C    0.974
    34   1 H    0.999 --    10 C    0.981
    35   1 H    1.000 --    10 C    0.984
    36   1 H    0.936 --    11 N    0.894
    37   1 H    0.996 --    18 C    0.961
    38   1 H    0.996 --    18 C    0.964
    39   1 H    0.998 --    18 C    0.982
    40   1 H    0.997 --    21 C    0.969
    41   1 H    0.999 --    21 C    0.970
    42   1 H    1.007 --    21 C    0.975
    43   1 H    0.799 --    25 O    0.685
    44   1 H    1.007 --    26 C    0.973
    45   1 H    0.992 --    26 C    0.977
    46   1 H    0.993 --    26 C    0.983
 ---------------------------------------------------------------------------

           -------------------------------------------------
          | TOTAL ENERGY              -86.315686540079 Eh   |
          | GRADIENT NORM               0.000796128946 Eh/α |
          | HOMO-LUMO GAP               2.317222516749 eV   |
           -------------------------------------------------

 * finished run on 2023/06/20 at 15:38:52.950
