   * xtb version 6.5.1 (579679a) compiled by 'ehlert@majestix' on 2022-07-11
          program call               : /lustre/hpc/kemi/ree/PhD/git/ReactivityQM/dep/xtb-6.5.1/bin/xtb --gfn 1 /lustre/hpc/kemi/ree/PhD/git/ReactivityQM/calculations/R01/reac01prodN03/conf12/R01_reac01prodN03_conf12_gfn1.xyz --opt --vfukui --chrg 1 --uhf 0 --alpb DMSO

   ID    Z sym.   atoms
    1    6 C      1, 3, 5, 7, 8, 11
    2    8 O      2, 4, 6
    3    7 N      9, 10
    4    1 H      12-20

      * Solvation model:               ALPB
        Solvent                        DMSO
        Solvent mass                       7.8130E+01 g/mol
          :  Hamiltonian                  GFN1-xTB          :
 * total energy  :   -37.6221292 Eh     change       -0.5286438E-11 Eh
 * total energy  :   -37.6368108 Eh     change       -0.1468155E-01 Eh
 * total energy  :   -37.6419396 Eh     change       -0.5128875E-02 Eh
 * total energy  :   -37.6433192 Eh     change       -0.1379517E-02 Eh
 * total energy  :   -37.6443403 Eh     change       -0.1021185E-02 Eh
 * total energy  :   -37.6447905 Eh     change       -0.4501656E-03 Eh
 * total energy  :   -37.6450976 Eh     change       -0.3070641E-03 Eh
 * total energy  :   -37.6453148 Eh     change       -0.2172687E-03 Eh
 * total energy  :   -37.6453856 Eh     change       -0.7080253E-04 Eh
 * total energy  :   -37.6453956 Eh     change       -0.9912642E-05 Eh
 * total energy  :   -37.6454000 Eh     change       -0.4430742E-05 Eh
   *** GEOMETRY OPTIMIZATION CONVERGED AFTER 11 ITERATIONS ***

 final structure:
================
20
 xtb: 6.5.1 (579679a)
C           -3.53186644766764       -0.92541760246133       -0.52109939520797
O           -2.09084974108895       -0.88424782989991       -0.50816122386283
C           -1.52376613059976        0.23982731447493       -0.17298771178288
O           -2.06015619878510        1.26792070223886        0.13679796217495
C           -0.02035315883090        0.12231442908326       -0.21690563016213
O            0.62214835923969       -0.98810101507267       -0.53781329652462
C            1.92797695237560       -0.69409810558677       -0.48140903389099
C            2.94863562216272       -1.71229375543146       -0.77489987090938
N            2.10875471784798        0.55309548384740       -0.14019568354363
N            0.87609023413596        1.05345389378718        0.02117094310612
C            0.71710236372715        2.43509138905178        0.42140939146558
H           -3.91184684358000       -0.67304550762069        0.46965192782329
H           -3.90735849346636       -0.21206137658122       -1.25582581016274
H           -3.79847919779464       -1.94340221151570       -0.79455686928102
H            3.91903614432962       -1.23831643021572       -0.90251165662987
H            2.99983083386853       -2.42413606340733        0.05157161720170
H            2.67149662785106       -2.26311399431639       -1.67316273396837
H            1.50502729897967        3.01509123681280       -0.05350881948731
H           -0.26800804232358        2.78036509073605        0.11808220289631
H            0.81658509961897        2.49107335207700        1.50531669074571

          :  Hamiltonian                  GFN1-xTB          :
         :: total energy             -37.645399983007 Eh    ::
         :: gradient norm              0.000738876888 Eh/a0 ::
         :: HOMO-LUMO gap              3.656996600384 eV    ::
         :: SCC energy               -38.000401995822 Eh    ::
         :: -> Gsolv                  -0.077896167663 Eh    ::
         :: repulsion energy           0.363118154077 Eh    ::

    * Orbital Energies and Occupations

         #    Occupation            Energy/Eh            Energy/eV
      -------------------------------------------------------------
         1        2.0000           -0.9438934             -25.6846
       ...           ...                  ...                  ...
        18        2.0000           -0.6262840             -17.0421
        19        2.0000           -0.6069701             -16.5165
        20        2.0000           -0.6043117             -16.4442
        21        2.0000           -0.5964866             -16.2312
        22        2.0000           -0.5878151             -15.9953
        23        2.0000           -0.5752206             -15.6525
        24        2.0000           -0.5695771             -15.4990
        25        2.0000           -0.5596565             -15.2290
        26        2.0000           -0.5496870             -14.9577
        27        2.0000           -0.5437985             -14.7975
        28        2.0000           -0.5324853             -14.4897
        29        2.0000           -0.5319500             -14.4751
        30        2.0000           -0.5221983             -14.2097 (HOMO)
        31                         -0.3878061             -10.5527 (LUMO)
        32                         -0.3291338              -8.9562
        33                         -0.2701361              -7.3508
        34                         -0.1748655              -4.7583
        35                         -0.1695131              -4.6127
        36                         -0.1565047              -4.2587
        37                         -0.1099110              -2.9908
        38                         -0.1014684              -2.7611
        39                         -0.1004736              -2.7340
        40                         -0.0996500              -2.7116
        41                         -0.0919595              -2.5023
       ...                                ...                  ...
        62                          0.7213084              19.6278
      -------------------------------------------------------------
                  HL-Gap            0.1343922 Eh            3.6570 eV

Wiberg/Mayer (AO) data.
largest (>0.10) Wiberg bond orders for each atom

     #   Z sym  total        # sym  WBO       # sym  WBO       # sym  WBO
 ---------------------------------------------------------------------------
     1   6 C    3.827 --    14 H    0.983    12 H    0.976    13 H    0.975
                             2 O    0.858
     2   8 O    2.258 --     3 C    1.192     1 C    0.858     4 O    0.160
     3   6 C    3.883 --     4 O    1.677     2 O    1.192     5 C    0.943
     4   8 O    1.982 --     3 C    1.677     2 O    0.160
     5   6 C    3.854 --    10 N    1.453     6 O    1.133     3 C    0.943
     6   8 O    2.386 --     5 C    1.133     7 C    1.084
     7   6 C    3.837 --     9 N    1.552     6 O    1.084     8 C    1.044
     8   6 C    3.968 --     7 C    1.044    15 H    0.975    17 H    0.956
                            16 H    0.940
     9   7 N    2.965 --     7 C    1.552    10 N    1.173
    10   7 N    3.669 --     5 C    1.453     9 N    1.173    11 C    0.908
    11   6 C    3.874 --    18 H    0.971    19 H    0.971    20 H    0.955
                            10 N    0.908
    12   1 H    0.998 --     1 C    0.976
    13   1 H    0.998 --     1 C    0.975
    14   1 H    1.004 --     1 C    0.983
    15   1 H    0.990 --     8 C    0.975
    16   1 H    0.987 --     8 C    0.940
    17   1 H    0.988 --     8 C    0.956
    18   1 H    0.991 --    11 C    0.971
    19   1 H    1.000 --    11 C    0.971
    20   1 H    0.988 --    11 C    0.955
 ---------------------------------------------------------------------------

           -------------------------------------------------
          | TOTAL ENERGY              -37.645399983007 Eh   |
          | GRADIENT NORM               0.000738876888 Eh/α |
          | HOMO-LUMO GAP               3.656996600384 eV   |
           -------------------------------------------------

 * finished run on 2023/06/20 at 14:55:26.443
