   * xtb version 6.5.1 (579679a) compiled by 'ehlert@majestix' on 2022-07-11
          program call               : /lustre/hpc/kemi/ree/PhD/git/ReactivityQM/dep/xtb-6.5.1/bin/xtb --gfn 1 /lustre/hpc/kemi/ree/PhD/git/ReactivityQM/calculations/R02deprot/reac01prodE12/conf15/R02deprot_reac01prodE12_conf15_gfn1.xyz --opt --vfukui --chrg -2 --uhf 0 --alpb DMSO

   ID    Z sym.   atoms
    1    6 C      1, 3, 5, 6, 8, 9, 12-15, 17, 19, 22, 23
    2    8 O      2, 4, 7, 10, 18, 24
    3    7 N      11, 16, 20, 21, 25
    4    1 H      26-42

      * Solvation model:               ALPB
        Solvent                        DMSO
        Solvent mass                       7.8130E+01 g/mol
          :  Hamiltonian                  GFN1-xTB          :
 * total energy  :   -83.5684923 Eh     change       -0.2639240E-09 Eh
 * total energy  :   -83.5808230 Eh     change       -0.1233067E-01 Eh
 * total energy  :   -83.5864054 Eh     change       -0.5582355E-02 Eh
 * total energy  :   -83.5874622 Eh     change       -0.1056868E-02 Eh
 * total energy  :   -83.5880373 Eh     change       -0.5750396E-03 Eh
 * total energy  :   -83.5882648 Eh     change       -0.2275207E-03 Eh
 * total energy  :   -83.5884272 Eh     change       -0.1623693E-03 Eh
 * total energy  :   -83.5885297 Eh     change       -0.1025504E-03 Eh
 * total energy  :   -83.5886037 Eh     change       -0.7397274E-04 Eh
 * total energy  :   -83.5886684 Eh     change       -0.6467224E-04 Eh
 * total energy  :   -83.5894682 Eh     change        0.1029976E-04 Eh
 * total energy  :   -83.5894942 Eh     change       -0.2601410E-04 Eh
 * total energy  :   -83.5895024 Eh     change       -0.8130707E-05 Eh
 * total energy  :   -83.5895216 Eh     change       -0.1923752E-04 Eh
 * total energy  :   -83.5895322 Eh     change       -0.1057472E-04 Eh
 * total energy  :   -83.5895392 Eh     change       -0.7016223E-05 Eh
 * total energy  :   -83.5895412 Eh     change       -0.1986500E-05 Eh
 * total energy  :   -83.5895465 Eh     change       -0.5267867E-05 Eh
 * total energy  :   -83.5895495 Eh     change       -0.3063597E-05 Eh
   *** GEOMETRY OPTIMIZATION CONVERGED AFTER 45 ITERATIONS ***

 final structure:
================
42
 xtb: 6.5.1 (579679a)
C           -1.80691771832126       -3.26644689478221        2.20066268107330
O           -1.58209518753453       -2.12854664205123        1.38610922956907
C           -2.68168129128023       -1.36042584356789        1.12772357710954
O           -3.77764256461292       -1.68557682645210        1.60295838139518
C           -2.43186239469625       -0.20719978963641        0.29477820605318
C           -3.44122903301418        0.66217509710156       -0.03750806613213
O           -4.71286641827052        0.51636777548514        0.41839017277462
C           -3.23419053064912        1.80181452801433       -1.09005669836787
C           -3.85868959869262        3.11746735343846       -0.47293259723260
O           -3.75593047449004        1.46961567433444       -2.25482532971321
N           -1.75116378853976        2.09085052275282       -1.15447468260005
C           -0.91939639400356        1.18172619652806       -0.75560839643523
C            0.56470602375290        1.50541562006836       -1.03987389899618
C            0.77592722413581        1.64707201256320       -2.55314343294360
C            0.94383684743199        2.80746395773925       -0.32139398011010
N            1.35584344067479        0.39279860699021       -0.51955611416610
C            2.67980517217717        0.27430054468431       -0.57709473355305
O            3.46092262815226        1.08545041593564       -1.07548443162621
C            3.14123648410207       -0.99964458773804        0.04275150342175
N            2.38953079172385       -1.91666480412408        0.58041142544378
N            3.22453634821690       -2.90864780629606        1.01314868924179
C            4.42751215919840       -2.53591276974317        0.71283623469764
C            5.68795995946777       -3.27013235191138        0.96623145838533
O            4.44942536192308       -1.34097428208791        0.09868070530659
N           -1.11571284097240        0.02050503002877       -0.11649372699176
H           -2.20356790988323       -2.97472686388796        3.17863336634155
H           -0.84791295749650       -3.76756768702847        2.33067239584180
H           -2.51724764912466       -3.95235564767018        1.72678727338045
H           -4.77662765582238       -0.28108895582619        0.98655085793158
H           -3.68187554769119        3.94103021496930       -1.16462793917911
H           -4.93293998494133        2.98567992487052       -0.34485808583209
H           -3.40102483404382        3.35090235311085        0.48881270544388
H            0.05995203635988        2.37631797681020       -2.93559382866195
H            0.60432875056647        0.69039706052524       -3.04811860444897
H            1.78628268913469        1.98496387083490       -2.78180739990407
H            0.24340233979518        3.58750119639989       -0.62297063929502
H            1.95688674330423        3.11881938173793       -0.57476731722899
H            0.87632989385175        2.67327295030447        0.75844538486423
H            0.78214877565263       -0.32892065042432       -0.06390874449731
H            6.14519111361605       -3.56803027499353        0.02201452350716
H            5.48015490023677       -4.15713495430904        1.55949357023489
H            6.39465209062594       -2.63190963269491        1.49555330590285

          :  Hamiltonian                  GFN1-xTB          :
         :: total energy             -83.589549516464 Eh    ::
         :: gradient norm              0.000583784366 Eh/a0 ::
         :: HOMO-LUMO gap              0.186772809205 eV    ::
         :: SCC energy               -84.316157077794 Eh    ::
         :: -> Gsolv                  -0.290460100604 Eh    ::
         :: repulsion energy           0.752268555343 Eh    ::

    * Orbital Energies and Occupations

         #    Occupation            Energy/Eh            Energy/eV
      -------------------------------------------------------------
         1        2.0000           -0.8424316             -22.9237
       ...           ...                  ...                  ...
        56        2.0000           -0.4378048             -11.9133
        57        2.0000           -0.4340859             -11.8121
        58        2.0000           -0.4257176             -11.5844
        59        2.0000           -0.4161813             -11.3249
        60        2.0000           -0.4111852             -11.1889
        61        2.0000           -0.4068761             -11.0717
        62        2.0000           -0.4039202             -10.9912
        63        2.0000           -0.3733506             -10.1594
        64        2.0000           -0.3636756              -9.8961
        65        2.0000           -0.3322111              -9.0399
        66        2.0000           -0.3052755              -8.3070
        67        2.0000           -0.2987206              -8.1286
        68        1.9474           -0.2889764              -7.8634 (HOMO)
        69        0.0526           -0.2821126              -7.6767 (LUMO)
        70                         -0.2392656              -6.5107
        71                         -0.2345432              -6.3822
        72                         -0.1690281              -4.5995
        73                         -0.1579484              -4.2980
        74                         -0.1359322              -3.6989
        75                         -0.1173281              -3.1927
        76                         -0.0993947              -2.7047
        77                         -0.0900166              -2.4495
        78                         -0.0883751              -2.4048
        79                         -0.0683744              -1.8606
       ...                                ...                  ...
       134                          0.7293420              19.8464
      -------------------------------------------------------------
                  HL-Gap            0.0068638 Eh            0.1868 eV

Wiberg/Mayer (AO) data.
largest (>0.10) Wiberg bond orders for each atom

     #   Z sym  total        # sym  WBO       # sym  WBO       # sym  WBO
 ---------------------------------------------------------------------------
     1   6 C    3.905 --    27 H    0.987    28 H    0.980    26 H    0.980
                             2 O    0.932
     2   8 O    2.146 --     3 C    1.031     1 C    0.932
     3   6 C    3.831 --     4 O    1.516     5 C    1.132     2 O    1.031
     4   8 O    1.873 --     3 C    1.516
     5   6 C    3.949 --     6 C    1.486     3 C    1.132    25 N    1.107
     6   6 C    3.835 --     5 C    1.486     7 O    1.065     8 C    0.896
     7   8 O    2.043 --     6 C    1.065    29 H    0.810
     8   6 C    3.942 --    10 O    1.172     9 C    0.923     6 C    0.896
                            11 N    0.886
     9   6 C    3.980 --    32 H    0.991    31 H    0.989    30 H    0.988
                             8 C    0.923
    10   8 O    1.457 --     8 C    1.172
    11   7 N    2.904 --    12 C    1.578     8 C    0.886    25 N    0.178
    12   6 C    3.962 --    11 N    1.578    25 N    1.325    13 C    0.941
    13   6 C    3.911 --    14 C    0.988    15 C    0.987    12 C    0.941
                            16 N    0.916
    14   6 C    3.996 --    13 C    0.988    34 H    0.987    35 H    0.986
                            33 H    0.984
    15   6 C    3.996 --    38 H    0.987    13 C    0.987    37 H    0.985
                            36 H    0.984
    16   7 N    3.393 --    17 C    1.319    13 C    0.916    39 H    0.859
                            18 O    0.188
    17   6 C    3.914 --    18 O    1.524    16 N    1.319    19 C    0.988
    18   8 O    1.837 --    17 C    1.524    16 N    0.188
    19   6 C    3.836 --    20 N    1.598    24 O    1.046    17 C    0.988
    20   7 N    2.974 --    19 C    1.598    21 N    1.185
    21   7 N    2.980 --    22 C    1.623    20 N    1.185
    22   6 C    3.869 --    21 N    1.623    24 O    1.076    23 C    1.028
    23   6 C    3.990 --    22 C    1.028    41 H    0.984    42 H    0.969
                            40 H    0.964
    24   8 O    2.300 --    22 C    1.076    19 C    1.046
    25   7 N    2.881 --    12 C    1.325     5 C    1.107    11 N    0.178
    26   1 H    1.016 --     1 C    0.980
    27   1 H    1.017 --     1 C    0.987
    28   1 H    1.016 --     1 C    0.980
    29   1 H    0.893 --     7 O    0.810
    30   1 H    1.025 --     9 C    0.988
    31   1 H    1.023 --     9 C    0.989
    32   1 H    1.021 --     9 C    0.991
    33   1 H    1.027 --    14 C    0.984
    34   1 H    1.009 --    14 C    0.987
    35   1 H    1.015 --    14 C    0.986
    36   1 H    1.027 --    15 C    0.984
    37   1 H    1.014 --    15 C    0.985
    38   1 H    1.009 --    15 C    0.987
    39   1 H    1.000 --    16 N    0.859
    40   1 H    0.999 --    23 C    0.964
    41   1 H    1.001 --    23 C    0.984
    42   1 H    0.999 --    23 C    0.969
 ---------------------------------------------------------------------------

           -------------------------------------------------
          | TOTAL ENERGY              -83.589549516464 Eh   |
          | GRADIENT NORM               0.000583784366 Eh/α |
          | HOMO-LUMO GAP               0.186772809205 eV   |
           -------------------------------------------------

 * finished run on 2023/06/20 at 17:58:04.659
