   * xtb version 6.5.1 (579679a) compiled by 'ehlert@majestix' on 2022-07-11
          program call               : /lustre/hpc/kemi/ree/PhD/git/ReactivityQM/dep/xtb-6.5.1/bin/xtb --gfn 1 /lustre/hpc/kemi/ree/PhD/git/ReactivityQM/calculations/R03/reac02prodE05/conf12/R03_reac02prodE05_conf12_gfn1.xyz --opt --vfukui --chrg -1 --uhf 0 --alpb DMSO

   ID    Z sym.   atoms
    1    6 C      1, 3, 5, 6, 8, 11-15, 17, 19, 22, 23, 26
    2    8 O      2, 4, 7, 9, 18, 24
    3    7 N      10, 16, 20, 21, 25
    4    1 H      27-46

      * Solvation model:               ALPB
        Solvent                        DMSO
        Solvent mass                       7.8130E+01 g/mol
          :  Hamiltonian                  GFN1-xTB          :
 * total energy  :   -86.9682510 Eh     change       -0.2101558E-08 Eh
 * total energy  :   -86.9823512 Eh     change       -0.1410025E-01 Eh
 * total energy  :   -86.9894957 Eh     change       -0.7144466E-02 Eh
 * total energy  :   -86.9915180 Eh     change       -0.2022305E-02 Eh
 * total energy  :   -86.9926577 Eh     change       -0.1139710E-02 Eh
 * total energy  :   -86.9933259 Eh     change       -0.6682047E-03 Eh
 * total energy  :   -86.9937963 Eh     change       -0.4704401E-03 Eh
 * total energy  :   -86.9942913 Eh     change       -0.4950016E-03 Eh
 * total energy  :   -86.9947234 Eh     change       -0.4320978E-03 Eh
 * total energy  :   -86.9950394 Eh     change       -0.3159251E-03 Eh
 * total energy  :   -86.9975698 Eh     change       -0.3625423E-04 Eh
 * total energy  :   -86.9975964 Eh     change       -0.2669082E-04 Eh
 * total energy  :   -86.9976233 Eh     change       -0.2681676E-04 Eh
 * total energy  :   -86.9976406 Eh     change       -0.1737471E-04 Eh
 * total energy  :   -86.9976510 Eh     change       -0.1037173E-04 Eh
 * total energy  :   -86.9976619 Eh     change       -0.1090283E-04 Eh
 * total energy  :   -86.9976685 Eh     change       -0.6638405E-05 Eh
 * total energy  :   -86.9976733 Eh     change       -0.4802922E-05 Eh
 * total energy  :   -86.9976765 Eh     change       -0.3105431E-05 Eh
   *** GEOMETRY OPTIMIZATION CONVERGED AFTER 42 ITERATIONS ***

 final structure:
================
46
 xtb: 6.5.1 (579679a)
C           -3.83354263057672        3.77261883671055       -0.29167424096011
O           -3.78353084072996        2.41233953090647        0.09016485038375
C           -2.56674200941837        1.77064564650279       -0.17737485762089
O           -1.62941544758100        2.42840703459896       -0.68686127557063
C           -2.56522737178614        0.41578734213224        0.13788013124220
C           -3.56567171465405       -0.39482279679431        0.77283158636932
O           -4.91251775421843       -0.10358652757878        0.62662836385662
C           -3.22992324178263       -1.50111382722596        1.50869382398931
O           -4.02934022939524       -2.29668642873612        2.08842558914486
N           -1.77286695148553       -1.72589058042790        1.66509380364270
C           -1.45443286787471       -2.66545147425794        2.73208798639684
C           -0.88524872786659       -1.21229424283878        0.81875771658733
C            0.60812129814087       -1.59268379937167        0.82424294157473
C            1.23569802220101       -1.65232876418889        2.23159015780127
C            0.79934942118049       -2.93207639366139        0.09493871142985
N            1.30919574401741       -0.50808254133346        0.13030641122577
C            2.63600234393192       -0.58935354375833       -0.22834095146927
O            3.28108822079727       -1.63458711416605       -0.30868474540823
C            3.16336698541062        0.72979153503352       -0.55348265146264
N            2.50950405893980        1.86793299824717       -0.47993167595017
N            3.38369015898963        2.84559438408176       -0.85966751008197
C            4.50509949172891        2.26054443512069       -1.13753040578456
C            5.76571881030191        2.89218563077455       -1.59228132530663
O            4.44465281346987        0.92577096021172       -0.96850678165818
N           -1.32082292205340       -0.31430287515306       -0.08057753472637
C           -0.81928795579581       -0.23465244375227       -1.45796418264606
H           -3.08528714110254        4.36777808447384        0.24747845723417
H           -4.83079001493409        4.14130834238512       -0.04437194788748
H           -3.66066244060403        3.89260011498788       -1.36873389996052
H           -5.39781310436149       -0.79346007528808        1.10720577930990
H           -2.39510467814379       -3.10522428728765        3.07092454519675
H           -0.98933726383818       -2.14920771158794        3.57081832940066
H           -0.81039743211832       -3.46473807801499        2.37446758635491
H            1.06058510551282       -2.60544889470749        2.71975378138467
H            2.31391271832097       -1.53888562876971        2.12443041017969
H            0.86411601376295       -0.84414353747426        2.85861230873244
H            0.02316358596833       -3.63218310604214        0.39770044787785
H            0.74402302812290       -2.79681008023351       -0.98350397847435
H            1.76877103484414       -3.36047287130980        0.33995389297949
H            1.00460662489848        0.42271158340169        0.39697976728519
H            6.05985813693775        2.48799957883923       -2.56065737739270
H            6.56583876162280        2.68181304106018       -0.88317380128852
H            5.62888320865986        3.96741456481040       -1.67498933191682
H           -0.19713268696016       -1.09234255219004       -1.69568239973597
H           -1.68537515760169       -0.22952838765790       -2.12383344079771
H           -0.25477400287539        0.68711791952648       -1.61075706347432

          :  Hamiltonian                  GFN1-xTB          :
         :: total energy             -86.997676454889 Eh    ::
         :: gradient norm              0.000722561274 Eh/a0 ::
         :: HOMO-LUMO gap              0.089334906747 eV    ::
         :: SCC energy               -87.787213911047 Eh    ::
         :: -> Gsolv                  -0.117486391704 Eh    ::
         :: repulsion energy           0.820085551208 Eh    ::

    * Orbital Energies and Occupations

         #    Occupation            Energy/Eh            Energy/eV
      -------------------------------------------------------------
         1        2.0000           -0.8369583             -22.7748
       ...           ...                  ...                  ...
        59        2.0000           -0.4683612             -12.7448
        60        2.0000           -0.4610300             -12.5453
        61        2.0000           -0.4592090             -12.4957
        62        2.0000           -0.4426437             -12.0449
        63        2.0000           -0.4406736             -11.9913
        64        2.0000           -0.4375965             -11.9076
        65        2.0000           -0.4298676             -11.6973
        66        2.0000           -0.4244357             -11.5495
        67        2.0000           -0.4197401             -11.4217
        68        2.0000           -0.4105703             -11.1722
        69        2.0000           -0.3968593             -10.7991
        70        2.0000           -0.3747291             -10.1969
        71        1.6983           -0.2968688              -8.0782 (HOMO)
        72        0.3017           -0.2935858              -7.9889 (LUMO)
        73                         -0.2758472              -7.5062
        74                         -0.2366784              -6.4403
        75                         -0.1766364              -4.8065
        76                         -0.1748221              -4.7572
        77                         -0.1348291              -3.6689
        78                         -0.1333795              -3.6294
        79                         -0.1287686              -3.5040
        80                         -0.1202961              -3.2734
        81                         -0.1135219              -3.0891
        82                         -0.1081342              -2.9425
       ...                                ...                  ...
       144                          0.7041427              19.1607
      -------------------------------------------------------------
                  HL-Gap            0.0032830 Eh            0.0893 eV

Wiberg/Mayer (AO) data.
largest (>0.10) Wiberg bond orders for each atom

     #   Z sym  total        # sym  WBO       # sym  WBO       # sym  WBO
 ---------------------------------------------------------------------------
     1   6 C    3.916 --    28 H    0.987    27 H    0.981    29 H    0.981
                             2 O    0.947
     2   8 O    2.062 --     1 C    0.947     3 C    0.944
     3   6 C    3.836 --     4 O    1.411     5 C    1.368     2 O    0.944
     4   8 O    1.716 --     3 C    1.411     5 C    0.125
     5   6 C    3.682 --     3 C    1.368     6 C    1.136    25 N    0.905
                             4 O    0.125
     6   6 C    3.811 --     8 C    1.420     5 C    1.136     7 O    0.997
                             9 O    0.125
     7   8 O    1.964 --     6 C    0.997    30 H    0.846
     8   6 C    3.821 --     6 C    1.420     9 O    1.350    10 N    0.874
     9   8 O    1.674 --     8 C    1.350     6 C    0.125
    10   7 N    3.489 --    12 C    1.383    11 C    0.947     8 C    0.874
                            25 N    0.139
    11   6 C    3.937 --    32 H    0.978    33 H    0.978    31 H    0.963
                            10 N    0.947
    12   6 C    3.922 --    10 N    1.383    25 N    1.317    13 C    0.968
    13   6 C    3.943 --    15 C    0.984    14 C    0.982    12 C    0.968
                            16 N    0.941
    14   6 C    3.988 --    36 H    0.984    13 C    0.982    34 H    0.981
                            35 H    0.979
    15   6 C    3.990 --    13 C    0.984    37 H    0.982    39 H    0.978
                            38 H    0.978
    16   7 N    3.236 --    17 C    1.153    13 C    0.941    40 H    0.903
                            18 O    0.140
    17   6 C    3.816 --    18 O    1.533    16 N    1.153    19 C    1.058
    18   8 O    1.805 --    17 C    1.533    16 N    0.140
    19   6 C    3.778 --    20 N    1.511    17 C    1.058    24 O    1.023
    20   7 N    2.880 --    19 C    1.511    21 N    1.191
    21   7 N    2.980 --    22 C    1.619    20 N    1.191
    22   6 C    3.844 --    21 N    1.619    24 O    1.069    23 C    1.028
    23   6 C    3.990 --    22 C    1.028    43 H    0.984    41 H    0.967
                            42 H    0.967
    24   8 O    2.259 --    22 C    1.069    19 C    1.023
    25   7 N    3.413 --    12 C    1.317    26 C    0.932     5 C    0.905
                            10 N    0.139
    26   6 C    3.942 --    44 H    0.982    45 H    0.978    46 H    0.976
                            25 N    0.932
    27   1 H    1.020 --     1 C    0.981
    28   1 H    1.019 --     1 C    0.987
    29   1 H    1.019 --     1 C    0.981
    30   1 H    0.887 --     7 O    0.846
    31   1 H    1.018 --    11 C    0.963
    32   1 H    1.006 --    11 C    0.978
    33   1 H    1.007 --    11 C    0.978
    34   1 H    1.005 --    14 C    0.981
    35   1 H    1.004 --    14 C    0.979
    36   1 H    1.002 --    14 C    0.984
    37   1 H    1.005 --    15 C    0.982
    38   1 H    1.008 --    15 C    0.978
    39   1 H    1.016 --    15 C    0.978
    40   1 H    0.966 --    16 N    0.903
    41   1 H    0.998 --    23 C    0.967
    42   1 H    0.998 --    23 C    0.967
    43   1 H    1.001 --    23 C    0.984
    44   1 H    1.014 --    26 C    0.982
    45   1 H    1.011 --    26 C    0.978
    46   1 H    1.033 --    26 C    0.976
 ---------------------------------------------------------------------------

           -------------------------------------------------
          | TOTAL ENERGY              -86.997676454889 Eh   |
          | GRADIENT NORM               0.000722561274 Eh/α |
          | HOMO-LUMO GAP               0.089334906747 eV   |
           -------------------------------------------------

 * finished run on 2023/06/20 at 15:20:03.607
