   * xtb version 6.5.1 (579679a) compiled by 'ehlert@majestix' on 2022-07-11
          program call               : /lustre/hpc/kemi/ree/PhD/git/ReactivityQM/dep/xtb-6.5.1/bin/xtb --gfn 1 /lustre/hpc/kemi/ree/PhD/git/ReactivityQM/calculations/R02/reac01prodN03/conf14/R02_reac01prodN03_conf14_gfn1.xyz --opt --vfukui --chrg 1 --uhf 0 --alpb DMSO

   ID    Z sym.   atoms
    1    6 C      1, 3, 5, 6, 8-11, 13, 15, 18, 19, 22, 24
    2    8 O      2, 4, 14, 20, 23, 25
    3    7 N      7, 12, 16, 17, 21
    4    1 H      26-43

      * Solvation model:               ALPB
        Solvent                        DMSO
        Solvent mass                       7.8130E+01 g/mol
          :  Hamiltonian                  GFN1-xTB          :
 * total energy  :   -83.1200517 Eh     change       -0.9265477E-11 Eh
 * total energy  :   -83.1473618 Eh     change       -0.2731014E-01 Eh
 * total energy  :   -83.1570879 Eh     change       -0.9726033E-02 Eh
 * total energy  :   -83.1596307 Eh     change       -0.2542823E-02 Eh
 * total energy  :   -83.1605947 Eh     change       -0.9640179E-03 Eh
 * total energy  :   -83.1608132 Eh     change       -0.2184625E-03 Eh
 * total energy  :   -83.1609418 Eh     change       -0.1286610E-03 Eh
 * total energy  :   -83.1610307 Eh     change       -0.8889768E-04 Eh
 * total energy  :   -83.1611239 Eh     change       -0.9318622E-04 Eh
 * total energy  :   -83.1612253 Eh     change       -0.1013586E-03 Eh
 * total energy  :   -83.1620382 Eh     change       -0.1128116E-04 Eh
 * total energy  :   -83.1620478 Eh     change       -0.9623195E-05 Eh
 * total energy  :   -83.1620612 Eh     change       -0.1336759E-04 Eh
 * total energy  :   -83.1620803 Eh     change       -0.1914875E-04 Eh
 * total energy  :   -83.1621014 Eh     change       -0.2104187E-04 Eh
 * total energy  :   -83.1621095 Eh     change       -0.8081569E-05 Eh
 * total energy  :   -83.1621301 Eh     change       -0.2058899E-04 Eh
 * total energy  :   -83.1621357 Eh     change       -0.5640759E-05 Eh
 * total energy  :   -83.1621391 Eh     change       -0.3418194E-05 Eh
   *** GEOMETRY OPTIMIZATION CONVERGED AFTER 41 ITERATIONS ***

 final structure:
================
43
 xtb: 6.5.1 (579679a)
C           -5.83925407218911       -2.10089322520607        0.70775841533281
O           -4.60403012637538       -1.49876772805437        1.15575945333039
C           -3.78055190036757       -1.00595766318629        0.28521625998598
O           -4.15446879526668       -1.09296395157975       -0.94237734091275
C           -3.46185355778566       -0.62327408680673       -2.10877184223965
C           -2.55465837866546       -0.42744265080401        0.78229490543617
N           -1.67321547437985        0.03874939459610       -0.17143609703422
C           -0.55232159360465        0.56961175302801        0.19400428415975
C            0.40996901921640        1.11592889883452       -0.84880229782581
C            0.48802045367974        2.64437663175791       -0.71993906615263
C           -0.05483238039362        0.73709849410012       -2.25412488360796
N            1.73434256504515        0.51090244098890       -0.66706298520749
C            2.62057178175772        0.81454800893121        0.30340087458449
O            2.39950836581885        1.53797593858849        1.26480833951863
C            3.91354194225419        0.13230164499039        0.08432839928744
N            4.20249647162971       -0.67965393068763       -0.88882997303774
N            5.49156432198164       -1.07095190020277       -0.70192765628631
C            5.90974477013326       -0.47178925057964        0.37433455303346
C            7.24784123602262       -0.56045109636861        0.99894007971972
O            4.95694526610747        0.29982491593937        0.91571742457345
N           -0.20464153881007        0.70267027259490        1.49830378292734
C           -0.96658399145872        0.27121465708781        2.55531641866259
O           -0.60827363933042        0.38918153128806        3.70626231080454
C           -2.25088687911231       -0.33930955185308        2.13321601792768
O           -2.99617625879213       -0.74589197047089        3.13850177902234
H           -6.44096504342021       -1.34834981734727        0.19789952822922
H           -6.33590502907644       -2.45970916115056        1.60513909300712
H           -5.61186601586356       -2.92284945562855        0.02868847318105
H           -3.29101835534056        0.44960941800025       -2.03167911791937
H           -2.51190529871190       -1.14621896389746       -2.20895683262311
H           -4.12026066234885       -0.85203629090756       -2.94555484404645
H            0.77922864184085        2.94346196914641        0.28438905124589
H           -0.48864836829648        3.06877888718835       -0.94405287027441
H            1.21628234172835        3.02842085976887       -1.43203378575355
H            0.66694966590227        1.09133521672717       -2.98820279004107
H           -1.01853339139300        1.19815330547016       -2.45946428144106
H           -0.15544996466951       -0.34306109915769       -2.34301210451154
H            2.04151487965461       -0.11641661781150       -1.39649762499371
H            7.85058687819558       -1.29596757611008        0.47154152783745
H            7.74032844165560        0.41123051610124        0.95790012557759
H            7.15160375992530       -0.84481642746900        2.04613641948090
H            0.70146763922445        1.13584411450245        1.71730208439299
H           -3.84620872611095       -1.14444545434973        2.89137279265072

          :  Hamiltonian                  GFN1-xTB          :
         :: total energy             -83.162139115479 Eh    ::
         :: gradient norm              0.000810896673 Eh/a0 ::
         :: HOMO-LUMO gap              2.043791617452 eV    ::
         :: SCC energy               -83.953578342743 Eh    ::
         :: -> Gsolv                  -0.112225181982 Eh    ::
         :: repulsion energy           0.818056468400 Eh    ::

    * Orbital Energies and Occupations

         #    Occupation            Energy/Eh            Energy/eV
      -------------------------------------------------------------
         1        2.0000           -0.9159490             -24.9242
       ...           ...                  ...                  ...
        55        2.0000           -0.5296730             -14.4131
        56        2.0000           -0.5250918             -14.2885
        57        2.0000           -0.5175724             -14.0839
        58        2.0000           -0.5137945             -13.9811
        59        2.0000           -0.5124896             -13.9456
        60        2.0000           -0.4930302             -13.4160
        61        2.0000           -0.4899534             -13.3323
        62        2.0000           -0.4808440             -13.0844
        63        2.0000           -0.4756689             -12.9436
        64        2.0000           -0.4713124             -12.8251
        65        2.0000           -0.4626561             -12.5895
        66        2.0000           -0.4602862             -12.5250
        67        2.0000           -0.4578312             -12.4582 (HOMO)
        68                         -0.3827232             -10.4144 (LUMO)
        69                         -0.3233975              -8.8001
        70                         -0.3144617              -8.5569
        71                         -0.2887571              -7.8575
        72                         -0.2629975              -7.1565
        73                         -0.2104337              -5.7262
        74                         -0.1984553              -5.4002
        75                         -0.1710757              -4.6552
        76                         -0.1621353              -4.4119
        77                         -0.1446912              -3.9372
        78                         -0.1368742              -3.7245
       ...                                ...                  ...
       136                          0.7027230              19.1221
      -------------------------------------------------------------
                  HL-Gap            0.0751080 Eh            2.0438 eV

Wiberg/Mayer (AO) data.
largest (>0.10) Wiberg bond orders for each atom

     #   Z sym  total        # sym  WBO       # sym  WBO       # sym  WBO
 ---------------------------------------------------------------------------
     1   6 C    3.812 --    27 H    0.982    28 H    0.973    26 H    0.973
                             2 O    0.842
     2   8 O    2.296 --     3 C    1.230     1 C    0.842
     3   6 C    3.813 --     4 O    1.260     2 O    1.230     6 C    1.133
     4   8 O    2.316 --     3 C    1.260     5 C    0.848
     5   6 C    3.812 --    31 H    0.978    29 H    0.970    30 H    0.970
                             4 O    0.848
     6   6 C    3.954 --    24 C    1.414     7 N    1.148     3 C    1.133
     7   7 N    3.031 --     8 C    1.576     6 C    1.148
     8   6 C    3.924 --     7 N    1.576    21 N    1.198     9 C    0.971
     9   6 C    3.934 --    11 C    1.001    10 C    0.977     8 C    0.971
                            12 N    0.922
    10   6 C    3.984 --    33 H    0.984    34 H    0.981    32 H    0.978
                             9 C    0.977
    11   6 C    3.989 --     9 C    1.001    35 H    0.982    37 H    0.982
                            36 H    0.981
    12   7 N    3.342 --    13 C    1.259     9 C    0.922    38 H    0.888
                            14 O    0.171
    13   6 C    3.913 --    14 O    1.561    12 N    1.259    15 C    1.002
    14   8 O    1.933 --    13 C    1.561    12 N    0.171
    15   6 C    3.880 --    16 N    1.602    20 O    1.065    13 C    1.002
    16   7 N    3.020 --    15 C    1.602    17 N    1.208
    17   7 N    2.981 --    18 C    1.595    16 N    1.208
    18   6 C    3.868 --    17 N    1.595    20 O    1.086    19 C    1.032
    19   6 C    3.985 --    18 C    1.032    39 H    0.982    41 H    0.964
                            40 H    0.960
    20   8 O    2.335 --    18 C    1.086    15 C    1.065
    21   7 N    3.481 --     8 C    1.198    22 C    1.143    42 H    0.822
                            23 O    0.142
    22   6 C    3.914 --    23 O    1.636    21 N    1.143    24 C    1.017
    23   8 O    1.932 --    22 C    1.636    21 N    0.142
    24   6 C    3.904 --     6 C    1.414    25 O    1.180    22 C    1.017
    25   8 O    2.160 --    24 C    1.180    43 H    0.785
    26   1 H    0.997 --     1 C    0.973
    27   1 H    1.000 --     1 C    0.982
    28   1 H    0.998 --     1 C    0.973
    29   1 H    1.011 --     5 C    0.970
    30   1 H    1.013 --     5 C    0.970
    31   1 H    1.001 --     5 C    0.978
    32   1 H    1.006 --    10 C    0.978
    33   1 H    0.999 --    10 C    0.984
    34   1 H    0.997 --    10 C    0.981
    35   1 H    0.996 --    11 C    0.982
    36   1 H    1.004 --    11 C    0.981
    37   1 H    1.001 --    11 C    0.982
    38   1 H    0.944 --    12 N    0.888
    39   1 H    0.998 --    19 C    0.982
    40   1 H    0.996 --    19 C    0.960
    41   1 H    0.996 --    19 C    0.964
    42   1 H    0.917 --    21 N    0.822
    43   1 H    0.830 --    25 O    0.785
 ---------------------------------------------------------------------------

           -------------------------------------------------
          | TOTAL ENERGY              -83.162139115479 Eh   |
          | GRADIENT NORM               0.000810896673 Eh/α |
          | HOMO-LUMO GAP               2.043791617452 eV   |
           -------------------------------------------------

 * finished run on 2023/06/20 at 15:21:07.639
