   * xtb version 6.5.1 (579679a) compiled by 'ehlert@majestix' on 2022-07-11
          program call               : /lustre/hpc/kemi/ree/PhD/git/ReactivityQM/dep/xtb-6.5.1/bin/xtb --gfn 1 /lustre/hpc/kemi/ree/PhD/git/ReactivityQM/calculations/R03/reac01prodN03/conf08/R03_reac01prodN03_conf08_gfn1.xyz --opt --vfukui --chrg 1 --uhf 0 --alpb DMSO

   ID    Z sym.   atoms
    1    6 C      1-4, 6-9
    2    9 F      5
    3    7 N      10
    4    1 H      11-21

      * Solvation model:               ALPB
        Solvent                        DMSO
        Solvent mass                       7.8130E+01 g/mol
          :  Hamiltonian                  GFN1-xTB          :
 * total energy  :   -30.7609544 Eh     change       -0.1143974E-11 Eh
 * total energy  :   -30.7664732 Eh     change       -0.5518809E-02 Eh
 * total energy  :   -30.7680174 Eh     change       -0.1544266E-02 Eh
 * total energy  :   -30.7683274 Eh     change       -0.3099493E-03 Eh
 * total energy  :   -30.7687654 Eh     change       -0.4380247E-03 Eh
 * total energy  :   -30.7690834 Eh     change       -0.3179796E-03 Eh
 * total energy  :   -30.7694221 Eh     change       -0.3387300E-03 Eh
 * total energy  :   -30.7698063 Eh     change       -0.3841210E-03 Eh
 * total energy  :   -30.7700151 Eh     change       -0.2088035E-03 Eh
 * total energy  :   -30.7700898 Eh     change       -0.7470389E-04 Eh
 * total energy  :   -30.7701089 Eh     change       -0.1913755E-04 Eh
 * total energy  :   -30.7701384 Eh     change       -0.2946934E-04 Eh
 * total energy  :   -30.7701553 Eh     change       -0.1689319E-04 Eh
 * total energy  :   -30.7701645 Eh     change       -0.9277477E-05 Eh
 * total energy  :   -30.7701739 Eh     change       -0.9360714E-05 Eh
 * total energy  :   -30.7701811 Eh     change       -0.7157345E-05 Eh
 * total energy  :   -30.7701841 Eh     change       -0.3075815E-05 Eh
 * total energy  :   -30.7701864 Eh     change       -0.2315172E-05 Eh
   *** GEOMETRY OPTIMIZATION CONVERGED AFTER 18 ITERATIONS ***

 final structure:
================
21
 xtb: 6.5.1 (579679a)
C           -0.01462993136428       -2.08642856024422        0.74936350271313
C            0.50370006019950       -0.92273661061876       -0.13222418535940
C            1.94776295989143       -0.68187567358738        0.05759507638929
C            2.42501582979314        0.58455948309212        0.16667672480841
F            3.72730324542321        0.78839578182937        0.31970430971278
C            1.58186070724248        1.71030974245193        0.16381654888117
C            0.21798006660490        1.54443221861051        0.00580012082789
C           -0.35144896951614        0.28447741258346       -0.12218040730893
C           -1.82419311697203        0.14701712137393       -0.25711351359616
N           -2.44350800739575        1.38888934021910       -0.66819955961849
H           -0.02991893133257       -1.76861699085034        1.78960142239229
H            0.64661086982545       -2.94351699549437        0.64262738125947
H           -1.01732701313937       -2.37187484026121        0.44177494584256
H            0.42262667439012       -1.30692679914249       -1.16727780195488
H            2.61045736616827       -1.53803658432811        0.09429280543182
H            2.01393386840844        2.69525174499297        0.29819996055597
H           -0.43912395152029        2.40774167785804        0.00985890303845
H           -2.07569909118349       -0.68359257523018       -0.92990742040797
H           -2.21444185701026       -0.12531524355235        0.73264340433263
H           -3.44343579057411        1.31366204252771       -0.55293211394716
H           -2.24352498793865        1.56418530777044       -1.64211910399264

          :  Hamiltonian                  GFN1-xTB          :
         :: total energy             -30.770186445666 Eh    ::
         :: gradient norm              0.000555101977 Eh/a0 ::
         :: HOMO-LUMO gap              0.711798307567 eV    ::
         :: SCC energy               -31.163004056673 Eh    ::
         :: -> Gsolv                  -0.086586917773 Eh    ::
         :: repulsion energy           0.402993877657 Eh    ::

    * Orbital Energies and Occupations

         #    Occupation            Energy/Eh            Energy/eV
      -------------------------------------------------------------
         1        2.0000           -0.9133213             -24.8527
       ...           ...                  ...                  ...
        15        2.0000           -0.5959561             -16.2168
        16        2.0000           -0.5911474             -16.0859
        17        2.0000           -0.5844390             -15.9034
        18        2.0000           -0.5770417             -15.7021
        19        2.0000           -0.5601210             -15.2417
        20        2.0000           -0.5543941             -15.0858
        21        2.0000           -0.5510284             -14.9942
        22        2.0000           -0.5474204             -14.8961
        23        2.0000           -0.5358612             -14.5815
        24        2.0000           -0.5261612             -14.3176
        25        2.0000           -0.5234231             -14.2431
        26        2.0000           -0.4974427             -13.5361
        27        2.0000           -0.4400185             -11.9735 (HOMO)
        28        0.0000           -0.4138604             -11.2617 (LUMO)
        29                         -0.3229600              -8.7882
        30                         -0.2391658              -6.5080
        31                         -0.1643798              -4.4730
        32                         -0.1516251              -4.1259
        33                         -0.1463847              -3.9833
        34                         -0.1382953              -3.7632
        35                         -0.1271047              -3.4587
        36                         -0.1180877              -3.2133
        37                         -0.1083841              -2.9493
        38                         -0.0989794              -2.6934
       ...                                ...                  ...
        62                          0.5419498              14.7472
      -------------------------------------------------------------
                  HL-Gap            0.0261581 Eh            0.7118 eV

Wiberg/Mayer (AO) data.
largest (>0.10) Wiberg bond orders for each atom

     #   Z sym  total        # sym  WBO       # sym  WBO       # sym  WBO
 ---------------------------------------------------------------------------
     1   6 C    3.971 --    11 H    0.982    13 H    0.982    12 H    0.981
                             2 C    0.926
     2   6 C    3.991 --     8 C    1.079     3 C    1.079     1 C    0.926
                            14 H    0.835
     3   6 C    3.971 --     4 C    1.557     2 C    1.079    15 H    0.959
     4   6 C    3.883 --     3 C    1.557     6 C    1.271     5 F    0.964
     5   9 F    1.105 --     4 C    0.964
     6   6 C    3.960 --     7 C    1.459     4 C    1.271    16 H    0.961
     7   6 C    3.984 --     6 C    1.459     8 C    1.430    17 H    0.954
     8   6 C    3.928 --     7 C    1.430     2 C    1.079     9 C    1.060
     9   6 C    3.982 --     8 C    1.060    10 N    1.013    18 H    0.935
                            19 H    0.910
    10   7 N    2.994 --     9 C    1.013    21 H    0.931    20 H    0.926
    11   1 H    0.995 --     1 C    0.982
    12   1 H    0.993 --     1 C    0.981
    13   1 H    0.995 --     1 C    0.982
    14   1 H    0.982 --     2 C    0.835
    15   1 H    0.986 --     3 C    0.959
    16   1 H    0.988 --     6 C    0.961
    17   1 H    1.006 --     7 C    0.954
    18   1 H    0.993 --     9 C    0.935
    19   1 H    0.996 --     9 C    0.910
    20   1 H    0.940 --    10 N    0.926
    21   1 H    0.945 --    10 N    0.931
 ---------------------------------------------------------------------------

           -------------------------------------------------
          | TOTAL ENERGY              -30.770186445666 Eh   |
          | GRADIENT NORM               0.000555101977 Eh/α |
          | HOMO-LUMO GAP               0.711798307567 eV   |
           -------------------------------------------------

 * finished run on 2023/06/20 at 15:14:12.099
