   * xtb version 6.5.1 (579679a) compiled by 'ehlert@majestix' on 2022-07-11
          program call               : /lustre/hpc/kemi/ree/PhD/git/ReactivityQM/dep/xtb-6.5.1/bin/xtb --gfn 1 /lustre/hpc/kemi/ree/PhD/git/ReactivityQM/calculations/R02oxygendeprot/reac01prodN13/conf17/R02oxygendeprot_reac01prodN13_conf17_gfn1.xyz --opt --vfukui --chrg 0 --uhf 0 --alpb DMSO

   ID    Z sym.   atoms
    1    6 C      1, 3, 5, 7-10, 12, 14, 17-19, 22, 24
    2    8 O      2, 4, 13, 20, 23, 25
    3    7 N      6, 11, 15, 16, 21
    4    1 H      26-42

      * Solvation model:               ALPB
        Solvent                        DMSO
        Solvent mass                       7.8130E+01 g/mol
          :  Hamiltonian                  GFN1-xTB          :
 * total energy  :   -82.9267664 Eh     change       -0.6049561E-10 Eh
 * total energy  :   -82.9355111 Eh     change       -0.8744660E-02 Eh
 * total energy  :   -82.9386801 Eh     change       -0.3169026E-02 Eh
 * total energy  :   -82.9392778 Eh     change       -0.5976423E-03 Eh
 * total energy  :   -82.9397961 Eh     change       -0.5183506E-03 Eh
 * total energy  :   -82.9400948 Eh     change       -0.2986573E-03 Eh
 * total energy  :   -82.9402875 Eh     change       -0.1927663E-03 Eh
 * total energy  :   -82.9403739 Eh     change       -0.8635842E-04 Eh
 * total energy  :   -82.9404139 Eh     change       -0.4000350E-04 Eh
 * total energy  :   -82.9404420 Eh     change       -0.2812395E-04 Eh
 * total energy  :   -82.9404652 Eh     change       -0.2313424E-04 Eh
 * total energy  :   -82.9404821 Eh     change       -0.1697384E-04 Eh
 * total energy  :   -82.9404969 Eh     change       -0.1477190E-04 Eh
 * total energy  :   -82.9405051 Eh     change       -0.8197920E-05 Eh
 * total energy  :   -82.9405145 Eh     change       -0.9348334E-05 Eh
 * total energy  :   -82.9405204 Eh     change       -0.5951122E-05 Eh
 * total energy  :   -82.9405259 Eh     change       -0.5495511E-05 Eh
 * total energy  :   -82.9405315 Eh     change       -0.5611133E-05 Eh
 * total energy  :   -82.9405352 Eh     change       -0.3704841E-05 Eh
   *** GEOMETRY OPTIMIZATION CONVERGED AFTER 19 ITERATIONS ***

 final structure:
================
42
 xtb: 6.5.1 (579679a)
C           -6.16696427046921        1.33697268115408       -0.56170934152695
O           -4.89339922041007        0.70250150461393       -0.43802197690129
C           -4.60797891988112       -0.23677768756868       -1.35437429452054
O           -5.37978153566846       -0.54008847828538       -2.23657599273018
C           -3.26223161933325       -0.82383288440571       -1.14111347848505
N           -2.56640632668758       -0.32959006495539       -0.09587942847792
C           -1.36996753941499       -0.76236394360299        0.17565607871643
C           -0.65039609253492       -0.23016606786558        1.39107811795007
C           -0.79769440035243       -1.27411736119637        2.51149103298604
C           -1.23917866937484        1.12124268085621        1.80799669145529
N            0.76530274093172       -0.05990030825412        1.04342152396995
C            1.69690502880944        0.32157414249951        1.94428176929743
O            1.52187382160417        0.47221599878727        3.14044368219407
C            3.02361087565643        0.55336405688813        1.31884655730004
N            4.11850176330494        0.97366431000133        1.97254555661770
N            5.07534594218623        1.09791818442605        1.12865276351747
C            4.60228923210780        0.74280990785506       -0.18289898789842
C            4.68557218857837        1.94688745900102       -1.12403352426660
C            5.36681749816805       -0.47087288220752       -0.71641664801209
O            3.23043119647583        0.39389075758242        0.03203871817862
N           -0.77300194544281       -1.74149970935675       -0.55411036173971
C           -1.35504243831994       -2.35277795756997       -1.65548425328286
O           -0.75566112263662       -3.22022117781118       -2.25738585512889
C           -2.74446306009584       -1.85507245678447       -2.00448018181725
O           -3.33575376291465       -2.34029611943435       -2.96480816850932
H           -6.96836090097858        0.59911224746625       -0.47020270776175
H           -6.24700157711347        1.83802493790901       -1.52997299293538
H           -6.23203379428427        2.06474618343185        0.24448806685215
H           -1.85472655486718       -1.49018199825761        2.66141334513829
H           -0.37792024281688       -0.89447414870270        3.44043735871494
H           -0.28136381943923       -2.19054330756405        2.23188014071513
H           -2.30470353821023        1.00526885382660        1.99991486829091
H           -1.09986535839034        1.84686963660425        1.00862106954344
H           -0.74594754293620        1.47975680004776        2.70917097893172
H            1.02018541866075       -0.04735811542261        0.06947764303494
H            4.28416411472939        1.67066966776007       -2.09574678943117
H            4.10493831904774        2.76858153794454       -0.71033431402280
H            5.72529282719478        2.24738915563945       -1.22673363240369
H            5.26280549571440       -1.29872616762947       -0.01838890284833
H            6.41708184067921       -0.21093768722655       -0.82324417025594
H            4.95724294022956       -0.75570060494559       -1.68236687346701
H            0.15148600847659       -2.05796157524583       -0.30853608699177

          :  Hamiltonian                  GFN1-xTB          :
         :: total energy             -82.940535221576 Eh    ::
         :: gradient norm              0.000754516291 Eh/a0 ::
         :: HOMO-LUMO gap              0.043453395280 eV    ::
         :: SCC energy               -83.707278856280 Eh    ::
         :: -> Gsolv                  -0.073675365982 Eh    ::
         :: repulsion energy           0.792241723133 Eh    ::

    * Orbital Energies and Occupations

         #    Occupation            Energy/Eh            Energy/eV
      -------------------------------------------------------------
         1        2.0000           -0.8816757             -23.9916
       ...           ...                  ...                  ...
        55        2.0000           -0.5128707             -13.9559
        56        2.0000           -0.5097069             -13.8698
        57        2.0000           -0.5078524             -13.8194
        58        2.0000           -0.5038945             -13.7117
        59        2.0000           -0.4920580             -13.3896
        60        2.0000           -0.4862023             -13.2302
        61        2.0000           -0.4822894             -13.1238
        62        2.0000           -0.4751242             -12.9288
        63        2.0000           -0.4681905             -12.7401
        64        2.0000           -0.4669158             -12.7054
        65        2.0000           -0.4605124             -12.5312
        66        2.0000           -0.4225484             -11.4981
        67        1.3971           -0.4072233             -11.0811 (HOMO)
        68        0.6029           -0.4056264             -11.0377 (LUMO)
        69                         -0.3219057              -8.7595
        70                         -0.3102313              -8.4418
        71                         -0.2850621              -7.7569
        72                         -0.2349327              -6.3928
        73                         -0.2223787              -6.0512
        74                         -0.1566833              -4.2636
        75                         -0.1428879              -3.8882
        76                         -0.1374248              -3.7395
        77                         -0.1345038              -3.6600
        78                         -0.1328335              -3.6146
       ...                                ...                  ...
       134                          0.7543837              20.5278
      -------------------------------------------------------------
                  HL-Gap            0.0015969 Eh            0.0435 eV

Wiberg/Mayer (AO) data.
largest (>0.10) Wiberg bond orders for each atom

     #   Z sym  total        # sym  WBO       # sym  WBO       # sym  WBO
 ---------------------------------------------------------------------------
     1   6 C    3.876 --    28 H    0.986    26 H    0.979    27 H    0.979
                             2 O    0.904
     2   8 O    2.176 --     3 C    1.089     1 C    0.904     4 O    0.130
     3   6 C    3.841 --     4 O    1.648     2 O    1.089     5 C    1.026
     4   8 O    1.890 --     3 C    1.648     2 O    0.130
     5   6 C    3.710 --     6 N    1.296    24 C    1.160     3 C    1.026
     6   7 N    2.986 --     7 C    1.477     5 C    1.296
     7   6 C    3.790 --     6 N    1.477    21 N    1.189     8 C    0.988
     8   6 C    3.924 --     7 C    0.988    10 C    0.985     9 C    0.967
                            11 N    0.920
     9   6 C    3.973 --    31 H    0.985    29 H    0.984    30 H    0.976
                             8 C    0.967
    10   6 C    3.983 --     8 C    0.985    33 H    0.985    34 H    0.982
                            32 H    0.982
    11   7 N    3.327 --    12 C    1.249     8 C    0.920    35 H    0.890
                            13 O    0.187
    12   6 C    3.908 --    13 O    1.585    11 N    1.249    14 C    0.992
    13   8 O    1.891 --    12 C    1.585    11 N    0.187
    14   6 C    3.624 --    15 N    1.315    20 O    1.174    12 C    0.992
    15   7 N    2.998 --    16 N    1.543    14 C    1.315
    16   7 N    2.687 --    15 N    1.543    17 C    1.024
    17   6 C    3.834 --    16 N    1.024    19 C    0.939    18 C    0.938
                            20 O    0.869
    18   6 C    3.938 --    37 H    0.982    38 H    0.982    36 H    0.980
                            17 C    0.938
    19   6 C    3.938 --    39 H    0.982    40 H    0.982    41 H    0.980
                            17 C    0.939
    20   8 O    2.198 --    14 C    1.174    17 C    0.869
    21   7 N    3.420 --     7 C    1.189    22 C    1.102    42 H    0.882
                            23 O    0.112
    22   6 C    3.837 --    23 O    1.658    21 N    1.102    24 C    0.947
    23   8 O    1.879 --    22 C    1.658    21 N    0.112
    24   6 C    3.866 --    25 O    1.620     5 C    1.160    22 C    0.947
    25   8 O    1.797 --    24 C    1.620
    26   1 H    1.007 --     1 C    0.979
    27   1 H    1.007 --     1 C    0.979
    28   1 H    1.012 --     1 C    0.986
    29   1 H    1.000 --     9 C    0.984
    30   1 H    1.007 --     9 C    0.976
    31   1 H    1.000 --     9 C    0.985
    32   1 H    1.010 --    10 C    0.982
    33   1 H    1.002 --    10 C    0.985
    34   1 H    1.005 --    10 C    0.982
    35   1 H    0.932 --    11 N    0.890
    36   1 H    0.996 --    18 C    0.980
    37   1 H    0.996 --    18 C    0.982
    38   1 H    0.997 --    18 C    0.982
    39   1 H    0.996 --    19 C    0.982
    40   1 H    0.997 --    19 C    0.982
    41   1 H    0.996 --    19 C    0.980
    42   1 H    0.927 --    21 N    0.882
 ---------------------------------------------------------------------------

           -------------------------------------------------
          | TOTAL ENERGY              -82.940535221576 Eh   |
          | GRADIENT NORM               0.000754516291 Eh/α |
          | HOMO-LUMO GAP               0.043453395280 eV   |
           -------------------------------------------------

 * finished run on 2023/06/21 at 17:29:03.550
