   * xtb version 6.5.1 (579679a) compiled by 'ehlert@majestix' on 2022-07-11
          program call               : /lustre/hpc/kemi/ree/PhD/git/ReactivityQM/dep/xtb-6.5.1/bin/xtb --gfn 1 /lustre/hpc/kemi/ree/PhD/git/ReactivityQM/calculations/R01/reac02prodN04/conf20/R01_reac02prodN04_conf20_gfn1.xyz --opt --vfukui --chrg 1 --uhf 0 --alpb DMSO

   ID    Z sym.   atoms
    1    6 C      1, 3, 5, 6, 8, 11-14, 17
    2    8 O      2, 4, 7, 9
    3    7 N      10, 15, 16
    4    1 H      18-33

      * Solvation model:               ALPB
        Solvent                        DMSO
        Solvent mass                       7.8130E+01 g/mol
          :  Hamiltonian                  GFN1-xTB          :
 * total energy  :   -57.8358190 Eh     change       -0.1407585E-10 Eh
 * total energy  :   -57.8521992 Eh     change       -0.1638018E-01 Eh
 * total energy  :   -57.8577197 Eh     change       -0.5520501E-02 Eh
 * total energy  :   -57.8585933 Eh     change       -0.8736251E-03 Eh
 * total energy  :   -57.8589167 Eh     change       -0.3233324E-03 Eh
 * total energy  :   -57.8590506 Eh     change       -0.1339542E-03 Eh
 * total energy  :   -57.8592073 Eh     change       -0.1567197E-03 Eh
 * total energy  :   -57.8593712 Eh     change       -0.1638518E-03 Eh
 * total energy  :   -57.8595153 Eh     change       -0.1440868E-03 Eh
 * total energy  :   -57.8596183 Eh     change       -0.1030062E-03 Eh
 * total energy  :   -57.8600436 Eh     change       -0.3191486E-04 Eh
 * total energy  :   -57.8600655 Eh     change       -0.2190118E-04 Eh
 * total energy  :   -57.8600732 Eh     change       -0.7734641E-05 Eh
 * total energy  :   -57.8600815 Eh     change       -0.8290325E-05 Eh
 * total energy  :   -57.8600950 Eh     change       -0.1349201E-04 Eh
 * total energy  :   -57.8601087 Eh     change       -0.1369311E-04 Eh
 * total energy  :   -57.8601225 Eh     change       -0.1381778E-04 Eh
 * total energy  :   -57.8601321 Eh     change       -0.9526484E-05 Eh
 * total energy  :   -57.8601364 Eh     change       -0.4342077E-05 Eh
   *** GEOMETRY OPTIMIZATION CONVERGED AFTER 27 ITERATIONS ***

 final structure:
================
33
 xtb: 6.5.1 (579679a)
C            4.23113277597813        1.46519399478175        0.59996652066091
O            2.90412517277624        0.95996847970657        0.35435665792944
C            2.81636764381280       -0.26653573186362       -0.11281442212683
O            3.78134055076010       -0.96942247491535       -0.33298720551313
C            1.42855931287607       -0.80113164335082       -0.26335902581522
C            1.26624864799963       -2.16436570858685       -0.24698584281829
O            2.25067436055934       -3.03638028969368       -0.25750983357396
C           -0.08272230155877       -2.74836551452134       -0.16576301915066
O           -0.36583337794218       -3.91857069194543       -0.17598116374337
N           -1.06977203020936       -1.77208948090996       -0.02768393029363
C           -0.91605623573144       -0.44260452725518       -0.11754250984892
C           -2.18135801096107        0.39757333020197       -0.00883234184056
C           -3.22020941569519       -0.29407578291577        0.89311090691597
C           -2.76646062188053        0.57985797203667       -1.41895137376595
N           -1.84878878505210        1.69234271916065        0.56156448975163
N            0.30255051044918        0.03559532696249       -0.30936903951057
C            0.51858511646258        1.44023980112604       -0.69045169675809
H            4.80930826283256        1.43843063106526       -0.32503158548733
H            4.10531245593612        2.48745521355050        0.94823495459668
H            4.71922975660021        0.85270501570930        1.35989396788476
H            3.13033235228053       -2.58222512345336       -0.31115592489776
H           -2.00110404112921       -2.14687697843255        0.09946255998865
H           -2.76515507835904       -0.60893550543791        1.83012420313345
H           -3.67784647823414       -1.15063086008169        0.40036810894615
H           -4.00576036487237        0.42615140181255        1.11399895931376
H           -2.96742636546690       -0.39142503197452       -1.86816114946747
H           -3.69942666418326        1.13535487021591       -1.34205567556674
H           -2.08225838222378        1.13195924550973       -2.06041166137629
H           -2.62749017113412        2.32232913733453        0.42633519660661
H           -1.69361116845095        1.59504608241026        1.55607115028607
H           -0.35898561343552        1.80804828533377       -1.20850162377423
H            1.37561529604835        1.48819397931472       -1.35621623554015
H            0.69088189114812        2.03719185910604        0.20148458485488

          :  Hamiltonian                  GFN1-xTB          :
         :: total energy             -57.860136406923 Eh    ::
         :: gradient norm              0.000604198692 Eh/a0 ::
         :: HOMO-LUMO gap              2.036650043431 eV    ::
         :: SCC energy               -58.438156803537 Eh    ::
         :: -> Gsolv                  -0.101643287931 Eh    ::
         :: repulsion energy           0.597725346734 Eh    ::

    * Orbital Energies and Occupations

         #    Occupation            Energy/Eh            Energy/eV
      -------------------------------------------------------------
         1        2.0000           -0.8882932             -24.1717
       ...           ...                  ...                  ...
        35        2.0000           -0.5580859             -15.1863
        36        2.0000           -0.5434175             -14.7871
        37        2.0000           -0.5388077             -14.6617
        38        2.0000           -0.5360787             -14.5874
        39        2.0000           -0.5312461             -14.4559
        40        2.0000           -0.5286563             -14.3855
        41        2.0000           -0.5279190             -14.3654
        42        2.0000           -0.5241966             -14.2641
        43        2.0000           -0.5214192             -14.1885
        44        2.0000           -0.5156120             -14.0305
        45        2.0000           -0.4962897             -13.5047
        46        2.0000           -0.4773787             -12.9901
        47        2.0000           -0.4409675             -11.9993 (HOMO)
        48                         -0.3661220              -9.9627 (LUMO)
        49                         -0.3512757              -9.5587
        50                         -0.2837870              -7.7222
        51                         -0.2180145              -5.9325
        52                         -0.1605617              -4.3691
        53                         -0.1542297              -4.1968
        54                         -0.1507928              -4.1033
        55                         -0.1445094              -3.9323
        56                         -0.1325359              -3.6065
        57                         -0.1094534              -2.9784
        58                         -0.1044140              -2.8413
       ...                                ...                  ...
       100                          0.7122939              19.3825
      -------------------------------------------------------------
                  HL-Gap            0.0748455 Eh            2.0367 eV

Wiberg/Mayer (AO) data.
largest (>0.10) Wiberg bond orders for each atom

     #   Z sym  total        # sym  WBO       # sym  WBO       # sym  WBO
 ---------------------------------------------------------------------------
     1   6 C    3.839 --    19 H    0.984    18 H    0.978    20 H    0.977
                             2 O    0.865
     2   8 O    2.236 --     3 C    1.157     1 C    0.865     4 O    0.135
     3   6 C    3.864 --     4 O    1.620     2 O    1.157     5 C    1.006
     4   8 O    1.974 --     3 C    1.620     2 O    0.135
     5   6 C    3.920 --     6 C    1.507    16 N    1.066     3 C    1.006
                             7 O    0.111
     6   6 C    3.927 --     5 C    1.507     7 O    1.181     8 C    1.024
     7   8 O    2.135 --     6 C    1.181    21 H    0.744     5 C    0.111
     8   6 C    3.899 --     9 O    1.683    10 N    1.067     6 C    1.024
     9   8 O    1.971 --     8 C    1.683    10 N    0.119
    10   7 N    3.483 --    11 C    1.272     8 C    1.067    22 H    0.865
                             9 O    0.119
    11   6 C    3.884 --    16 N    1.408    10 N    1.272    12 C    0.973
    12   6 C    3.954 --    15 N    0.996    13 C    0.981    11 C    0.973
                            14 C    0.967
    13   6 C    3.988 --    23 H    0.983    12 C    0.981    25 H    0.977
                            24 H    0.976
    14   6 C    3.986 --    26 H    0.984    28 H    0.978    27 H    0.977
                            12 C    0.967
    15   7 N    2.974 --    12 C    0.996    30 H    0.933    29 H    0.928
    16   7 N    3.579 --    11 C    1.408     5 C    1.066    17 C    0.901
    17   6 C    3.889 --    32 H    0.977    31 H    0.973    33 H    0.968
                            16 N    0.901
    18   1 H    1.002 --     1 C    0.978
    19   1 H    1.005 --     1 C    0.984
    20   1 H    1.002 --     1 C    0.977
    21   1 H    0.829 --     7 O    0.744
    22   1 H    0.919 --    10 N    0.865
    23   1 H    0.996 --    13 C    0.983
    24   1 H    0.996 --    13 C    0.976
    25   1 H    0.997 --    13 C    0.977
    26   1 H    0.998 --    14 C    0.984
    27   1 H    0.994 --    14 C    0.977
    28   1 H    0.999 --    14 C    0.978
    29   1 H    0.942 --    15 N    0.928
    30   1 H    0.946 --    15 N    0.933
    31   1 H    1.018 --    17 C    0.973
    32   1 H    1.000 --    17 C    0.977
    33   1 H    1.014 --    17 C    0.968
 ---------------------------------------------------------------------------

           -------------------------------------------------
          | TOTAL ENERGY              -57.860136406923 Eh   |
          | GRADIENT NORM               0.000604198692 Eh/α |
          | HOMO-LUMO GAP               2.036650043431 eV   |
           -------------------------------------------------

 * finished run on 2023/06/20 at 15:05:30.925
