   * xtb version 6.5.1 (579679a) compiled by 'ehlert@majestix' on 2022-07-11
          program call               : /lustre/hpc/kemi/ree/PhD/git/ReactivityQM/dep/xtb-6.5.1/bin/xtb --gfn 1 /lustre/hpc/kemi/ree/PhD/git/ReactivityQM/calculations/R02deprot/reac01prodE11/conf14/R02deprot_reac01prodE11_conf14_gfn1.xyz --opt --vfukui --chrg -2 --uhf 0 --alpb DMSO

   ID    Z sym.   atoms
    1    6 C      1, 3, 5, 7-10, 12, 14, 17-19, 22, 24
    2    8 O      2, 4, 13, 20, 23, 25
    3    7 N      6, 11, 15, 16, 21
    4    1 H      26-42

      * Solvation model:               ALPB
        Solvent                        DMSO
        Solvent mass                       7.8130E+01 g/mol
          :  Hamiltonian                  GFN1-xTB          :
 * total energy  :   -83.6339174 Eh     change       -0.4732215E-11 Eh
 * total energy  :   -83.6467680 Eh     change       -0.1285055E-01 Eh
 * total energy  :   -83.6508397 Eh     change       -0.4071741E-02 Eh
 * total energy  :   -83.6513085 Eh     change       -0.4688179E-03 Eh
 * total energy  :   -83.6514986 Eh     change       -0.1900845E-03 Eh
 * total energy  :   -83.6515625 Eh     change       -0.6386601E-04 Eh
 * total energy  :   -83.6516252 Eh     change       -0.6266290E-04 Eh
 * total energy  :   -83.6516832 Eh     change       -0.5800700E-04 Eh
 * total energy  :   -83.6517392 Eh     change       -0.5605259E-04 Eh
 * total energy  :   -83.6517905 Eh     change       -0.5123478E-04 Eh
 * total energy  :   -83.6532316 Eh     change       -0.2055763E-04 Eh
 * total energy  :   -83.6532382 Eh     change       -0.6517202E-05 Eh
 * total energy  :   -83.6532541 Eh     change       -0.1592473E-04 Eh
 * total energy  :   -83.6532672 Eh     change       -0.1309077E-04 Eh
 * total energy  :   -83.6532748 Eh     change       -0.7612349E-05 Eh
 * total energy  :   -83.6532824 Eh     change       -0.7579222E-05 Eh
 * total energy  :   -83.6532917 Eh     change       -0.9279735E-05 Eh
 * total energy  :   -83.6532992 Eh     change       -0.7582474E-05 Eh
 * total energy  :   -83.6533040 Eh     change       -0.4757072E-05 Eh
   *** GEOMETRY OPTIMIZATION CONVERGED AFTER 75 ITERATIONS ***

 final structure:
================
42
 xtb: 6.5.1 (579679a)
C           -7.30958633958670       -0.21423987742018        0.68764513771680
O           -6.02016028426398        0.38471020238350        0.81719627753719
C           -5.01290214861878       -0.24144230729685        0.16135997678353
O           -5.22105838861279       -1.24041558891107       -0.49719117874051
C           -3.69159961836480        0.39485346337163        0.33583667703111
N           -2.68470013137794       -0.27780199130119       -0.29870512109031
C           -1.46068656324189        0.19976483840755       -0.17855948272694
C           -0.37513412747126       -0.60766111059834       -0.89037439516628
C           -0.38088208873741       -2.03075085275069       -0.29840756233004
C           -0.71034463989758       -0.65948535694674       -2.39017110995743
N            0.90502474372536        0.05119754398652       -0.68656557458951
C            2.11306997738950       -0.55733427659296       -1.01595276484000
O            2.17724398372211       -1.49202427593873       -1.84276264506991
C            3.21581264957308        0.04492672509509       -0.35285027925971
N            3.13983760782431        1.02493011456521        0.53150913410622
N            4.31964162951509        1.34798766077778        0.98780371600599
C            5.29579159172851        0.46470212517282        0.33237660327868
C            6.31211415896295        1.30327469627533       -0.46324077133310
C            6.01575293092005       -0.39023916475864        1.39179235893455
O            4.55025999141162       -0.36584142542791       -0.54507945701296
N           -1.09604712932095        1.28029696991156        0.49883068121256
C           -2.03143657023195        2.02239923306225        1.14920513525940
O           -1.73455449192178        3.04755788600937        1.78854734581295
C           -3.41916989904775        1.53724385792141        1.05447509574897
O           -4.33744446407168        2.29142667578254        1.71403223365827
H           -8.00526162003462        0.40424647117273        1.24974050773290
H           -7.29745368905053       -1.22891210981217        1.09427300195249
H           -7.60642358909210       -0.25241770423300       -0.36364695721100
H           -0.08532792387518       -2.00194435582112        0.75055456429656
H            0.30420462816548       -2.67936621501353       -0.84280784706663
H           -1.38789900598872       -2.44134144940307       -0.36800356145518
H           -0.00125695657672       -1.29561675126071       -2.91863540035256
H           -1.71557265196237       -1.05867816418147       -2.52343737137202
H           -0.66984860362386        0.34377265061764       -2.81548663624277
H            0.92878577522313        0.66518175422703        0.12665363147636
H            7.01895091823515        0.65324191592875       -0.97583252491972
H            6.85419973538093        1.96139160479308        0.21247875668091
H            5.78472765107532        1.90678402454001       -1.20048919567957
H            6.72424165659019       -1.06564126371563        0.91554896750742
H            6.54654100046653        0.25699099909960        2.08679840975414
H            5.28119679684951       -0.97590483658513        1.94247159891779
H           -5.23264750179060        1.93173766487173        1.63907202502657

          :  Hamiltonian                  GFN1-xTB          :
         :: total energy             -83.653303992098 Eh    ::
         :: gradient norm              0.000465861265 Eh/a0 ::
         :: HOMO-LUMO gap              0.855508100184 eV    ::
         :: SCC energy               -84.384530802626 Eh    ::
         :: -> Gsolv                  -0.271523870308 Eh    ::
         :: repulsion energy           0.756477041388 Eh    ::

    * Orbital Energies and Occupations

         #    Occupation            Energy/Eh            Energy/eV
      -------------------------------------------------------------
         1        2.0000           -0.8164847             -22.2177
       ...           ...                  ...                  ...
        56        2.0000           -0.4468093             -12.1583
        57        2.0000           -0.4396958             -11.9647
        58        2.0000           -0.4243223             -11.5464
        59        2.0000           -0.4225264             -11.4975
        60        2.0000           -0.4109027             -11.1812
        61        2.0000           -0.4057100             -11.0399
        62        2.0000           -0.3918462             -10.6627
        63        2.0000           -0.3876439             -10.5483
        64        2.0000           -0.3784400             -10.2979
        65        2.0000           -0.3624720              -9.8634
        66        2.0000           -0.3616357              -9.8406
        67        2.0000           -0.3602528              -9.8030
        68        2.0000           -0.3044430              -8.2843 (HOMO)
        69        0.0000           -0.2730037              -7.4288 (LUMO)
        70                         -0.2272786              -6.1846
        71                         -0.2160918              -5.8802
        72                         -0.1837967              -5.0014
        73                         -0.1257989              -3.4232
        74                         -0.1158483              -3.1524
        75                         -0.1007002              -2.7402
        76                         -0.0986502              -2.6844
        77                         -0.0945273              -2.5722
        78                         -0.0904986              -2.4626
        79                         -0.0888645              -2.4181
       ...                                ...                  ...
       134                          0.7413194              20.1723
      -------------------------------------------------------------
                  HL-Gap            0.0314393 Eh            0.8555 eV

Wiberg/Mayer (AO) data.
largest (>0.10) Wiberg bond orders for each atom

     #   Z sym  total        # sym  WBO       # sym  WBO       # sym  WBO
 ---------------------------------------------------------------------------
     1   6 C    3.881 --    26 H    0.987    27 H    0.981    28 H    0.980
                             2 O    0.904
     2   8 O    2.181 --     3 C    1.052     1 C    0.904     4 O    0.118
     3   6 C    3.830 --     4 O    1.643     2 O    1.052     5 C    1.037
     4   8 O    1.905 --     3 C    1.643     2 O    0.118
     5   6 C    3.963 --    24 C    1.466     6 N    1.210     3 C    1.037
     6   7 N    2.993 --     7 C    1.442     5 C    1.210
     7   6 C    3.953 --     6 N    1.442    21 N    1.382     8 C    0.972
     8   6 C    3.955 --    10 C    0.985     9 C    0.979     7 C    0.972
                            11 N    0.955
     9   6 C    3.994 --    29 H    0.987    31 H    0.986    30 H    0.983
                             8 C    0.979
    10   6 C    3.995 --    34 H    0.987    33 H    0.987     8 C    0.985
                            32 H    0.982
    11   7 N    3.216 --    12 C    1.105     8 C    0.955    35 H    0.904
                            13 O    0.110
    12   6 C    3.926 --    13 O    1.452    14 C    1.198    11 N    1.105
    13   8 O    1.790 --    12 C    1.452    11 N    0.110
    14   6 C    3.847 --    15 N    1.419    12 C    1.198    20 O    0.929
                            16 N    0.170
    15   7 N    3.044 --    16 N    1.435    14 C    1.419
    16   7 N    2.857 --    15 N    1.435    17 C    0.984    14 C    0.170
    17   6 C    3.902 --    16 N    0.984    18 C    0.977    19 C    0.976
                            20 O    0.930
    18   6 C    3.994 --    37 H    0.988    36 H    0.987    38 H    0.986
                            17 C    0.977
    19   6 C    3.994 --    40 H    0.988    39 H    0.987    41 H    0.986
                            17 C    0.976
    20   8 O    2.051 --    17 C    0.930    14 C    0.929
    21   7 N    2.999 --     7 C    1.382    22 C    1.233    23 O    0.124
    22   6 C    3.931 --    23 O    1.489    21 N    1.233    24 C    1.074
    23   8 O    1.776 --    22 C    1.489    21 N    0.124
    24   6 C    3.900 --     5 C    1.466    22 C    1.074    25 O    1.054
    25   8 O    2.040 --    24 C    1.054    42 H    0.827
    26   1 H    1.012 --     1 C    0.987
    27   1 H    1.010 --     1 C    0.981
    28   1 H    1.011 --     1 C    0.980
    29   1 H    1.008 --     9 C    0.987
    30   1 H    1.019 --     9 C    0.983
    31   1 H    1.019 --     9 C    0.986
    32   1 H    1.024 --    10 C    0.982
    33   1 H    1.018 --    10 C    0.987
    34   1 H    1.011 --    10 C    0.987
    35   1 H    1.004 --    11 N    0.904
    36   1 H    1.009 --    18 C    0.987
    37   1 H    1.011 --    18 C    0.988
    38   1 H    1.017 --    18 C    0.986
    39   1 H    1.009 --    19 C    0.987
    40   1 H    1.011 --    19 C    0.988
    41   1 H    1.016 --    19 C    0.986
    42   1 H    0.878 --    25 O    0.827
 ---------------------------------------------------------------------------

           -------------------------------------------------
          | TOTAL ENERGY              -83.653303992098 Eh   |
          | GRADIENT NORM               0.000465861265 Eh/α |
          | HOMO-LUMO GAP               0.855508100184 eV   |
           -------------------------------------------------

 * finished run on 2023/06/20 at 17:55:27.525
