   * xtb version 6.5.1 (579679a) compiled by 'ehlert@majestix' on 2022-07-11
          program call               : /lustre/hpc/kemi/ree/PhD/git/ReactivityQM/dep/xtb-6.5.1/bin/xtb --gfn 1 /lustre/hpc/kemi/ree/PhD/git/ReactivityQM/calculations/RaltegravirCLI/reac02prodE06/conf08/RaltegravirCLI_reac02prodE06_conf08_gfn1.xyz --opt --vfukui --chrg -1 --uhf 0 --alpb DMSO

   ID    Z sym.   atoms
    1    6 C      1, 3-6, 9, 10, 13-18, 20-22, 24
    2    7 N      2, 7, 8, 12
    3    8 O      11, 23, 25
    4    9 F      19
    5    1 H      26-47

      * Solvation model:               ALPB
        Solvent                        DMSO
        Solvent mass                       7.8130E+01 g/mol
          :  Hamiltonian                  GFN1-xTB          :
 * total energy  :   -80.1742761 Eh     change       -0.7741079E-09 Eh
 * total energy  :   -80.1809899 Eh     change       -0.6713862E-02 Eh
 * total energy  :   -80.1827133 Eh     change       -0.1723357E-02 Eh
 * total energy  :   -80.1831104 Eh     change       -0.3971206E-03 Eh
 * total energy  :   -80.1835122 Eh     change       -0.4018199E-03 Eh
 * total energy  :   -80.1837825 Eh     change       -0.2702511E-03 Eh
 * total energy  :   -80.1840594 Eh     change       -0.2769212E-03 Eh
 * total energy  :   -80.1843383 Eh     change       -0.2788999E-03 Eh
 * total energy  :   -80.1846283 Eh     change       -0.2900486E-03 Eh
 * total energy  :   -80.1849245 Eh     change       -0.2961891E-03 Eh
 * total energy  :   -80.1878452 Eh     change       -0.3268788E-04 Eh
 * total energy  :   -80.1878652 Eh     change       -0.2000915E-04 Eh
 * total energy  :   -80.1878797 Eh     change       -0.1453366E-04 Eh
 * total energy  :   -80.1879030 Eh     change       -0.2332467E-04 Eh
 * total energy  :   -80.1879141 Eh     change       -0.1103505E-04 Eh
 * total energy  :   -80.1879351 Eh     change       -0.2103557E-04 Eh
 * total energy  :   -80.1879421 Eh     change       -0.7050960E-05 Eh
 * total energy  :   -80.1879500 Eh     change       -0.7867244E-05 Eh
 * total energy  :   -80.1879548 Eh     change       -0.4765572E-05 Eh
   *** GEOMETRY OPTIMIZATION CONVERGED AFTER 74 ITERATIONS ***

 final structure:
================
47
 xtb: 6.5.1 (579679a)
C           -4.14009676912561        1.54078314867582       -2.13813138638115
N           -2.94500547571852        0.99065027248374       -1.50415204436579
C           -2.97031946587037        0.20837768853434       -0.37071141265904
C           -4.27749643052198       -0.20363343276224        0.29994696375960
C           -4.85886909229380       -1.40741667870775       -0.45723524865885
C           -3.98964975309906       -0.61444722386254        1.75433726747384
N           -5.24732416515305        0.88886621720547        0.28400052441397
N           -1.89308783404339       -0.27736217551262        0.15108296979656
C           -0.64808145096646       -0.03957681927355       -0.37863942778571
C            0.45582969684177       -0.71498756043011        0.34316104236006
O            0.28774730942364       -1.22979058681036        1.45731109705804
N            1.64184610393955       -0.78499204504897       -0.30739377695081
C            2.82026047710026       -1.35084240303551        0.30515945247692
C            3.81774698569003       -0.25718223777104        0.88484593057987
C            3.01247242595207        0.64805590446104        1.84637326266578
C            4.89665952284505       -0.99315523441311        1.63968372656810
C            6.19505033155203       -1.04804778063696        1.21444150631846
C            6.59132618488402       -0.34859006011932        0.07493111663428
F            7.90847891729972       -0.41073296716867       -0.32559080888049
C            5.70350445391314        0.46572076999584       -0.63106699929915
C            4.39585870474743        0.55375076673853       -0.24653165999557
C           -0.55928392430365        0.77874723641363       -1.48711713840226
O            0.62235791496353        1.12991234343983       -2.07524821204860
C           -1.72766319077727        1.33730029059467       -2.09496240169087
O           -1.67205617075565        2.07183847164862       -3.09350437574944
H           -4.92232397414121        0.78944298321478       -2.19126981240311
H           -3.87429705997825        1.86031722183041       -3.14631400945176
H           -4.50663409798274        2.39659426025163       -1.57184546734898
H           -4.12673427023208       -2.21425497262343       -0.48855197656045
H           -5.12622996716754       -1.13793960603006       -1.47752130008011
H           -5.75354172861955       -1.76465256774886        0.05045039829074
H           -3.52590996254457        0.21157092310415        2.29247630616347
H           -3.31834911392392       -1.47257806449504        1.78246995065633
H           -4.92407003193834       -0.87614153755090        2.24736958058621
H           -6.15867712221908        0.52824977131647        0.52597172471117
H           -4.99926275719778        1.57734246887569        0.98284242786002
H            1.75874709043534       -0.32581268947484       -1.19566626652618
H            3.36368905382324       -1.93614812673983       -0.44206487546403
H            2.51070544953407       -2.01578174779993        1.11862277540386
H            2.25930827346449        1.21433622963466        1.29755963507925
H            2.51659089610078        0.05193081458013        2.61398430502998
H            3.68981716078221        1.35186667388991        2.32982045813752
H            4.59365496520903       -1.51659249430410        2.54105034967688
H            6.93359433539398       -1.61496811870846        1.77302950921706
H            6.06974601198957        1.04435156181440       -1.47361052524469
H            3.71069639743123        1.20325962948726       -0.78181485561185
H            0.40927414526316        1.71236248284226       -2.82684929937618

          :  Hamiltonian                  GFN1-xTB          :
         :: total energy             -80.187954772243 Eh    ::
         :: gradient norm              0.000520848282 Eh/a0 ::
         :: HOMO-LUMO gap              0.262269422646 eV    ::
         :: SCC energy               -81.044348647864 Eh    ::
         :: -> Gsolv                  -0.102580585434 Eh    ::
         :: repulsion energy           0.887054032552 Eh    ::

    * Orbital Energies and Occupations

         #    Occupation            Energy/Eh            Energy/eV
      -------------------------------------------------------------
         1        2.0000           -0.8011826             -21.8013
       ...           ...                  ...                  ...
        56        2.0000           -0.4559436             -12.4069
        57        2.0000           -0.4416001             -12.0166
        58        2.0000           -0.4407229             -11.9927
        59        2.0000           -0.4390793             -11.9480
        60        2.0000           -0.4307670             -11.7218
        61        2.0000           -0.4228164             -11.5054
        62        2.0000           -0.4161044             -11.3228
        63        2.0000           -0.4092879             -11.1373
        64        2.0000           -0.4044746             -11.0063
        65        2.0000           -0.4029539             -10.9649
        66        2.0000           -0.3950639             -10.7502
        67        2.0000           -0.3947500             -10.7417
        68        1.9875           -0.2977560              -8.1024 (HOMO)
        69        0.0125           -0.2881178              -7.8401 (LUMO)
        70                         -0.2501356              -6.8065
        71                         -0.2096981              -5.7062
        72                         -0.2000005              -5.4423
        73                         -0.1279281              -3.4811
        74                         -0.1260626              -3.4303
        75                         -0.1216470              -3.3102
        76                         -0.1159420              -3.1549
        77                         -0.1101421              -2.9971
        78                         -0.0930477              -2.5320
        79                         -0.0895377              -2.4364
       ...                                ...                  ...
       144                          0.7035924              19.1457
      -------------------------------------------------------------
                  HL-Gap            0.0096382 Eh            0.2623 eV

Wiberg/Mayer (AO) data.
largest (>0.10) Wiberg bond orders for each atom

     #   Z sym  total        # sym  WBO       # sym  WBO       # sym  WBO
 ---------------------------------------------------------------------------
     1   6 C    3.935 --    26 H    0.979    28 H    0.978    27 H    0.976
                             2 N    0.938
     2   7 N    3.426 --     3 C    1.152    24 C    1.087     1 C    0.938
                            25 O    0.113
     3   6 C    3.905 --     8 N    1.583     2 N    1.152     4 C    0.975
     4   6 C    3.966 --     6 C    0.990     5 C    0.984     7 N    0.982
                             3 C    0.975
     5   6 C    3.993 --    29 H    0.986     4 C    0.984    31 H    0.984
                            30 H    0.980
     6   6 C    3.995 --     4 C    0.990    34 H    0.987    32 H    0.985
                            33 H    0.983
     7   7 N    2.977 --     4 C    0.982    36 H    0.943    35 H    0.942
     8   7 N    3.024 --     3 C    1.583     9 C    1.178
     9   6 C    3.899 --    22 C    1.417     8 N    1.178    10 C    1.038
    10   6 C    3.899 --    11 O    1.506    12 N    1.235     9 C    1.038
    11   8 O    1.810 --    10 C    1.506    12 N    0.159
    12   7 N    3.359 --    10 C    1.235    13 C    0.966    37 H    0.900
                            11 O    0.159
    13   6 C    3.926 --    38 H    0.979    39 H    0.975    12 N    0.966
                            14 C    0.899
    14   6 C    3.983 --    21 C    1.023    16 C    1.021    15 C    0.977
                            13 C    0.899
    15   6 C    3.990 --    42 H    0.988    40 H    0.986    41 H    0.985
                            14 C    0.977
    16   6 C    3.855 --    17 C    1.589    14 C    1.021    43 H    0.976
    17   6 C    3.993 --    16 C    1.589    18 C    1.318    44 H    0.971
    18   6 C    3.653 --    17 C    1.318    20 C    1.308    19 F    0.858
    19   9 F    0.948 --    18 C    0.858
    20   6 C    3.993 --    21 C    1.600    18 C    1.308    45 H    0.971
    21   6 C    3.911 --    20 C    1.600    14 C    1.023    46 H    0.974
    22   6 C    3.855 --     9 C    1.417    24 C    1.161    23 O    1.035
    23   8 O    2.023 --    22 C    1.035    47 H    0.816
    24   6 C    3.870 --    25 O    1.485    22 C    1.161     2 N    1.087
    25   8 O    1.817 --    24 C    1.485     2 N    0.113
    26   1 H    1.022 --     1 C    0.979
    27   1 H    1.013 --     1 C    0.976
    28   1 H    1.019 --     1 C    0.978
    29   1 H    1.005 --     5 C    0.986
    30   1 H    1.006 --     5 C    0.980
    31   1 H    1.001 --     5 C    0.984
    32   1 H    1.009 --     6 C    0.985
    33   1 H    1.018 --     6 C    0.983
    34   1 H    1.005 --     6 C    0.987
    35   1 H    0.957 --     7 N    0.942
    36   1 H    0.959 --     7 N    0.943
    37   1 H    0.960 --    12 N    0.900
    38   1 H    1.024 --    13 C    0.979
    39   1 H    1.021 --    13 C    0.975
    40   1 H    1.010 --    15 C    0.986
    41   1 H    1.013 --    15 C    0.985
    42   1 H    1.020 --    15 C    0.988
    43   1 H    1.003 --    16 C    0.976
    44   1 H    1.006 --    17 C    0.971
    45   1 H    1.006 --    20 C    0.971
    46   1 H    1.004 --    21 C    0.974
    47   1 H    0.863 --    23 O    0.816
 ---------------------------------------------------------------------------

           -------------------------------------------------
          | TOTAL ENERGY              -80.187954772243 Eh   |
          | GRADIENT NORM               0.000520848282 Eh/α |
          | HOMO-LUMO GAP               0.262269422646 eV   |
           -------------------------------------------------

 * finished run on 2023/06/20 at 15:03:15.136
