   * xtb version 6.5.1 (579679a) compiled by 'ehlert@majestix' on 2022-07-11
          program call               : /lustre/hpc/kemi/ree/PhD/git/ReactivityQM/dep/xtb-6.5.1/bin/xtb --gfn 1 /lustre/hpc/kemi/ree/PhD/git/ReactivityQM/calculations/R03/reac02prodE03/conf14/R03_reac02prodE03_conf14_gfn1.xyz --opt --vfukui --chrg -1 --uhf 0 --alpb DMSO

   ID    Z sym.   atoms
    1    6 C      1, 3, 5, 6, 8-11, 13, 15, 18, 19, 22, 23, 25
    2    8 O      2, 4, 14, 20, 24, 26
    3    7 N      7, 12, 16, 17, 21
    4    1 H      27-46

      * Solvation model:               ALPB
        Solvent                        DMSO
        Solvent mass                       7.8130E+01 g/mol
          :  Hamiltonian                  GFN1-xTB          :
 * total energy  :   -86.9888961 Eh     change       -0.2354298E-08 Eh
 * total energy  :   -87.0048326 Eh     change       -0.1593646E-01 Eh
 * total energy  :   -87.0112895 Eh     change       -0.6456853E-02 Eh
 * total energy  :   -87.0127911 Eh     change       -0.1501667E-02 Eh
 * total energy  :   -87.0134941 Eh     change       -0.7029828E-03 Eh
 * total energy  :   -87.0137971 Eh     change       -0.3029998E-03 Eh
 * total energy  :   -87.0140879 Eh     change       -0.2908150E-03 Eh
 * total energy  :   -87.0143883 Eh     change       -0.3003692E-03 Eh
 * total energy  :   -87.0146946 Eh     change       -0.3063235E-03 Eh
 * total energy  :   -87.0150421 Eh     change       -0.3475046E-03 Eh
 * total energy  :   -87.0209540 Eh     change       -0.1195726E-04 Eh
 * total energy  :   -87.0209749 Eh     change       -0.2092892E-04 Eh
 * total energy  :   -87.0209856 Eh     change       -0.1063691E-04 Eh
 * total energy  :   -87.0210150 Eh     change       -0.2939786E-04 Eh
 * total energy  :   -87.0210228 Eh     change       -0.7818839E-05 Eh
 * total energy  :   -87.0210377 Eh     change       -0.1488125E-04 Eh
 * total energy  :   -87.0210203 Eh     change        0.1738872E-04 Eh
 * total energy  :   -87.0210386 Eh     change       -0.1835090E-04 Eh
 * total energy  :   -87.0210428 Eh     change       -0.4199564E-05 Eh
   *** GEOMETRY OPTIMIZATION CONVERGED AFTER 76 ITERATIONS ***

 final structure:
================
46
 xtb: 6.5.1 (579679a)
C           -5.39743871701406       -2.65155632718980        0.12610330867292
O           -5.00359051509481       -1.32608757418713       -0.21261706143950
C           -3.78404755870549       -0.91309841888097        0.33685631564841
O           -3.73852948550911       -0.94200339663751        1.72809128377275
C           -4.08764280549803        0.27656275927546        2.37955610837676
C           -2.75353981818009       -0.43243630745266       -0.42361096477278
N           -1.65332720388205        0.06361159555680        0.28757036476882
C           -0.62237906569959        0.54321076812718       -0.31943752994242
C            0.48136576987561        1.07600693890721        0.60018733396311
C            0.19275320668581        0.65225213755622        2.04841458771398
C            0.53166905289370        2.60881064972143        0.52630585221199
N            1.75608604138942        0.46711650381928        0.19580086389524
C            2.95624975153655        0.78038664335361        0.73351268053198
O            3.17469990387744        1.69191337604064        1.51976568144993
C            4.01034126076188       -0.12215750559043        0.21698399201947
N            3.83128025654595       -1.11931777151422       -0.60388662001819
N            5.05770477399546       -1.67952901743626       -0.81472409608291
C            5.90460060484959       -0.99265341452746       -0.11296997390045
C            7.36619330597918       -1.20063065636044       -0.00591787719330
O            5.30966198991539        0.00399311802846        0.56305834448776
N           -0.51267024300550        0.59469471453950       -1.67473501715615
C            0.58402056612130        1.19039004318157       -2.43025888403854
C           -1.59415737899795        0.13432791143138       -2.52851612382640
O           -1.42126670631838        0.24584681775501       -3.76725525974353
C           -2.68956755490211       -0.38026854052324       -1.85280373192973
O           -3.75122308667992       -0.86168839615967       -2.63430370521050
H           -4.70794508529758       -3.39047793635107       -0.30140607326318
H           -6.39514737464329       -2.80684439289686       -0.28622840370647
H           -5.43287379641527       -2.78186549919401        1.21329792287945
H           -4.05653260259707        0.08773725893562        3.45409849657395
H           -3.36971659615802        1.06808018429471        2.12993478743152
H           -5.09592330603118        0.60395710824038        2.09873659860984
H            0.99105265201206        1.00151768617199        2.70098194235607
H           -0.75083221968163        1.08482523066787        2.37608830321048
H            0.12158122936275       -0.43247961949220        2.11567062929602
H            0.87024848817203        2.95462149022824       -0.44744274824396
H           -0.46956463917796        2.99886211192993        0.70616424995901
H            1.20112747491329        3.00633707420368        1.28668811110301
H            1.70577755918128       -0.39707248125109       -0.32651794913966
H            7.65484279919860       -2.07285916860501       -0.58705958548534
H            7.64759800788411       -1.34712008627979        1.03646857080618
H            7.89643290751012       -0.32410686770465       -0.37790987475729
H            0.23953728245213        2.10780716786541       -2.91528747174392
H            1.43289048229854        1.41577068518159       -1.79478135985098
H            0.90102568265526        0.48945324524010       -3.20657921886278
H           -4.53082429058321       -0.97383984201087       -2.06780079943746

          :  Hamiltonian                  GFN1-xTB          :
         :: total energy             -87.021042825295 Eh    ::
         :: gradient norm              0.000499980528 Eh/a0 ::
         :: HOMO-LUMO gap              0.158553219741 eV    ::
         :: SCC energy               -87.813860610229 Eh    ::
         :: -> Gsolv                  -0.113592643035 Eh    ::
         :: repulsion energy           0.821888532217 Eh    ::

    * Orbital Energies and Occupations

         #    Occupation            Energy/Eh            Energy/eV
      -------------------------------------------------------------
         1        2.0000           -0.8523202             -23.1928
       ...           ...                  ...                  ...
        59        2.0000           -0.4718771             -12.8404
        60        2.0000           -0.4686327             -12.7521
        61        2.0000           -0.4516703             -12.2906
        62        2.0000           -0.4486945             -12.2096
        63        2.0000           -0.4425186             -12.0415
        64        2.0000           -0.4400701             -11.9749
        65        2.0000           -0.4363655             -11.8741
        66        2.0000           -0.4302515             -11.7077
        67        2.0000           -0.4195621             -11.4169
        68        2.0000           -0.3938475             -10.7171
        69        2.0000           -0.3885142             -10.5720
        70        2.0000           -0.3703696             -10.0783
        71        1.9110           -0.3054287              -8.3111 (HOMO)
        72        0.0890           -0.2996020              -8.1526 (LUMO)
        73                         -0.2481142              -6.7515
        74                         -0.2304815              -6.2717
        75                         -0.1943812              -5.2894
        76                         -0.1859597              -5.0602
        77                         -0.1389768              -3.7817
        78                         -0.1208501              -3.2885
        79                         -0.1180210              -3.2115
        80                         -0.1160991              -3.1592
        81                         -0.1086685              -2.9570
        82                         -0.1013780              -2.7586
       ...                                ...                  ...
       144                          0.7243287              19.7100
      -------------------------------------------------------------
                  HL-Gap            0.0058267 Eh            0.1586 eV

Wiberg/Mayer (AO) data.
largest (>0.10) Wiberg bond orders for each atom

     #   Z sym  total        # sym  WBO       # sym  WBO       # sym  WBO
 ---------------------------------------------------------------------------
     1   6 C    3.909 --    28 H    0.986    27 H    0.983    29 H    0.983
                             2 O    0.930
     2   8 O    2.047 --     3 C    0.934     1 C    0.930
     3   6 C    3.707 --     6 C    1.514     4 O    0.949     2 O    0.934
     4   8 O    2.013 --     3 C    0.949     5 C    0.930
     5   6 C    3.913 --    30 H    0.986    32 H    0.983    31 H    0.981
                             4 O    0.930
     6   6 C    3.952 --     3 C    1.514    25 C    1.172     7 N    1.080
     7   7 N    3.006 --     8 C    1.601     6 C    1.080    21 N    0.136
     8   6 C    3.946 --     7 N    1.601    21 N    1.197     9 C    0.966
     9   6 C    3.929 --    10 C    0.991    11 C    0.988     8 C    0.966
                            12 N    0.914
    10   6 C    3.993 --     9 C    0.991    35 H    0.985    33 H    0.984
                            34 H    0.983
    11   6 C    3.992 --     9 C    0.988    37 H    0.986    36 H    0.981
                            38 H    0.980
    12   7 N    3.334 --    13 C    1.241     9 C    0.914    39 H    0.901
                            14 O    0.170
    13   6 C    3.890 --    14 O    1.567    12 N    1.241    15 C    1.003
    14   8 O    1.871 --    13 C    1.567    12 N    0.170
    15   6 C    3.837 --    16 N    1.582    20 O    1.051    13 C    1.003
    16   7 N    2.970 --    15 C    1.582    17 N    1.193
    17   7 N    2.980 --    18 C    1.614    16 N    1.193
    18   6 C    3.863 --    17 N    1.614    20 O    1.077    19 C    1.030
    19   6 C    3.988 --    18 C    1.030    40 H    0.983    41 H    0.966
                            42 H    0.964
    20   8 O    2.305 --    18 C    1.077    15 C    1.051
    21   7 N    3.399 --     8 C    1.197    22 C    0.953    23 C    0.939
                             7 N    0.136
    22   6 C    3.954 --    43 H    0.980    45 H    0.979    44 H    0.979
                            21 N    0.953
    23   6 C    3.897 --    24 O    1.411    25 C    1.378    21 N    0.939
    24   8 O    1.733 --    23 C    1.411    25 C    0.129
    25   6 C    3.813 --    23 C    1.378     6 C    1.172    26 O    0.969
                            24 O    0.129
    26   8 O    1.931 --    25 C    0.969    46 H    0.847
    27   1 H    1.015 --     1 C    0.983
    28   1 H    1.018 --     1 C    0.986
    29   1 H    1.020 --     1 C    0.983
    30   1 H    1.019 --     5 C    0.986
    31   1 H    1.027 --     5 C    0.981
    32   1 H    1.014 --     5 C    0.983
    33   1 H    1.008 --    10 C    0.984
    34   1 H    1.020 --    10 C    0.983
    35   1 H    1.015 --    10 C    0.985
    36   1 H    1.005 --    11 C    0.981
    37   1 H    1.005 --    11 C    0.986
    38   1 H    1.015 --    11 C    0.980
    39   1 H    0.962 --    12 N    0.901
    40   1 H    1.000 --    19 C    0.983
    41   1 H    0.998 --    19 C    0.966
    42   1 H    0.997 --    19 C    0.964
    43   1 H    1.012 --    22 C    0.980
    44   1 H    1.014 --    22 C    0.979
    45   1 H    1.020 --    22 C    0.979
    46   1 H    0.898 --    26 O    0.847
 ---------------------------------------------------------------------------

           -------------------------------------------------
          | TOTAL ENERGY              -87.021042825295 Eh   |
          | GRADIENT NORM               0.000499980528 Eh/α |
          | HOMO-LUMO GAP               0.158553219741 eV   |
           -------------------------------------------------

 * finished run on 2023/06/20 at 15:17:43.161
