   * xtb version 6.5.1 (579679a) compiled by 'ehlert@majestix' on 2022-07-11
          program call               : /lustre/hpc/kemi/ree/PhD/git/ReactivityQM/dep/xtb-6.5.1/bin/xtb --gfn 1 /lustre/hpc/kemi/ree/PhD/git/ReactivityQM/calculations/R03/reac02prodE04/conf12/R03_reac02prodE04_conf12_gfn1.xyz --opt --vfukui --chrg -1 --uhf 0 --alpb DMSO

   ID    Z sym.   atoms
    1    6 C      1, 3, 5, 6, 8-11, 13, 15, 18, 19, 22, 23, 25
    2    8 O      2, 4, 14, 20, 24, 26
    3    7 N      7, 12, 16, 17, 21
    4    1 H      27-46

      * Solvation model:               ALPB
        Solvent                        DMSO
        Solvent mass                       7.8130E+01 g/mol
          :  Hamiltonian                  GFN1-xTB          :
 * total energy  :   -87.0181634 Eh     change       -0.4089841E-08 Eh
 * total energy  :   -87.0331169 Eh     change       -0.1495351E-01 Eh
 * total energy  :   -87.0394223 Eh     change       -0.6305456E-02 Eh
 * total energy  :   -87.0406095 Eh     change       -0.1187210E-02 Eh
 * total energy  :   -87.0414016 Eh     change       -0.7920926E-03 Eh
 * total energy  :   -87.0417882 Eh     change       -0.3865457E-03 Eh
 * total energy  :   -87.0421076 Eh     change       -0.3194240E-03 Eh
 * total energy  :   -87.0423938 Eh     change       -0.2862449E-03 Eh
 * total energy  :   -87.0425981 Eh     change       -0.2042436E-03 Eh
 * total energy  :   -87.0427612 Eh     change       -0.1630827E-03 Eh
 * total energy  :   -87.0504581 Eh     change       -0.2439085E-04 Eh
 * total energy  :   -87.0504825 Eh     change       -0.2435618E-04 Eh
 * total energy  :   -87.0505231 Eh     change       -0.4061871E-04 Eh
 * total energy  :   -87.0505398 Eh     change       -0.1673788E-04 Eh
 * total energy  :   -87.0505579 Eh     change       -0.1808738E-04 Eh
 * total energy  :   -87.0505679 Eh     change       -0.1001282E-04 Eh
 * total energy  :   -87.0505794 Eh     change       -0.1146524E-04 Eh
 * total energy  :   -87.0505844 Eh     change       -0.5061569E-05 Eh
 * total energy  :   -87.0505894 Eh     change       -0.4948269E-05 Eh
   *** GEOMETRY OPTIMIZATION CONVERGED AFTER 129 ITERATIONS ***

 final structure:
================
46
 xtb: 6.5.1 (579679a)
C           -4.73068137933431       -0.63577802459376        2.10940750905834
O           -3.68463173823146       -0.42665028961995        1.16288435488183
C           -4.06592126168448       -0.28047135460335       -0.11804162940464
O           -5.23477732412736       -0.32256619853760       -0.45068360027384
C           -2.88172396743694       -0.19069242948917       -1.09641190817835
C           -3.33935914987564        0.54952871941858       -2.36301219429015
N           -1.78899015441586        0.54661506066607       -0.48259586441385
C           -0.81902413042795       -0.06443804705713        0.10136070358589
C            0.19676987493628        0.86784515516639        0.77888647280774
C            0.16336336112295        0.70827005820690        2.30506272484219
C           -0.12891220210183        2.32643059467480        0.42202340157865
N            1.52685610862927        0.55560887187934        0.23416987085584
C            2.66828480703153        1.12678317853070        0.66354921918192
O            2.78918993823314        1.84446825084184        1.64379424968787
C            3.80631998372119        0.75148098666243       -0.21860155041082
N            3.73977624181741       -0.01762333430006       -1.26456878639047
N            4.99614519133683       -0.07474451257012       -1.79204964635696
C            5.74765020345015        0.66468496990725       -1.03604990318118
C            7.19392478210604        0.93411804447264       -1.19380862914499
O            5.05705009314805        1.21366359962839       -0.02487191271707
N           -0.64622036386707       -1.41165375552248        0.11857714997565
C            0.33024633331702       -2.11964947115417        0.93282025764686
C           -1.45875136886135       -2.25555380689181       -0.77026148624343
O           -1.10598824575799       -3.45969333817593       -0.93978933473373
C           -2.49420626913662       -1.61425147666588       -1.36999084655015
O           -3.32718208874688       -2.32162819586038       -2.27169543647213
H           -5.30785771105613       -1.52893886556258        1.85306902671716
H           -5.40185424606540        0.22751817148991        2.13033459186674
H           -4.25983550384183       -0.76222911230579        3.08254650605337
H           -3.61861891377851        1.57344417347769       -2.11715144000022
H           -4.19664758865917        0.04040713163647       -2.80223102370291
H           -2.52586374580842        0.57002698826461       -3.08666849924250
H            0.70002174315301       -0.17985659407843        2.62781122573362
H            0.61991461183441        1.57166179755470        2.78605736776648
H           -0.87354177536056        0.63454941859622        2.63164557968452
H            0.60341262724112        2.99114358096433        0.87731149917180
H           -0.11414636559650        2.46344375459177       -0.65817010159581
H           -1.12070692282406        2.57974901613518        0.79295216242849
H            1.55838470447548        0.08883413718322       -0.66240136695305
H            7.73818392593515        0.59006331569387       -0.31461450295937
H            7.36462449783921        2.00541223518144       -1.29746142598969
H            7.56563530293165        0.41941633717016       -2.07623029388362
H           -0.02763601597165       -2.22106570215728        1.96129444001282
H            1.29618523936622       -1.61776798979541        0.93527411979301
H            0.45962082025211       -3.11944817490829        0.51055618248985
H           -2.96848095891439       -3.22046787414928       -2.31826823273560

          :  Hamiltonian                  GFN1-xTB          :
         :: total energy             -87.050589394917 Eh    ::
         :: gradient norm              0.000395425131 Eh/a0 ::
         :: HOMO-LUMO gap              0.234925005397 eV    ::
         :: SCC energy               -87.848913894501 Eh    ::
         :: -> Gsolv                  -0.113926925626 Eh    ::
         :: repulsion energy           0.828505732717 Eh    ::

    * Orbital Energies and Occupations

         #    Occupation            Energy/Eh            Energy/eV
      -------------------------------------------------------------
         1        2.0000           -0.8573247             -23.3290
       ...           ...                  ...                  ...
        59        2.0000           -0.4758485             -12.9485
        60        2.0000           -0.4695749             -12.7778
        61        2.0000           -0.4664032             -12.6915
        62        2.0000           -0.4588215             -12.4852
        63        2.0000           -0.4542332             -12.3603
        64        2.0000           -0.4523991             -12.3104
        65        2.0000           -0.4435678             -12.0701
        66        2.0000           -0.4376969             -11.9103
        67        2.0000           -0.4334895             -11.7958
        68        2.0000           -0.3936511             -10.7118
        69        2.0000           -0.3842846             -10.4569
        70        2.0000           -0.3755645             -10.2196
        71        1.9790           -0.3108830              -8.4596 (HOMO)
        72        0.0210           -0.3022496              -8.2246 (LUMO)
        73                         -0.2516128              -6.8467
        74                         -0.2394706              -6.5163
        75                         -0.2203605              -5.9963
        76                         -0.1902319              -5.1765
        77                         -0.1402670              -3.8169
        78                         -0.1331007              -3.6219
        79                         -0.1294893              -3.5236
        80                         -0.1183465              -3.2204
        81                         -0.1078473              -2.9347
        82                         -0.1028127              -2.7977
       ...                                ...                  ...
       144                          0.7294706              19.8499
      -------------------------------------------------------------
                  HL-Gap            0.0086333 Eh            0.2349 eV

Wiberg/Mayer (AO) data.
largest (>0.10) Wiberg bond orders for each atom

     #   Z sym  total        # sym  WBO       # sym  WBO       # sym  WBO
 ---------------------------------------------------------------------------
     1   6 C    3.889 --    29 H    0.987    28 H    0.981    27 H    0.981
                             2 O    0.911
     2   8 O    2.178 --     3 C    1.086     1 C    0.911     4 O    0.120
     3   6 C    3.805 --     4 O    1.644     2 O    1.086     5 C    0.916
     4   8 O    1.906 --     3 C    1.644     2 O    0.120
     5   6 C    3.966 --     6 C    0.984     7 N    0.974    25 C    0.961
                             3 C    0.916
     6   6 C    3.996 --    30 H    0.988    32 H    0.988    31 H    0.985
                             5 C    0.984
     7   7 N    2.973 --     8 C    1.639     5 C    0.974    21 N    0.178
     8   6 C    3.951 --     7 N    1.639    21 N    1.210     9 C    0.961
     9   6 C    3.926 --    11 C    0.992    10 C    0.990     8 C    0.961
                            12 N    0.911
    10   6 C    3.993 --     9 C    0.990    35 H    0.986    33 H    0.981
                            34 H    0.981
    11   6 C    3.994 --     9 C    0.992    37 H    0.985    38 H    0.984
                            36 H    0.984
    12   7 N    3.358 --    13 C    1.262     9 C    0.911    39 H    0.899
                            14 O    0.178
    13   6 C    3.913 --    14 O    1.580    12 N    1.262    15 C    0.988
    14   8 O    1.893 --    13 C    1.580    12 N    0.178
    15   6 C    3.863 --    16 N    1.607    20 O    1.060    13 C    0.988
    16   7 N    3.004 --    15 C    1.607    17 N    1.194
    17   7 N    2.980 --    18 C    1.611    16 N    1.194
    18   6 C    3.870 --    17 N    1.611    20 O    1.080    19 C    1.030
    19   6 C    3.987 --    18 C    1.030    42 H    0.983    41 H    0.965
                            40 H    0.964
    20   8 O    2.322 --    18 C    1.080    15 C    1.060
    21   7 N    3.374 --     8 C    1.210    22 C    0.956    23 C    0.891
                             7 N    0.178
    22   6 C    3.955 --    43 H    0.981    44 H    0.980    45 H    0.971
                            21 N    0.956
    23   6 C    3.913 --    25 C    1.524    24 O    1.354    21 N    0.891
    24   8 O    1.721 --    23 C    1.354    25 C    0.168
    25   6 C    3.785 --    23 C    1.524     5 C    0.961    26 O    0.947
                            24 O    0.168
    26   8 O    1.916 --    25 C    0.947    46 H    0.856
    27   1 H    1.011 --     1 C    0.981
    28   1 H    1.011 --     1 C    0.981
    29   1 H    1.014 --     1 C    0.987
    30   1 H    1.010 --     6 C    0.988
    31   1 H    1.016 --     6 C    0.985
    32   1 H    1.012 --     6 C    0.988
    33   1 H    1.007 --    10 C    0.981
    34   1 H    1.015 --    10 C    0.981
    35   1 H    1.005 --    10 C    0.986
    36   1 H    1.008 --    11 C    0.984
    37   1 H    1.017 --    11 C    0.985
    38   1 H    1.018 --    11 C    0.984
    39   1 H    0.960 --    12 N    0.899
    40   1 H    0.997 --    19 C    0.964
    41   1 H    0.997 --    19 C    0.965
    42   1 H    0.999 --    19 C    0.983
    43   1 H    1.011 --    22 C    0.981
    44   1 H    1.013 --    22 C    0.980
    45   1 H    1.023 --    22 C    0.971
    46   1 H    0.892 --    26 O    0.856
 ---------------------------------------------------------------------------

           -------------------------------------------------
          | TOTAL ENERGY              -87.050589394917 Eh   |
          | GRADIENT NORM               0.000395425131 Eh/α |
          | HOMO-LUMO GAP               0.234925005397 eV   |
           -------------------------------------------------

 * finished run on 2023/06/20 at 15:18:04.305
