   * xtb version 6.5.1 (579679a) compiled by 'ehlert@majestix' on 2022-07-11
          program call               : /lustre/hpc/kemi/ree/PhD/git/ReactivityQM/dep/xtb-6.5.1/bin/xtb --gfn 1 /lustre/hpc/kemi/ree/PhD/git/ReactivityQM/calculations/RaltegravirCLI/reac01prodE04/conf05/RaltegravirCLI_reac01prodE04_conf05_gfn1.xyz --opt --vfukui --chrg -1 --uhf 0 --alpb DMSO

   ID    Z sym.   atoms
    1    6 C      1, 2, 5-7
    2    7 N      3, 4
    3    8 O      8, 10
    4   17 Cl     9
    5    1 H      11-16

      * Solvation model:               ALPB
        Solvent                        DMSO
        Solvent mass                       7.8130E+01 g/mol
          :  Hamiltonian                  GFN1-xTB          :
 * total energy  :   -34.1202885 Eh     change       -0.9599432E-11 Eh
 * total energy  :   -34.1277894 Eh     change       -0.7500924E-02 Eh
 * total energy  :   -34.1318384 Eh     change       -0.4049022E-02 Eh
 * total energy  :   -34.1329791 Eh     change       -0.1140747E-02 Eh
 * total energy  :   -34.1334813 Eh     change       -0.5021713E-03 Eh
 * total energy  :   -34.1336798 Eh     change       -0.1984917E-03 Eh
 * total energy  :   -34.1338345 Eh     change       -0.1546938E-03 Eh
 * total energy  :   -34.1340763 Eh     change       -0.2418336E-03 Eh
 * total energy  :   -34.1343365 Eh     change       -0.2601221E-03 Eh
 * total energy  :   -34.1351513 Eh     change       -0.8148238E-03 Eh
 * total energy  :   -34.1502624 Eh     change       -0.6252955E-04 Eh
 * total energy  :   -34.1503160 Eh     change       -0.5357144E-04 Eh
 * total energy  :   -34.1503608 Eh     change       -0.4483177E-04 Eh
 * total energy  :   -34.1503897 Eh     change       -0.2887628E-04 Eh
 * total energy  :   -34.1504048 Eh     change       -0.1512614E-04 Eh
 * total energy  :   -34.1504149 Eh     change       -0.1011239E-04 Eh
 * total energy  :   -34.1504227 Eh     change       -0.7751565E-05 Eh
 * total energy  :   -34.1504279 Eh     change       -0.5217360E-05 Eh
 * total energy  :   -34.1504305 Eh     change       -0.2566641E-05 Eh
   *** GEOMETRY OPTIMIZATION CONVERGED AFTER 40 ITERATIONS ***

 final structure:
================
16
 xtb: 6.5.1 (579679a)
C            2.69342232579005       -0.54835780183552       -0.10362041093248
C            1.26107573337307       -0.17091559577572        0.04155612952309
N            0.50769547546184       -0.52380690145545        1.00842511825203
N           -0.78898035264029        0.04530333413888        0.76323517241233
C           -1.72242164357850       -1.08287088843133        0.60391745395392
C           -0.62307417088754        0.82284607264866       -0.45284572539311
C           -1.25366797957817        1.96580872955025       -0.79526989203676
O           -1.17180489343106        2.78183418228714       -1.70243662755683
Cl          -2.89694701682074        2.08855960087274        0.25438075368733
O            0.70819593710520        0.60105791400590       -0.90720249435772
H            2.94860688308787       -1.31107056310379        0.62867708385944
H            2.87476113224808       -0.92922351181228       -1.10760788790275
H            3.33099462908684        0.32315488376812        0.04872998857741
H           -2.70812663554480       -0.67679432102074        0.38653366601546
H           -1.40899965821540       -1.74770969276875       -0.20626456802083
H           -1.75072876545650       -1.63781844106821        1.53979223991948

          :  Hamiltonian                  GFN1-xTB          :
         :: total energy             -34.150430470545 Eh    ::
         :: gradient norm              0.000851562702 Eh/a0 ::
         :: HOMO-LUMO gap              2.846642561278 eV    ::
         :: SCC energy               -34.421243668484 Eh    ::
         :: -> Gsolv                  -0.093350040464 Eh    ::
         :: repulsion energy           0.278382019805 Eh    ::

    * Orbital Energies and Occupations

         #    Occupation            Energy/Eh            Energy/eV
      -------------------------------------------------------------
         1        2.0000           -0.8466425             -23.0383
       ...           ...                  ...                  ...
        16        2.0000           -0.5183249             -14.1043
        17        2.0000           -0.5146642             -14.0047
        18        2.0000           -0.5124839             -13.9454
        19        2.0000           -0.5108797             -13.9017
        20        2.0000           -0.4935805             -13.4310
        21        2.0000           -0.4755455             -12.9403
        22        2.0000           -0.4443062             -12.0902
        23        2.0000           -0.4405582             -11.9882
        24        2.0000           -0.4343830             -11.8202
        25        2.0000           -0.4297689             -11.6946
        26        2.0000           -0.4173036             -11.3554
        27        2.0000           -0.4042986             -11.0015
        28        2.0000           -0.3260033              -8.8710 (HOMO)
        29                         -0.2213911              -6.0244 (LUMO)
        30                         -0.1877100              -5.1078
        31                         -0.1657725              -4.5109
        32                         -0.1272594              -3.4629
        33                         -0.0992420              -2.7005
        34                         -0.0610648              -1.6617
        35                         -0.0598086              -1.6275
        36                         -0.0476412              -1.2964
        37                         -0.0418973              -1.1401
        38                         -0.0137544              -0.3743
        39                          0.0200789               0.5464
       ...                                ...                  ...
        57                          0.8072142              21.9654
      -------------------------------------------------------------
                  HL-Gap            0.1046122 Eh            2.8466 eV

Wiberg/Mayer (AO) data.
largest (>0.10) Wiberg bond orders for each atom

     #   Z sym  total        # sym  WBO       # sym  WBO       # sym  WBO
 ---------------------------------------------------------------------------
     1   6 C    3.993 --     2 C    1.017    11 H    0.986    12 H    0.974
                            13 H    0.969
     2   6 C    3.903 --     3 N    1.725    10 O    1.072     1 C    1.017
     3   7 N    2.955 --     2 C    1.725     4 N    0.989    10 O    0.125
     4   7 N    3.082 --     3 N    0.989     6 C    0.970     5 C    0.960
     5   6 C    3.975 --    16 H    0.989    14 H    0.986    15 H    0.985
                             4 N    0.960
     6   6 C    3.717 --     7 C    1.573     4 N    0.970    10 O    0.889
                             8 O    0.186
     7   6 C    3.870 --     6 C    1.573     8 O    1.571     9 Cl   0.608
     8   8 O    1.926 --     7 C    1.571     6 C    0.186     9 Cl   0.119
     9  17 Cl   0.796 --     7 C    0.608     8 O    0.119
    10   8 O    2.185 --     2 C    1.072     6 C    0.889     3 N    0.125
    11   1 H    1.004 --     1 C    0.986
    12   1 H    1.002 --     1 C    0.974
    13   1 H    1.003 --     1 C    0.969
    14   1 H    1.033 --     5 C    0.986
    15   1 H    1.014 --     5 C    0.985
    16   1 H    1.021 --     5 C    0.989
 ---------------------------------------------------------------------------

           -------------------------------------------------
          | TOTAL ENERGY              -34.150430470545 Eh   |
          | GRADIENT NORM               0.000851562702 Eh/α |
          | HOMO-LUMO GAP               2.846642561278 eV   |
           -------------------------------------------------

 * finished run on 2023/06/20 at 14:53:31.107
