   * xtb version 6.5.1 (579679a) compiled by 'ehlert@majestix' on 2022-07-11
          program call               : /lustre/hpc/kemi/ree/PhD/git/ReactivityQM/dep/xtb-6.5.1/bin/xtb --gfn 1 /lustre/hpc/kemi/ree/PhD/git/ReactivityQM/calculations/R01/reac01prodN06/conf03/R01_reac01prodN06_conf03_gfn1.xyz --opt --vfukui --chrg 1 --uhf 0 --alpb DMSO

   ID    Z sym.   atoms
    1    6 C      1, 3, 5, 6, 9, 10
    2    8 O      2, 4, 11
    3    7 N      7, 8
    4    1 H      12-20

      * Solvation model:               ALPB
        Solvent                        DMSO
        Solvent mass                       7.8130E+01 g/mol
          :  Hamiltonian                  GFN1-xTB          :
 * total energy  :   -37.5805010 Eh     change       -0.9734435E-12 Eh
 * total energy  :   -37.5917928 Eh     change       -0.1129182E-01 Eh
 * total energy  :   -37.5960374 Eh     change       -0.4244550E-02 Eh
 * total energy  :   -37.5966826 Eh     change       -0.6452457E-03 Eh
 * total energy  :   -37.5971428 Eh     change       -0.4601479E-03 Eh
 * total energy  :   -37.5973214 Eh     change       -0.1786265E-03 Eh
 * total energy  :   -37.5975033 Eh     change       -0.1818907E-03 Eh
 * total energy  :   -37.5976634 Eh     change       -0.1600399E-03 Eh
 * total energy  :   -37.5977731 Eh     change       -0.1097575E-03 Eh
 * total energy  :   -37.5978606 Eh     change       -0.8748267E-04 Eh
 * total energy  :   -37.5982713 Eh     change       -0.8645004E-05 Eh
 * total energy  :   -37.5982753 Eh     change       -0.3949875E-05 Eh
 * total energy  :   -37.5982737 Eh     change        0.1574001E-05 Eh
 * total energy  :   -37.5983075 Eh     change       -0.3374749E-04 Eh
 * total energy  :   -37.5983129 Eh     change       -0.5458945E-05 Eh
 * total energy  :   -37.5983206 Eh     change       -0.7686440E-05 Eh
 * total energy  :   -37.5983268 Eh     change       -0.6174031E-05 Eh
 * total energy  :   -37.5983314 Eh     change       -0.4650383E-05 Eh
 * total energy  :   -37.5983344 Eh     change       -0.2946616E-05 Eh
   *** GEOMETRY OPTIMIZATION CONVERGED AFTER 33 ITERATIONS ***

 final structure:
================
20
 xtb: 6.5.1 (579679a)
C            2.89324036759676        0.78129019745854        0.57847115559524
O            1.52720810382358        0.42959876311217        0.24647012490742
C            1.23241144371011       -0.80936268824851        0.05667961220406
O            1.92163805186327       -1.77759064988075        0.05865987643719
C           -0.33760202163256       -0.96311205214123       -0.25706810152538
C           -0.81772218201341       -2.33397714903463        0.19853730091740
N           -0.44498960432371       -0.69825131010221       -1.64476013482703
N           -1.06550011161605        0.38091531145997       -1.82805446238938
C           -1.44106419445576        0.86708633739249       -0.59250176774225
C           -2.17793463816217        2.10140747695244       -0.36692273612795
O           -1.04761644529609        0.09119056227701        0.34401140676339
H            3.04144589666093        1.79153945613044        0.20339661830561
H            2.99850569709317        0.75383218382460        1.66323535410396
H            3.58078454222928        0.07758717794570        0.10827386878976
H           -0.20016973299316       -3.09301794614443       -0.27745932475312
H           -0.72035371556693       -2.40200568377104        1.27977073902872
H           -1.85922040644831       -2.45965642652572       -0.08742685195200
H           -1.59202680821562        2.93938545678353       -0.75486534310118
H           -3.10420040102762        2.07873715769345       -0.94646465822404
H           -2.38683384122588        2.24440382481760        0.69075532359008

          :  Hamiltonian                  GFN1-xTB          :
         :: total energy             -37.598334377853 Eh    ::
         :: gradient norm              0.000787078252 Eh/a0 ::
         :: HOMO-LUMO gap              2.228279768051 eV    ::
         :: SCC energy               -37.939128667873 Eh    ::
         :: -> Gsolv                  -0.080709295100 Eh    ::
         :: repulsion energy           0.349633707793 Eh    ::

    * Orbital Energies and Occupations

         #    Occupation            Energy/Eh            Energy/eV
      -------------------------------------------------------------
         1        2.0000           -0.9438448             -25.6833
       ...           ...                  ...                  ...
        18        2.0000           -0.6162623             -16.7694
        19        2.0000           -0.6120528             -16.6548
        20        2.0000           -0.6013324             -16.3631
        21        2.0000           -0.6011843             -16.3591
        22        2.0000           -0.5856056             -15.9351
        23        2.0000           -0.5803525             -15.7922
        24        2.0000           -0.5722836             -15.5726
        25        2.0000           -0.5668505             -15.4248
        26        2.0000           -0.5645560             -15.3624
        27        2.0000           -0.5499950             -14.9661
        28        2.0000           -0.5393320             -14.6760
        29        2.0000           -0.5356437             -14.5756
        30        2.0000           -0.5166379             -14.0584 (HOMO)
        31                         -0.4347501             -11.8302 (LUMO)
        32                         -0.3415371              -9.2937
        33                         -0.3164922              -8.6122
        34                         -0.1812514              -4.9321
        35                         -0.1645210              -4.4768
        36                         -0.1600080              -4.3540
        37                         -0.1134739              -3.0878
        38                         -0.1097450              -2.9863
        39                         -0.1008477              -2.7442
        40                         -0.0987543              -2.6872
        41                         -0.0974582              -2.6520
       ...                                ...                  ...
        62                          0.7482157              20.3600
      -------------------------------------------------------------
                  HL-Gap            0.0818878 Eh            2.2283 eV

Wiberg/Mayer (AO) data.
largest (>0.10) Wiberg bond orders for each atom

     #   Z sym  total        # sym  WBO       # sym  WBO       # sym  WBO
 ---------------------------------------------------------------------------
     1   6 C    3.814 --    14 H    0.980    12 H    0.979    13 H    0.975
                             2 O    0.836
     2   8 O    2.266 --     3 C    1.231     1 C    0.836     4 O    0.154
     3   6 C    3.862 --     4 O    1.738     2 O    1.231     5 C    0.750
     4   8 O    2.071 --     3 C    1.738     2 O    0.154
     5   6 C    3.837 --     7 N    1.075     6 C    0.931    11 O    0.905
                             3 C    0.750
     6   6 C    3.948 --    16 H    0.976    17 H    0.975    15 H    0.973
                             5 C    0.931
     7   7 N    3.010 --     8 N    1.684     5 C    1.075
     8   7 N    3.022 --     7 N    1.684     9 C    1.174
     9   6 C    3.800 --    11 O    1.308     8 N    1.174    10 C    1.087
    10   6 C    3.962 --     9 C    1.087    20 H    0.971    19 H    0.919
                            18 H    0.913
    11   8 O    2.396 --     9 C    1.308     5 C    0.905
    12   1 H    1.002 --     1 C    0.979
    13   1 H    0.997 --     1 C    0.975
    14   1 H    0.998 --     1 C    0.980
    15   1 H    0.995 --     6 C    0.973
    16   1 H    0.990 --     6 C    0.976
    17   1 H    0.989 --     6 C    0.975
    18   1 H    0.977 --    10 C    0.913
    19   1 H    0.977 --    10 C    0.919
    20   1 H    0.984 --    10 C    0.971
 ---------------------------------------------------------------------------

           -------------------------------------------------
          | TOTAL ENERGY              -37.598334377853 Eh   |
          | GRADIENT NORM               0.000787078252 Eh/α |
          | HOMO-LUMO GAP               2.228279768051 eV   |
           -------------------------------------------------

 * finished run on 2023/06/20 at 14:56:09.643
