   * xtb version 6.5.1 (579679a) compiled by 'ehlert@majestix' on 2022-07-11
          program call               : /lustre/hpc/kemi/ree/PhD/git/ReactivityQM/dep/xtb-6.5.1/bin/xtb --gfn 1 /lustre/hpc/kemi/ree/PhD/git/ReactivityQM/calculations/R02/reac01/conf09/R02_reac01_conf09_gfn1.xyz --opt --vfukui --chrg 0 --uhf 0 --alpb DMSO

   ID    Z sym.   atoms
    1    6 C      1, 3, 5, 7-10, 12, 14, 17, 18, 21, 23
    2    8 O      2, 4, 13, 19, 22, 24
    3    7 N      6, 11, 15, 16, 20
    4    1 H      25-39

      * Solvation model:               ALPB
        Solvent                        DMSO
        Solvent mass                       7.8130E+01 g/mol
          :  Hamiltonian                  GFN1-xTB          :
 * total energy  :   -79.8133617 Eh     change       -0.1016076E-10 Eh
 * total energy  :   -79.8238178 Eh     change       -0.1045611E-01 Eh
 * total energy  :   -79.8277635 Eh     change       -0.3945693E-02 Eh
 * total energy  :   -79.8284355 Eh     change       -0.6720321E-03 Eh
 * total energy  :   -79.8289120 Eh     change       -0.4764249E-03 Eh
 * total energy  :   -79.8291440 Eh     change       -0.2320957E-03 Eh
 * total energy  :   -79.8293347 Eh     change       -0.1906441E-03 Eh
 * total energy  :   -79.8294791 Eh     change       -0.1444083E-03 Eh
 * total energy  :   -79.8295829 Eh     change       -0.1038363E-03 Eh
 * total energy  :   -79.8296556 Eh     change       -0.7268753E-04 Eh
 * total energy  :   -79.8302440 Eh     change       -0.8470289E-05 Eh
 * total energy  :   -79.8302566 Eh     change       -0.1256864E-04 Eh
 * total energy  :   -79.8302599 Eh     change       -0.3312617E-05 Eh
 * total energy  :   -79.8302671 Eh     change       -0.7193484E-05 Eh
 * total energy  :   -79.8302748 Eh     change       -0.7710359E-05 Eh
 * total energy  :   -79.8302818 Eh     change       -0.7063240E-05 Eh
 * total energy  :   -79.8302911 Eh     change       -0.9214515E-05 Eh
 * total energy  :   -79.8302961 Eh     change       -0.5020574E-05 Eh
 * total energy  :   -79.8302998 Eh     change       -0.3737828E-05 Eh
   *** GEOMETRY OPTIMIZATION CONVERGED AFTER 37 ITERATIONS ***

 final structure:
================
39
 xtb: 6.5.1 (579679a)
C           -5.99243464042655        2.12396089560214       -0.25649669530057
O           -4.84876807002782        1.40589109744855       -0.74447917982805
C           -3.91674697836922        1.09889242594160        0.16859601332847
O           -4.01961758509047        1.39781685511286        1.33384644651577
C           -2.75444013601502        0.35989819482250       -0.39902705480578
N           -1.80226160671517        0.06601751436929        0.54840559487304
C           -0.73284319695852       -0.56166471838687        0.20501686254619
C            0.29568620252079       -0.94150786506618        1.24789174849948
C            0.08748745900526       -0.11770389226936        2.52189494882067
C            0.14730552680130       -2.44573455119845        1.52468480324012
N            1.61975186457928       -0.65946399031651        0.68006101261378
C            2.77282767900048       -0.95566760504605        1.32138808712824
O            2.86369756618241       -1.57491992913959        2.36709858528377
C            3.96876534851240       -0.45490071610476        0.59892611626824
N            5.21281778529649       -0.59981941032846        0.93467020335899
N            5.95420014556523        0.02843482907877       -0.01981083097645
C            5.11749950524753        0.52051858805251       -0.87963496961768
C            5.42488406492320        1.29592163847226       -2.10067174221930
O            3.84391868596737        0.25100128242816       -0.54679741731686
N           -0.51055488057195       -0.96861427560634       -1.07825778125213
C           -1.38723963770909       -0.74418443605437       -2.12168537196958
O           -1.13713924452104       -1.13403780619025       -3.24768546407894
C           -2.59503520699361       -0.01416440837393       -1.70960671962093
O           -3.45656813056451        0.21853123381222       -2.70441964897209
H           -6.61401484427929        2.34434689975572       -1.12053589578701
H           -6.53936117736604        1.50668502567786        0.45947630422834
H           -5.67054267656473        3.04808883917996        0.22841842353800
H            0.80937607708675       -0.41593923216667        3.28000737657535
H           -0.92053970830966       -0.28456840557167        2.89861645659957
H            0.21055615637213        0.94162778363715        2.30268829947871
H            0.38810479186509       -3.01356872562576        0.62794274666768
H            0.81202962956550       -2.75042385487619        2.33035235881235
H           -0.88097323244309       -2.65704541681354        1.81384928122059
H            1.66893179770710       -0.03863909790355       -0.11063175485826
H            6.50280519139511        1.35784455945750       -2.23313914814795
H            5.00962486830837        2.30087291431173       -2.01689948345328
H            4.97325720382905        0.81647308552618       -2.96927070780114
H            0.34044213420289       -1.45962513432056       -1.30769198877201
H           -4.24488873100964        0.70936980867271       -2.41406281481602

          :  Hamiltonian                  GFN1-xTB          :
         :: total energy             -79.830299809692 Eh    ::
         :: gradient norm              0.000828285430 Eh/a0 ::
         :: HOMO-LUMO gap              2.886198346921 eV    ::
         :: SCC energy               -80.578575366864 Eh    ::
         :: -> Gsolv                  -0.061367189820 Eh    ::
         :: repulsion energy           0.771624334971 Eh    ::

    * Orbital Energies and Occupations

         #    Occupation            Energy/Eh            Energy/eV
      -------------------------------------------------------------
         1        2.0000           -0.8660527             -23.5665
       ...           ...                  ...                  ...
        52        2.0000           -0.5056308             -13.7589
        53        2.0000           -0.5013971             -13.6437
        54        2.0000           -0.4999519             -13.6044
        55        2.0000           -0.4883794             -13.2895
        56        2.0000           -0.4868701             -13.2484
        57        2.0000           -0.4805819             -13.0773
        58        2.0000           -0.4678657             -12.7313
        59        2.0000           -0.4618317             -12.5671
        60        2.0000           -0.4596858             -12.5087
        61        2.0000           -0.4521858             -12.3046
        62        2.0000           -0.4518379             -12.2951
        63        2.0000           -0.4482380             -12.1972
        64        2.0000           -0.4317418             -11.7483 (HOMO)
        65                         -0.3256759              -8.8621 (LUMO)
        66                         -0.3120193              -8.4905
        67                         -0.2843131              -7.7366
        68                         -0.2571919              -6.9985
        69                         -0.2422473              -6.5919
        70                         -0.1997805              -5.4363
        71                         -0.1604583              -4.3663
        72                         -0.1422567              -3.8710
        73                         -0.1372806              -3.7356
        74                         -0.1280608              -3.4847
        75                         -0.1232662              -3.3542
       ...                                ...                  ...
       126                          0.7332041              19.9515
      -------------------------------------------------------------
                  HL-Gap            0.1060658 Eh            2.8862 eV

Wiberg/Mayer (AO) data.
largest (>0.10) Wiberg bond orders for each atom

     #   Z sym  total        # sym  WBO       # sym  WBO       # sym  WBO
 ---------------------------------------------------------------------------
     1   6 C    3.860 --    25 H    0.986    27 H    0.980    26 H    0.980
                             2 O    0.884
     2   8 O    2.204 --     3 C    1.089     1 C    0.884     4 O    0.130
     3   6 C    3.847 --     4 O    1.672     2 O    1.089     5 C    1.006
     4   8 O    1.933 --     3 C    1.672     2 O    0.130
     5   6 C    3.963 --    23 C    1.503     6 N    1.170     3 C    1.006
     6   7 N    3.028 --     7 C    1.598     5 C    1.170
     7   6 C    3.931 --     6 N    1.598    20 N    1.166     8 C    0.981
     8   6 C    3.933 --     9 C    0.991     7 C    0.981    10 C    0.976
                            11 N    0.922
     9   6 C    3.988 --     8 C    0.991    30 H    0.985    29 H    0.983
                            28 H    0.983
    10   6 C    3.987 --    33 H    0.985    31 H    0.985    32 H    0.977
                             8 C    0.976
    11   7 N    3.336 --    12 C    1.246     8 C    0.922    34 H    0.894
                            13 O    0.174
    12   6 C    3.915 --    13 O    1.593    11 N    1.246    14 C    0.993
    13   8 O    1.908 --    12 C    1.593    11 N    0.174
    14   6 C    3.872 --    15 N    1.623    19 O    1.046    12 C    0.993
    15   7 N    3.000 --    14 C    1.623    16 N    1.199
    16   7 N    2.982 --    17 C    1.610    15 N    1.199
    17   6 C    3.868 --    16 N    1.610    19 O    1.072    18 C    1.032
    18   6 C    3.986 --    17 C    1.032    35 H    0.982    37 H    0.964
                            36 H    0.961
    19   8 O    2.315 --    17 C    1.072    14 C    1.046
    20   7 N    3.460 --     7 C    1.166    21 C    1.121    38 H    0.883
                            22 O    0.135
    21   6 C    3.908 --    22 O    1.605    20 N    1.121    23 C    1.053
    22   8 O    1.901 --    21 C    1.605    20 N    0.135
    23   6 C    3.919 --     5 C    1.503    24 O    1.112    21 C    1.053
    24   8 O    2.092 --    23 C    1.112    39 H    0.799
    25   1 H    1.009 --     1 C    0.986
    26   1 H    1.006 --     1 C    0.980
    27   1 H    1.007 --     1 C    0.980
    28   1 H    1.006 --     9 C    0.983
    29   1 H    1.010 --     9 C    0.983
    30   1 H    1.004 --     9 C    0.985
    31   1 H    1.001 --    10 C    0.985
    32   1 H    1.010 --    10 C    0.977
    33   1 H    1.001 --    10 C    0.985
    34   1 H    0.938 --    11 N    0.894
    35   1 H    0.998 --    18 C    0.982
    36   1 H    0.997 --    18 C    0.961
    37   1 H    0.996 --    18 C    0.964
    38   1 H    0.928 --    20 N    0.883
    39   1 H    0.851 --    24 O    0.799
 ---------------------------------------------------------------------------

           -------------------------------------------------
          | TOTAL ENERGY              -79.830299809692 Eh   |
          | GRADIENT NORM               0.000828285430 Eh/α |
          | HOMO-LUMO GAP               2.886198346921 eV   |
           -------------------------------------------------

 * finished run on 2023/06/20 at 14:52:03.053
