                         Program Version 5.0.1 -  RELEASE  -
|  1> # ORCA input file
|  2> ! SP r2SCAN-3c CPCM
|  3>
|  4> %maxcore 1875.0
|  5> %pal nprocs 4 end
|  6> %cpcm smd true SMDsolvent "DMSO" end
|  7>
|  8> *xyz -2 1
|  9> C      -5.357117    2.867827    0.034019
| 10> O      -4.204212    2.061269    0.172411
| 11> C      -4.135107    0.969195   -0.685544
| 12> O      -5.060933    0.772008   -1.474932
| 13> C      -2.954060    0.191758   -0.496986
| 14> C      -2.638248   -0.937955   -1.280076
| 15> O      -3.328737   -1.445920   -2.185931
| 16> C      -1.268427   -1.606447   -0.924611
| 17> C      -1.287057   -3.090046   -1.307923
| 18> O      -0.188234   -0.954960   -1.576952
| 19> N      -1.111702   -1.482971    0.517785
| 20> C      -1.126216   -0.118828    0.883946
| 21> C       0.116439    0.363684    1.613189
| 22> C       0.325861   -0.401469    2.930085
| 23> C       0.003740    1.869475    1.892133
| 24> N       1.163016    0.067178    0.622139
| 25> C       2.405403    0.360384    0.918498
| 26> O       2.898873    0.860816    1.953191
| 27> C       3.314435    0.011591   -0.239585
| 28> N       2.957955   -0.383107   -1.425068
| 29> N       4.109380   -0.566706   -2.152596
| 30> C       5.087887   -0.270582   -1.362491
| 31> C       6.537546   -0.309046   -1.670990
| 32> O       4.662901    0.105067   -0.144377
| 33> N      -2.007483    0.685234    0.441144
| 34> H      -5.410100    3.317924   -0.964561
| 35> H      -5.291592    3.657861    0.782556
| 36> H      -6.271370    2.286104    0.200896
| 37> H      -0.322432   -3.541743   -1.085381
| 38> H      -1.489383   -3.187508   -2.374125
| 39> H      -2.064236   -3.607945   -0.748819
| 40> H      -0.250223   -1.930252    0.815708
| 41> H       0.472817   -1.464141    2.740140
| 42> H       1.201086   -0.021108    3.455339
| 43> H      -0.547979   -0.278289    3.571122
| 44> H      -0.116355    2.417262    0.956218
| 45> H      -0.868006    2.060854    2.519485
| 46> H       0.893219    2.231102    2.406126
| 47> H       0.440684   -0.605121   -0.868056
| 48> H       7.054853   -0.959677   -0.966785
| 49> H       6.968496    0.688450   -1.587734
| 50> H       6.684617   -0.681219   -2.681829
| 51> **                         ****END OF INPUT****

CARTESIAN COORDINATES (ANGSTROEM)
---------------------------------
  C     -5.357117    2.867827    0.034019
  O     -4.204212    2.061269    0.172411
  C     -4.135107    0.969195   -0.685544
  O     -5.060933    0.772008   -1.474932
  C     -2.954060    0.191758   -0.496986
  C     -2.638248   -0.937955   -1.280076
  O     -3.328737   -1.445920   -2.185931
  C     -1.268427   -1.606447   -0.924611
  C     -1.287057   -3.090046   -1.307923
  O     -0.188234   -0.954960   -1.576952
  N     -1.111702   -1.482971    0.517785
  C     -1.126216   -0.118828    0.883946
  C      0.116439    0.363684    1.613189
  C      0.325861   -0.401469    2.930085
  C      0.003740    1.869475    1.892133
  N      1.163016    0.067178    0.622139
  C      2.405403    0.360384    0.918498
  O      2.898873    0.860816    1.953191
  C      3.314435    0.011591   -0.239585
  N      2.957955   -0.383107   -1.425068
  N      4.109380   -0.566706   -2.152596
  C      5.087887   -0.270582   -1.362491
  C      6.537546   -0.309046   -1.670990
  O      4.662901    0.105067   -0.144377
  N     -2.007483    0.685234    0.441144
  H     -5.410100    3.317924   -0.964561
  H     -5.291592    3.657861    0.782556
  H     -6.271370    2.286104    0.200896
  H     -0.322432   -3.541743   -1.085381
  H     -1.489383   -3.187508   -2.374125
  H     -2.064236   -3.607945   -0.748819
  H     -0.250223   -1.930252    0.815708
  H      0.472817   -1.464141    2.740140
  H      1.201086   -0.021108    3.455339
  H     -0.547979   -0.278289    3.571122
  H     -0.116355    2.417262    0.956218
  H     -0.868006    2.060854    2.519485
  H      0.893219    2.231102    2.406126
  H      0.440684   -0.605121   -0.868056
  H      7.054853   -0.959677   -0.966785
  H      6.968496    0.688450   -1.587734
  H      6.684617   -0.681219   -2.681829

 Total Charge           Charge          ....   -2
 Multiplicity           Mult            ....    1
 Number of Electrons    NEL             ....  186
 Basis Dimension        Dim             ....  615

ORBITAL ENERGIES
----------------

  NO   OCC          E(Eh)            E(eV)
   0   2.0000     -19.037456      -518.0355
   1   2.0000     -18.949284      -515.6362
   2   2.0000     -18.899648      -514.2856
   3   2.0000     -18.882171      -513.8100
   4   2.0000     -18.873034      -513.5614
   5   2.0000     -18.868661      -513.4424
   6   2.0000     -14.175114      -385.7245
   7   2.0000     -14.170920      -385.6103
   8   2.0000     -14.141754      -384.8167
   9   2.0000     -14.110497      -383.9662
  10   2.0000     -14.097687      -383.6176
  11   2.0000     -10.122962      -275.4598
  12   2.0000     -10.109947      -275.1056
  13   2.0000     -10.103161      -274.9210
  14   2.0000     -10.089281      -274.5433
  15   2.0000     -10.083837      -274.3952
  16   2.0000     -10.053463      -273.5686
  17   2.0000     -10.052617      -273.5456
  18   2.0000     -10.052589      -273.5449
  19   2.0000     -10.049355      -273.4568
  20   2.0000     -10.035395      -273.0770
  21   2.0000     -10.003342      -272.2048
  22   2.0000      -9.998877      -272.0833
  23   2.0000      -9.995784      -271.9991
  24   2.0000      -9.993816      -271.9455
  25   2.0000      -1.124584       -30.6015
  26   2.0000      -1.014356       -27.6020
  27   2.0000      -0.961246       -26.1568
  28   2.0000      -0.948758       -25.8170
  29   2.0000      -0.944326       -25.6964
  30   2.0000      -0.928151       -25.2563
  31   2.0000      -0.919497       -25.0208
  32   2.0000      -0.888794       -24.1853
  33   2.0000      -0.826803       -22.4985
  34   2.0000      -0.810135       -22.0449
  35   2.0000      -0.802191       -21.8287
  36   2.0000      -0.724489       -19.7144
  37   2.0000      -0.694559       -18.8999
  38   2.0000      -0.686129       -18.6705
  39   2.0000      -0.674602       -18.3569
  40   2.0000      -0.639267       -17.3953
  41   2.0000      -0.630993       -17.1702
  42   2.0000      -0.624946       -17.0056
  43   2.0000      -0.585240       -15.9252
  44   2.0000      -0.576910       -15.6985
  45   2.0000      -0.559933       -15.2366
  46   2.0000      -0.524263       -14.2659
  47   2.0000      -0.507971       -13.8226
  48   2.0000      -0.483565       -13.1585
  49   2.0000      -0.467495       -12.7212
  50   2.0000      -0.464113       -12.6292
  51   2.0000      -0.457142       -12.4395
  52   2.0000      -0.442853       -12.0507
  53   2.0000      -0.434164       -11.8142
  54   2.0000      -0.419265       -11.4088
  55   2.0000      -0.414846       -11.2885
  56   2.0000      -0.408666       -11.1204
  57   2.0000      -0.393778       -10.7152
  58   2.0000      -0.388378       -10.5683
  59   2.0000      -0.384600       -10.4655
  60   2.0000      -0.381940       -10.3931
  61   2.0000      -0.374245       -10.1837
  62   2.0000      -0.370955       -10.0942
  63   2.0000      -0.366803        -9.9812
  64   2.0000      -0.362658        -9.8684
  65   2.0000      -0.352558        -9.5936
  66   2.0000      -0.350640        -9.5414
  67   2.0000      -0.342483        -9.3194
  68   2.0000      -0.338801        -9.2192
  69   2.0000      -0.335129        -9.1193
  70   2.0000      -0.331471        -9.0198
  71   2.0000      -0.321937        -8.7604
  72   2.0000      -0.318687        -8.6719
  73   2.0000      -0.317285        -8.6338
  74   2.0000      -0.314371        -8.5545
  75   2.0000      -0.293802        -7.9948
  76   2.0000      -0.292249        -7.9525
  77   2.0000      -0.290889        -7.9155
  78   2.0000      -0.286780        -7.8037
  79   2.0000      -0.285659        -7.7732
  80   2.0000      -0.272053        -7.4029
  81   2.0000      -0.246159        -6.6983
  82   2.0000      -0.236595        -6.4381
  83   2.0000      -0.231838        -6.3086
  84   2.0000      -0.226150        -6.1539
  85   2.0000      -0.218462        -5.9447
  86   2.0000      -0.211664        -5.7597
  87   2.0000      -0.202221        -5.5027
  88   2.0000      -0.200684        -5.4609
  89   2.0000      -0.180265        -4.9053
  90   2.0000      -0.175337        -4.7712
  91   2.0000      -0.150373        -4.0919
  92   2.0000      -0.133706        -3.6383
  93   0.0000      -0.042882        -1.1669
  94   0.0000      -0.002390        -0.0650
  95   0.0000       0.001827         0.0497
  96   0.0000       0.014394         0.3917
  97   0.0000       0.068713         1.8698

MULLIKEN ATOMIC CHARGES
-----------------------
   0 C :   -0.335360
   1 O :   -0.203275
   2 C :    0.057057
   3 O :   -0.426577
   4 C :   -0.082832
   5 C :   -0.247222
   6 O :   -0.372284
   7 C :    0.363522
   8 C :   -0.585490
   9 O :   -0.431157
  10 N :   -0.479384
  11 C :    0.156280
  12 C :    0.097731
  13 C :   -0.638229
  14 C :   -0.710184
  15 N :   -0.198270
  16 C :   -0.240330
  17 O :   -0.502071
  18 C :    0.331984
  19 N :   -0.087283
  20 N :   -0.382874
  21 C :    0.411559
  22 C :   -0.651957
  23 O :   -0.038823
  24 N :   -0.097010
  25 H :    0.154880
  26 H :    0.155566
  27 H :    0.156355
  28 H :    0.161667
  29 H :    0.173973
  30 H :    0.164481
  31 H :    0.302890
  32 H :    0.162817
  33 H :    0.193642
  34 H :    0.174214
  35 H :    0.174663
  36 H :    0.170342
  37 H :    0.182760
  38 H :    0.381102
  39 H :    0.191584
  40 H :    0.193259
  41 H :    0.198281
Sum of atomic charges:   -2.0000000

LOEWDIN ATOMIC CHARGES
----------------------
   0 C :   -0.066344
   1 O :   -0.642299
   2 C :    0.374117
   3 O :   -0.514464
   4 C :    0.066393
   5 C :    0.248477
   6 O :   -0.590867
   7 C :    0.255536
   8 C :   -0.356512
   9 O :   -0.565937
  10 N :   -0.632202
  11 C :    0.293973
  12 C :    0.076036
  13 C :   -0.375292
  14 C :   -0.375301
  15 N :   -0.729483
  16 C :    0.305370
  17 O :   -0.580292
  18 C :    0.422186
  19 N :   -0.377654
  20 N :   -0.393811
  21 C :    0.352951
  22 C :   -0.326263
  23 O :   -0.385195
  24 N :   -0.626298
  25 H :    0.166674
  26 H :    0.172488
  27 H :    0.168018
  28 H :    0.159567
  29 H :    0.171853
  30 H :    0.164397
  31 H :    0.280966
  32 H :    0.161423
  33 H :    0.174018
  34 H :    0.160384
  35 H :    0.166281
  36 H :    0.160741
  37 H :    0.167516
  38 H :    0.311594
  39 H :    0.185187
  40 H :    0.185706
  41 H :    0.186361

  Mayer bond orders larger than 0.100000
B(  0-C ,  1-O ) :   0.8610 B(  0-C , 25-H ) :   0.9661 B(  0-C , 26-H ) :   0.9701
B(  0-C , 27-H ) :   0.9677 B(  1-O ,  2-C ) :   1.0049 B(  2-C ,  3-O ) :   1.8790
B(  2-C ,  4-C ) :   1.1398 B(  4-C ,  5-C ) :   1.0763 B(  4-C ,  6-O ) :  -0.1635
B(  4-C , 24-N ) :   0.8763 B(  5-C ,  6-O ) :   2.0694 B(  5-C ,  7-C ) :   0.7905
B(  6-O ,  7-C ) :  -0.1103 B(  7-C ,  8-C ) :   0.8728 B(  7-C ,  9-O ) :   0.8702
B(  7-C , 10-N ) :   0.8690 B(  8-C , 28-H ) :   0.9774 B(  8-C , 29-H ) :   0.9892
B(  8-C , 30-H ) :   0.9804 B(  9-O , 11-C ) :   0.1504 B(  9-O , 38-H ) :   0.6811
B( 10-N , 11-C ) :   1.0654 B( 10-N , 31-H ) :   0.8710 B( 11-C , 12-C ) :   0.9683
B( 11-C , 15-N ) :  -0.1758 B( 11-C , 24-N ) :   1.9116 B( 12-C , 13-C ) :   0.9178
B( 12-C , 14-C ) :   0.7891 B( 12-C , 15-N ) :   0.9715 B( 13-C , 32-H ) :   0.9583
B( 13-C , 33-H ) :   0.9807 B( 13-C , 34-H ) :   0.9783 B( 14-C , 35-H ) :   0.9903
B( 14-C , 36-H ) :   0.9787 B( 14-C , 37-H ) :   0.9773 B( 15-N , 16-C ) :   1.4935
B( 15-N , 18-C ) :  -0.1010 B( 15-N , 38-H ) :   0.2003 B( 16-C , 17-O ) :   1.8423
B( 16-C , 18-C ) :   0.7841 B( 18-C , 19-N ) :   1.7430 B( 18-C , 23-O ) :   1.0993
B( 19-N , 20-N ) :   1.2214 B( 20-N , 21-C ) :   1.6533 B( 21-C , 22-C ) :   0.8226
B( 21-C , 23-O ) :   1.0736 B( 22-C , 39-H ) :   0.9506 B( 22-C , 40-H ) :   0.9465
B( 22-C , 41-H ) :   0.9951

Dispersion correction           -0.019570614
FINAL SINGLE POINT ENERGY     -1268.873199782754

DIPOLE MOMENT
-------------
                                X             Y             Z
Electronic contribution:      3.26638      -0.47568      -6.78908
Nuclear contribution   :      1.99897       0.46119       8.93988
                        -----------------------------------------
Total Dipole Moment    :      5.26534      -0.01450       2.15080
                        -----------------------------------------
Magnitude (a.u.)       :      5.68770
Magnitude (Debye)      :     14.45700

Rotational constants in cm-1:     0.013622     0.003951     0.003522
Rotational constants in MHz :   408.369479   118.438164   105.587038

                             ****ORCA TERMINATED NORMALLY****
TOTAL RUN TIME: 0 days 0 hours 2 minutes 35 seconds 653 msec
