   * xtb version 6.5.1 (579679a) compiled by 'ehlert@majestix' on 2022-07-11
          program call               : /lustre/hpc/kemi/ree/PhD/git/ReactivityQM/dep/xtb-6.5.1/bin/xtb --gfn 1 /lustre/hpc/kemi/ree/PhD/git/ReactivityQM/calculations/R02methylcation/reac01prodE12/conf07/R02methylcation_reac01prodE12_conf07_gfn1.xyz --opt --vfukui --chrg -2 --uhf 0 --alpb DMSO

   ID    Z sym.   atoms
    1    6 C      1, 3, 5, 6, 8, 9, 12-15, 17, 19, 22, 23
    2    8 O      2, 4, 7, 10, 18, 24
    3    7 N      11, 16, 20, 21, 25
    4    1 H      26-42

      * Solvation model:               ALPB
        Solvent                        DMSO
        Solvent mass                       7.8130E+01 g/mol
          :  Hamiltonian                  GFN1-xTB          :
 * total energy  :   -83.5986573 Eh     change       -0.3639826E-09 Eh
 * total energy  :   -83.6136109 Eh     change       -0.1495365E-01 Eh
 * total energy  :   -83.6196147 Eh     change       -0.6003767E-02 Eh
 * total energy  :   -83.6208944 Eh     change       -0.1279753E-02 Eh
 * total energy  :   -83.6218891 Eh     change       -0.9947163E-03 Eh
 * total energy  :   -83.6223449 Eh     change       -0.4557139E-03 Eh
 * total energy  :   -83.6226780 Eh     change       -0.3331870E-03 Eh
 * total energy  :   -83.6229161 Eh     change       -0.2380394E-03 Eh
 * total energy  :   -83.6231083 Eh     change       -0.1921890E-03 Eh
 * total energy  :   -83.6233593 Eh     change       -0.2510145E-03 Eh
 * total energy  :   -83.6474673 Eh     change       -0.1766946E-03 Eh
 * total energy  :   -83.6475472 Eh     change       -0.7986866E-04 Eh
 * total energy  :   -83.6476169 Eh     change       -0.6973270E-04 Eh
 * total energy  :   -83.6476365 Eh     change       -0.1961945E-04 Eh
 * total energy  :   -83.6476643 Eh     change       -0.2780102E-04 Eh
 * total energy  :   -83.6476867 Eh     change       -0.2235271E-04 Eh
 * total energy  :   -83.6477012 Eh     change       -0.1454479E-04 Eh
 * total energy  :   -83.6477134 Eh     change       -0.1216622E-04 Eh
 * total energy  :   -83.6477182 Eh     change       -0.4816257E-05 Eh
   *** GEOMETRY OPTIMIZATION CONVERGED AFTER 62 ITERATIONS ***

 final structure:
================
42
 xtb: 6.5.1 (579679a)
C           -5.35711701001548        2.86782735789199        0.03401942956264
O           -4.20421193828002        2.06126917640684        0.17241096759706
C           -4.13510680535263        0.96919548775933       -0.68554436055524
O           -5.06093319638704        0.77200794537106       -1.47493204468666
C           -2.95406029986818        0.19175777472228       -0.49698589413158
C           -2.63824791723152       -0.93795472145778       -1.28007589020139
O           -3.32873706820429       -1.44592018385370       -2.18593107182197
C           -1.26842730657637       -1.60644700494213       -0.92461070934514
C           -1.28705731218325       -3.09004631858044       -1.30792342654712
O           -0.18823419184718       -0.95496006755452       -1.57695194730012
N           -1.11170210730958       -1.48297064722643        0.51778517643852
C           -1.12621605154639       -0.11882755621939        0.88394582026837
C            0.11643937992360        0.36368404375944        1.61318879982215
C            0.32586110803487       -0.40146916151118        2.93008455359134
C            0.00374042521596        1.86947518427802        1.89213268387410
N            1.16301626728920        0.06717798284760        0.62213930028358
C            2.40540292234457        0.36038388594484        0.91849840746901
O            2.89887270459207        0.86081635374812        1.95319066420019
C            3.31443468594501        0.01159060228557       -0.23958508958382
N            2.95795533516765       -0.38310742435134       -1.42506751963533
N            4.10937958684350       -0.56670632867673       -2.15259564179193
C            5.08788660032786       -0.27058219486374       -1.36249066808500
C            6.53754631793284       -0.30904628769085       -1.67098981010829
O            4.66290069192579        0.10506731196675       -0.14437693179784
N           -2.00748300779438        0.68523437548501        0.44114350384358
H           -5.41010040433515        3.31792400491340       -0.96456104759047
H           -5.29159185084223        3.65786104986769        0.78255615701020
H           -6.27137024959743        2.28610366235932        0.20089562622228
H           -0.32243189443720       -3.54174314320885       -1.08538057196122
H           -1.48938255674115       -3.18750775600803       -2.37412468278588
H           -2.06423630824246       -3.60794504922862       -0.74881871510008
H           -0.25022258357300       -1.93025237928390        0.81570846148539
H            0.47281697544232       -1.46414112708800        2.74014015747858
H            1.20108649683098       -0.02110796724932        3.45533939923374
H           -0.54797901442593       -0.27828909091387        3.57112223313285
H           -0.11635463156845        2.41726232866619        0.95621814010529
H           -0.86800614797078        2.06085412311080        2.51948461651699
H            0.89321932595502        2.23110163057579        2.40612611770734
H            0.44068441758134       -0.60512094121785       -0.86805629240257
H            7.05485259983384       -0.95967672051079       -0.96678498857015
H            6.96849620810428        0.68845001246933       -1.58773403750761
H            6.68461680504154       -0.68121922279073       -2.68182887433133

          :  Hamiltonian                  GFN1-xTB          :
         :: total energy             -83.647718227446 Eh    ::
         :: gradient norm              0.000805274876 Eh/a0 ::
         :: HOMO-LUMO gap              2.352474293292 eV    ::
         :: SCC energy               -84.373667855350 Eh    ::
         :: -> Gsolv                  -0.275635242451 Eh    ::
         :: repulsion energy           0.752426256797 Eh    ::

    * Orbital Energies and Occupations

         #    Occupation            Energy/Eh            Energy/eV
      -------------------------------------------------------------
         1        2.0000           -0.8202328             -22.3197
       ...           ...                  ...                  ...
        56        2.0000           -0.4393457             -11.9552
        57        2.0000           -0.4342484             -11.8165
        58        2.0000           -0.4255697             -11.5803
        59        2.0000           -0.4172133             -11.3530
        60        2.0000           -0.4135378             -11.2529
        61        2.0000           -0.4107907             -11.1782
        62        2.0000           -0.3982310             -10.8364
        63        2.0000           -0.3847054             -10.4684
        64        2.0000           -0.3771286             -10.2622
        65        2.0000           -0.3660263              -9.9601
        66        2.0000           -0.3531482              -9.6097
        67        2.0000           -0.3514827              -9.5643
        68        2.0000           -0.3303632              -8.9896 (HOMO)
        69                         -0.2439114              -6.6372 (LUMO)
        70                         -0.2200501              -5.9879
        71                         -0.2197757              -5.9804
        72                         -0.2024458              -5.5088
        73                         -0.1286397              -3.5005
        74                         -0.1280555              -3.4846
        75                         -0.1144874              -3.1154
        76                         -0.1045013              -2.8436
        77                         -0.0930174              -2.5311
        78                         -0.0878109              -2.3895
        79                         -0.0825583              -2.2465
       ...                                ...                  ...
       134                          0.7569730              20.5983
      -------------------------------------------------------------
                  HL-Gap            0.0864518 Eh            2.3525 eV

Wiberg/Mayer (AO) data.
largest (>0.10) Wiberg bond orders for each atom

     #   Z sym  total        # sym  WBO       # sym  WBO       # sym  WBO
 ---------------------------------------------------------------------------
     1   6 C    3.914 --    27 H    0.987    26 H    0.981    28 H    0.980
                             2 O    0.944
     2   8 O    2.104 --     3 C    0.976     1 C    0.944
     3   6 C    3.853 --     4 O    1.530     5 C    1.214     2 O    0.976
     4   8 O    1.826 --     3 C    1.530
     5   6 C    3.892 --     6 C    1.311     3 C    1.214    25 N    1.047
                             7 O    0.117
     6   6 C    3.922 --     7 O    1.524     5 C    1.311     8 C    0.907
     7   8 O    1.825 --     6 C    1.524     5 C    0.117
     8   6 C    3.891 --     9 C    0.988    10 O    0.949    11 N    0.945
                             6 C    0.907
     9   6 C    3.997 --    31 H    0.989     8 C    0.988    29 H    0.987
                            30 H    0.984
    10   8 O    1.876 --     8 C    0.949    39 H    0.788
    11   7 N    3.128 --    12 C    1.043     8 C    0.945    32 H    0.933
    12   6 C    3.937 --    25 N    1.738    11 N    1.043    13 C    0.970
    13   6 C    3.969 --    15 C    0.990    14 C    0.983    12 C    0.970
                            16 N    0.966
    14   6 C    3.994 --    35 H    0.988    13 C    0.983    33 H    0.983
                            34 H    0.982
    15   6 C    3.996 --    13 C    0.990    37 H    0.988    36 H    0.986
                            38 H    0.984
    16   7 N    3.004 --    17 C    1.482    13 C    0.966    18 O    0.223
                            39 H    0.130
    17   6 C    3.940 --    16 N    1.482    18 O    1.431    19 C    0.955
    18   8 O    1.782 --    17 C    1.431    16 N    0.223
    19   6 C    3.832 --    20 N    1.626    24 O    1.043    17 C    0.955
    20   7 N    2.986 --    19 C    1.626    21 N    1.167
    21   7 N    2.977 --    22 C    1.638    20 N    1.167
    22   6 C    3.886 --    21 N    1.638    24 O    1.076    23 C    1.025
    23   6 C    3.992 --    22 C    1.025    42 H    0.985    40 H    0.970
                            41 H    0.969
    24   8 O    2.302 --    22 C    1.076    19 C    1.043
    25   7 N    3.015 --    12 C    1.738     5 C    1.047
    26   1 H    1.018 --     1 C    0.981
    27   1 H    1.019 --     1 C    0.987
    28   1 H    1.019 --     1 C    0.980
    29   1 H    1.010 --     9 C    0.987
    30   1 H    1.019 --     9 C    0.984
    31   1 H    1.012 --     9 C    0.989
    32   1 H    0.981 --    11 N    0.933
    33   1 H    1.008 --    14 C    0.983
    34   1 H    1.021 --    14 C    0.982
    35   1 H    1.008 --    14 C    0.988
    36   1 H    1.020 --    15 C    0.986
    37   1 H    1.013 --    15 C    0.988
    38   1 H    1.020 --    15 C    0.984
    39   1 H    0.948 --    10 O    0.788    16 N    0.130
    40   1 H    1.001 --    23 C    0.970
    41   1 H    1.001 --    23 C    0.969
    42   1 H    1.003 --    23 C    0.985
 ---------------------------------------------------------------------------

           -------------------------------------------------
          | TOTAL ENERGY              -83.647718227446 Eh   |
          | GRADIENT NORM               0.000805274876 Eh/α |
          | HOMO-LUMO GAP               2.352474293292 eV   |
           -------------------------------------------------

 * finished run on 2023/06/21 at 17:25:32.110
