   * xtb version 6.5.1 (579679a) compiled by 'ehlert@majestix' on 2022-07-11
          program call               : /lustre/hpc/kemi/ree/PhD/git/ReactivityQM/dep/xtb-6.5.1/bin/xtb --gfn 1 /lustre/hpc/kemi/ree/PhD/git/ReactivityQM/calculations/R02/reac01prodE10/conf10/R02_reac01prodE10_conf10_gfn1.xyz --opt --vfukui --chrg -1 --uhf 0 --alpb DMSO

   ID    Z sym.   atoms
    1    6 C      1, 3, 5, 7-10, 12, 14, 17-19, 22, 24
    2    8 O      2, 4, 13, 20, 23, 25
    3    7 N      6, 11, 15, 16, 21
    4    1 H      26-43

      * Solvation model:               ALPB
        Solvent                        DMSO
        Solvent mass                       7.8130E+01 g/mol
          :  Hamiltonian                  GFN1-xTB          :
 * total energy  :   -83.8048275 Eh     change       -0.2231104E-11 Eh
 * total energy  :   -83.8190425 Eh     change       -0.1421496E-01 Eh
 * total energy  :   -83.8245573 Eh     change       -0.5514863E-02 Eh
 * total energy  :   -83.8253306 Eh     change       -0.7733052E-03 Eh
 * total energy  :   -83.8258052 Eh     change       -0.4745660E-03 Eh
 * total energy  :   -83.8259181 Eh     change       -0.1128872E-03 Eh
 * total energy  :   -83.8260216 Eh     change       -0.1034985E-03 Eh
 * total energy  :   -83.8260757 Eh     change       -0.5410388E-04 Eh
 * total energy  :   -83.8261124 Eh     change       -0.3670411E-04 Eh
 * total energy  :   -83.8261366 Eh     change       -0.2425959E-04 Eh
 * total energy  :   -83.8262116 Eh     change       -0.2266188E-04 Eh
 * total energy  :   -83.8262349 Eh     change       -0.2324610E-04 Eh
 * total energy  :   -83.8262458 Eh     change       -0.1091551E-04 Eh
 * total energy  :   -83.8262648 Eh     change       -0.1898160E-04 Eh
 * total energy  :   -83.8262847 Eh     change       -0.1998660E-04 Eh
 * total energy  :   -83.8262945 Eh     change       -0.9775820E-05 Eh
 * total energy  :   -83.8263074 Eh     change       -0.1291734E-04 Eh
 * total energy  :   -83.8263169 Eh     change       -0.9423102E-05 Eh
 * total energy  :   -83.8263205 Eh     change       -0.3595797E-05 Eh
   *** GEOMETRY OPTIMIZATION CONVERGED AFTER 22 ITERATIONS ***

 final structure:
================
43
 xtb: 6.5.1 (579679a)
C            7.08164567731276        0.76047738742327       -0.63504859231566
O            5.89336827916754       -0.01458023486105       -0.61350138023768
C            4.79723990073172        0.60123721575529       -0.06617698226033
O            4.87668212891275        1.75686373477574        0.35763590608844
C            3.60568830936571       -0.21418070673090       -0.03881908419955
N            2.50333098569882        0.40740556104116        0.53266633084303
C            1.38479221808413       -0.21770588487604        0.63288417301068
C            0.20184746619599        0.43590679126131        1.32642016251189
C            0.29063827337634        1.96195840039664        1.17736937730116
C            0.27693966107654        0.02354690920822        2.80723880947167
N           -1.01255197632158       -0.10032055770477        0.70670088488309
C           -2.28275930265330        0.42901893801441        1.11586047189822
O           -2.46377531452281        0.94088314505919        2.25004904546769
C           -3.25360290526443        0.23664189251782        0.13577104421859
N           -3.08058405589115       -0.29808994214028       -1.12639285270665
N           -4.29660311228673       -0.22792241596323       -1.67163102254635
C           -4.49675068498104       -0.70602549074316       -3.01950482847158
C           -5.19339673263759        0.29809676272154       -0.87014915133144
C           -6.63571524167294        0.51354538765924       -1.13008437208890
O           -4.61885632915912        0.62287908702137        0.30148407952180
N            1.21634081500039       -1.51289749542023        0.21326808781497
C            2.24375867396935       -2.23591470744896       -0.39569173002099
O            2.05754924109749       -3.40381551006861       -0.78666802528638
C            3.47088232508839       -1.53235263215600       -0.50713321711966
O            4.50228388171657       -2.21790872692668       -1.09426209328435
H            7.84897763868094        0.15653663743946       -1.11876395505375
H            6.93405128246437        1.68819929469998       -1.19849599638134
H            7.40060071376518        1.01475047685198        0.38177260193876
H            1.25487231389342        2.30950668703824        1.54833488890056
H            0.19954766941195        2.23830375612080        0.12721425834691
H           -0.50570279606850        2.44301901104274        1.74300328729188
H            1.24971863139621        0.30210463894183        3.21275404828613
H           -0.50114619761314        0.51677079844018        3.38650804213025
H            0.15283640988523       -1.05548999554812        2.89432540256486
H           -0.94314233798815       -0.09632678605769       -0.30590281051361
H           -4.84148260114353        0.11286262057363       -3.64915458440552
H           -5.24210587533681       -1.49965953960653       -3.01865149245591
H           -3.54565422218705       -1.08460104004336       -3.38591044588245
H           -6.78427860913380        0.99459749272838       -2.09637477019477
H           -7.17338215176798       -0.43640178549336       -1.14215449412676
H           -7.05114397374244        1.14209512731782       -0.34522728927268
H            0.31470331688649       -1.95530234544180        0.30098654559400
H            4.16433760718772       -3.09771295682693       -1.33239527791668

          :  Hamiltonian                  GFN1-xTB          :
         :: total energy             -83.826320462022 Eh    ::
         :: gradient norm              0.000331294240 Eh/a0 ::
         :: HOMO-LUMO gap              0.038337066538 eV    ::
         :: SCC energy               -84.583150296580 Eh    ::
         :: -> Gsolv                  -0.129134224793 Eh    ::
         :: repulsion energy           0.782300685755 Eh    ::

    * Orbital Energies and Occupations

         #    Occupation            Energy/Eh            Energy/eV
      -------------------------------------------------------------
         1        2.0000           -0.8396775             -22.8488
       ...           ...                  ...                  ...
        56        2.0000           -0.4716868             -12.8353
        57        2.0000           -0.4654929             -12.6667
        58        2.0000           -0.4613730             -12.5546
        59        2.0000           -0.4466568             -12.1542
        60        2.0000           -0.4380573             -11.9201
        61        2.0000           -0.4367757             -11.8853
        62        2.0000           -0.4201747             -11.4335
        63        2.0000           -0.4158904             -11.3170
        64        2.0000           -0.4076000             -11.0914
        65        2.0000           -0.4045418             -11.0081
        66        2.0000           -0.3892882             -10.5931
        67        2.0000           -0.3851568             -10.4807
        68        1.3546           -0.2905426              -7.9061 (HOMO)
        69        0.6454           -0.2891337              -7.8677 (LUMO)
        70                         -0.2612985              -7.1103
        71                         -0.2371092              -6.4521
        72                         -0.1943416              -5.2883
        73                         -0.1530812              -4.1656
        74                         -0.1466332              -3.9901
        75                         -0.1387186              -3.7747
        76                         -0.1213214              -3.3013
        77                         -0.1112670              -3.0277
        78                         -0.1023971              -2.7864
        79                         -0.0992762              -2.7014
       ...                                ...                  ...
       136                          0.6932372              18.8639
      -------------------------------------------------------------
                  HL-Gap            0.0014089 Eh            0.0383 eV

Wiberg/Mayer (AO) data.
largest (>0.10) Wiberg bond orders for each atom

     #   Z sym  total        # sym  WBO       # sym  WBO       # sym  WBO
 ---------------------------------------------------------------------------
     1   6 C    3.902 --    26 H    0.987    28 H    0.980    27 H    0.980
                             2 O    0.930
     2   8 O    2.108 --     3 C    1.012     1 C    0.930     4 O    0.101
     3   6 C    3.743 --     4 O    1.530     5 C    1.134     2 O    1.012
     4   8 O    1.752 --     3 C    1.530     2 O    0.101
     5   6 C    3.803 --    24 C    1.313     6 N    1.136     3 C    1.134
     6   7 N    3.002 --     7 C    1.618     5 C    1.136
     7   6 C    3.902 --     6 N    1.618    21 N    1.139     8 C    0.977
     8   6 C    3.957 --     9 C    0.988    10 C    0.979     7 C    0.977
                            11 N    0.956
     9   6 C    3.993 --     8 C    0.988    30 H    0.987    29 H    0.984
                            31 H    0.984
    10   6 C    3.991 --    32 H    0.988    34 H    0.987     8 C    0.979
                            33 H    0.977
    11   7 N    3.083 --    12 C    0.997     8 C    0.956    35 H    0.928
    12   6 C    3.803 --    13 O    1.401    14 C    1.308    11 N    0.997
    13   8 O    1.657 --    12 C    1.401
    14   6 C    3.560 --    12 C    1.308    15 N    1.186    20 O    0.885
    15   7 N    2.682 --    14 C    1.186    16 N    1.160    18 C    0.196
    16   7 N    3.640 --    18 C    1.408    15 N    1.160    17 C    0.939
    17   6 C    3.935 --    38 H    0.983    37 H    0.979    36 H    0.978
                            16 N    0.939
    18   6 C    3.791 --    16 N    1.408    20 O    1.083    19 C    1.029
                            15 N    0.196
    19   6 C    3.987 --    18 C    1.029    41 H    0.980    39 H    0.971
                            40 H    0.962
    20   8 O    2.127 --    18 C    1.083    14 C    0.885
    21   7 N    3.324 --     7 C    1.139    22 C    1.055    42 H    0.893
    22   6 C    3.829 --    23 O    1.460    24 C    1.207    21 N    1.055
    23   8 O    1.745 --    22 C    1.460
    24   6 C    3.727 --     5 C    1.313    22 C    1.207    25 O    1.030
    25   8 O    1.979 --    24 C    1.030    43 H    0.834
    26   1 H    1.016 --     1 C    0.987
    27   1 H    1.014 --     1 C    0.980
    28   1 H    1.013 --     1 C    0.980
    29   1 H    1.018 --     9 C    0.984
    30   1 H    1.007 --     9 C    0.987
    31   1 H    1.015 --     9 C    0.984
    32   1 H    1.008 --    10 C    0.988
    33   1 H    1.025 --    10 C    0.977
    34   1 H    1.009 --    10 C    0.987
    35   1 H    0.976 --    11 N    0.928
    36   1 H    0.999 --    17 C    0.978
    37   1 H    0.999 --    17 C    0.979
    38   1 H    1.005 --    17 C    0.983
    39   1 H    0.997 --    19 C    0.971
    40   1 H    0.995 --    19 C    0.962
    41   1 H    0.997 --    19 C    0.980
    42   1 H    0.954 --    21 N    0.893
    43   1 H    0.876 --    25 O    0.834
 ---------------------------------------------------------------------------

           -------------------------------------------------
          | TOTAL ENERGY              -83.826320462022 Eh   |
          | GRADIENT NORM               0.000331294240 Eh/α |
          | HOMO-LUMO GAP               0.038337066538 eV   |
           -------------------------------------------------

 * finished run on 2023/06/20 at 15:10:33.082
