   * xtb version 6.5.1 (579679a) compiled by 'ehlert@majestix' on 2022-07-11
          program call               : /lustre/hpc/kemi/ree/PhD/git/ReactivityQM/dep/xtb-6.5.1/bin/xtb --gfn 1 /lustre/hpc/kemi/ree/PhD/git/ReactivityQM/calculations/R02oxygendeprot/reac01prodN07/conf02/R02oxygendeprot_reac01prodN07_conf02_gfn1.xyz --opt --vfukui --chrg 0 --uhf 0 --alpb DMSO

   ID    Z sym.   atoms
    1    6 C      1, 3, 5, 7-10, 12, 14, 17-19, 22, 24
    2    8 O      2, 4, 13, 20, 23, 25
    3    7 N      6, 11, 15, 16, 21
    4    1 H      26-42

      * Solvation model:               ALPB
        Solvent                        DMSO
        Solvent mass                       7.8130E+01 g/mol
          :  Hamiltonian                  GFN1-xTB          :
 * total energy  :   -82.9559328 Eh     change       -0.1310809E-09 Eh
 * total energy  :   -82.9728662 Eh     change       -0.1693345E-01 Eh
 * total energy  :   -82.9796057 Eh     change       -0.6739504E-02 Eh
 * total energy  :   -82.9806703 Eh     change       -0.1064591E-02 Eh
 * total energy  :   -82.9813373 Eh     change       -0.6669954E-03 Eh
 * total energy  :   -82.9816745 Eh     change       -0.3371897E-03 Eh
 * total energy  :   -82.9820419 Eh     change       -0.3674290E-03 Eh
 * total energy  :   -82.9823606 Eh     change       -0.3186978E-03 Eh
 * total energy  :   -82.9825825 Eh     change       -0.2218848E-03 Eh
 * total energy  :   -82.9826986 Eh     change       -0.1161117E-03 Eh
 * total energy  :   -82.9837081 Eh     change       -0.5058317E-04 Eh
 * total energy  :   -82.9837230 Eh     change       -0.1482201E-04 Eh
 * total energy  :   -82.9837398 Eh     change       -0.1682463E-04 Eh
 * total energy  :   -82.9837349 Eh     change        0.4916792E-05 Eh
 * total energy  :   -82.9837500 Eh     change       -0.1512196E-04 Eh
 * total energy  :   -82.9837611 Eh     change       -0.1106015E-04 Eh
 * total energy  :   -82.9837682 Eh     change       -0.7144069E-05 Eh
 * total energy  :   -82.9837754 Eh     change       -0.7206388E-05 Eh
 * total energy  :   -82.9837777 Eh     change       -0.2342218E-05 Eh
   *** GEOMETRY OPTIMIZATION CONVERGED AFTER 44 ITERATIONS ***

 final structure:
================
42
 xtb: 6.5.1 (579679a)
C            6.89151744247351        1.70952010469933       -0.35851788313562
O            5.74748202275073        1.16026616577807        0.28101486089318
C            4.71569241417904        0.83079576254821       -0.53474249693433
O            4.79063237646707        1.01974783544600       -1.74328883495233
C            3.56481337409109        0.24934209700674        0.14211345364302
N            2.54640107784168       -0.08490284502052       -0.73304368788864
C            1.47122541971009       -0.62339435911176       -0.30102898115294
C            0.37430895619232       -1.03790598182307       -1.25762841872988
C            0.51365322079221       -0.28908999150416       -2.58471471247758
C            0.41480949432586       -2.55356252567054       -1.47148215859385
N           -0.93510234960847       -0.72506328149860       -0.65138493948910
C           -1.24956181506954        0.49475145374143       -0.20340437425685
O           -0.53714293192691        1.47705418068481       -0.19138313723101
C           -2.65066380329431        0.55710634853126        0.34480162107807
N           -3.24933163405377        1.58732150590346        0.86155942401019
N           -4.47429870486452        1.14251652660748        1.20016635830460
C           -5.44040686805589        2.04432601335152        1.79340690228536
C           -4.59595306686351       -0.12964762172878        0.88786237544013
C           -5.75167109487590       -1.02432931002070        1.05042722721968
O           -3.45887640813653       -0.52314210983539        0.34912244657141
N            1.27427982366199       -0.90810632342834        1.03552033958643
C            2.18288247168598       -0.60262857654946        2.01745522126159
O            1.92171218134446       -0.85925992783170        3.18974532797478
C            3.47045814598094        0.03851436340806        1.54349051862887
O            4.33305877385823        0.32841622250541        2.39154901468038
H            6.63332352453299        2.62925713435856       -0.89280753517561
H            7.62014278183386        1.92834737305405        0.42137648252752
H            7.31527418560714        0.99532589874878       -1.07160070264044
H            0.47682785115099        0.78646824588203       -2.41562962923548
H            1.47283149375776       -0.54125204509800       -3.03609966436069
H           -0.29071716312746       -0.57495910886780       -3.25839261712043
H           -0.38004939744132       -2.85936980198298       -2.14856523692507
H            0.28698393446650       -3.07001179800685       -0.52181364510789
H            1.37444467553327       -2.83684342062812       -1.90228877045470
H           -1.63944164839203       -1.43911656148969       -0.65835883056014
H           -4.93083127871133        2.97536199184509        2.02937862180174
H           -6.24298557654121        2.22019262593983        1.07894933638517
H           -5.84372232537551        1.58650580247659        2.69430174229898
H           -6.30848294148139       -0.76824537204578        1.95002321070220
H           -6.41786974483825       -0.91437306497711        0.19152780218311
H           -5.40909420333590       -2.05698883448496        1.09249222675194
H            0.41344731375924       -1.33894179090332        1.32142974219051

          :  Hamiltonian                  GFN1-xTB          :
         :: total energy             -82.983777745031 Eh    ::
         :: gradient norm              0.000219919461 Eh/a0 ::
         :: HOMO-LUMO gap              0.424233042434 eV    ::
         :: SCC energy               -83.773651173391 Eh    ::
         :: -> Gsolv                  -0.148134315424 Eh    ::
         :: repulsion energy           0.815233218696 Eh    ::

    * Orbital Energies and Occupations

         #    Occupation            Energy/Eh            Energy/eV
      -------------------------------------------------------------
         1        2.0000           -0.9353395             -25.4519
       ...           ...                  ...                  ...
        55        2.0000           -0.5057431             -13.7620
        56        2.0000           -0.5029400             -13.6857
        57        2.0000           -0.4943088             -13.4508
        58        2.0000           -0.4896312             -13.3235
        59        2.0000           -0.4823207             -13.1246
        60        2.0000           -0.4674266             -12.7193
        61        2.0000           -0.4672439             -12.7144
        62        2.0000           -0.4604719             -12.5301
        63        2.0000           -0.4439864             -12.0815
        64        2.0000           -0.4393276             -11.9547
        65        2.0000           -0.4211849             -11.4610
        66        2.0000           -0.3829404             -10.4203
        67        1.9995           -0.3699693             -10.0674 (HOMO)
        68        0.0005           -0.3543790              -9.6431 (LUMO)
        69                         -0.3409650              -9.2781
        70                         -0.2737792              -7.4499
        71                         -0.2437432              -6.6326
        72                         -0.2353490              -6.4042
        73                         -0.2006223              -5.4592
        74                         -0.1831797              -4.9846
        75                         -0.1706512              -4.6437
        76                         -0.1335416              -3.6339
        77                         -0.1232382              -3.3535
        78                         -0.1223316              -3.3288
       ...                                ...                  ...
       134                          0.7524511              20.4752
      -------------------------------------------------------------
                  HL-Gap            0.0155903 Eh            0.4242 eV

Wiberg/Mayer (AO) data.
largest (>0.10) Wiberg bond orders for each atom

     #   Z sym  total        # sym  WBO       # sym  WBO       # sym  WBO
 ---------------------------------------------------------------------------
     1   6 C    3.898 --    27 H    0.987    28 H    0.980    26 H    0.980
                             2 O    0.924
     2   8 O    2.162 --     3 C    1.051     1 C    0.924     4 O    0.110
     3   6 C    3.850 --     4 O    1.577     5 C    1.111     2 O    1.051
     4   8 O    1.851 --     3 C    1.577     2 O    0.110
     5   6 C    3.912 --    24 C    1.271     6 N    1.153     3 C    1.111
                            25 O    0.129
     6   7 N    3.031 --     7 C    1.638     5 C    1.153
     7   6 C    3.933 --     6 N    1.638    21 N    1.090     8 C    0.973
     8   6 C    3.916 --     9 C    0.990    10 C    0.989     7 C    0.973
                            11 N    0.899
     9   6 C    3.989 --     8 C    0.990    31 H    0.987    29 H    0.982
                            30 H    0.982
    10   6 C    3.989 --     8 C    0.989    33 H    0.984    32 H    0.983
                            34 H    0.983
    11   7 N    3.387 --    12 C    1.299     8 C    0.899    35 H    0.891
                            13 O    0.201
    12   6 C    3.927 --    13 O    1.600    11 N    1.299    14 C    0.954
    13   8 O    1.918 --    12 C    1.600    11 N    0.201
    14   6 C    3.832 --    15 N    1.613    20 O    1.051    12 C    0.954
    15   7 N    2.977 --    14 C    1.613    16 N    1.148
    16   7 N    3.631 --    18 C    1.428    15 N    1.148    17 C    0.910
    17   6 C    3.887 --    36 H    0.978    38 H    0.971    37 H    0.968
                            16 N    0.910
    18   6 C    3.841 --    16 N    1.428    20 O    1.145    19 C    1.042
    19   6 C    3.961 --    18 C    1.042    41 H    0.965    39 H    0.963
                            40 H    0.933
    20   8 O    2.372 --    18 C    1.145    14 C    1.051
    21   7 N    3.422 --    22 C    1.158     7 C    1.090    42 H    0.899
                            23 O    0.135
    22   6 C    3.876 --    23 O    1.581    21 N    1.158    24 C    0.966
    23   8 O    1.861 --    22 C    1.581    21 N    0.135
    24   6 C    3.942 --    25 O    1.523     5 C    1.271    22 C    0.966
    25   8 O    1.827 --    24 C    1.523     5 C    0.129
    26   1 H    1.014 --     1 C    0.980
    27   1 H    1.015 --     1 C    0.987
    28   1 H    1.013 --     1 C    0.980
    29   1 H    1.010 --     9 C    0.982
    30   1 H    1.012 --     9 C    0.982
    31   1 H    1.002 --     9 C    0.987
    32   1 H    0.997 --    10 C    0.983
    33   1 H    0.999 --    10 C    0.984
    34   1 H    1.001 --    10 C    0.983
    35   1 H    0.929 --    11 N    0.891
    36   1 H    0.993 --    17 C    0.978
    37   1 H    0.990 --    17 C    0.968
    38   1 H    0.990 --    17 C    0.971
    39   1 H    0.988 --    19 C    0.963
    40   1 H    0.984 --    19 C    0.933
    41   1 H    0.985 --    19 C    0.965
    42   1 H    0.948 --    21 N    0.899
 ---------------------------------------------------------------------------

           -------------------------------------------------
          | TOTAL ENERGY              -82.983777745031 Eh   |
          | GRADIENT NORM               0.000219919461 Eh/α |
          | HOMO-LUMO GAP               0.424233042434 eV   |
           -------------------------------------------------

 * finished run on 2023/06/21 at 17:22:53.877
