   * xtb version 6.5.1 (579679a) compiled by 'ehlert@majestix' on 2022-07-11
          program call               : /lustre/hpc/kemi/ree/PhD/git/ReactivityQM/dep/xtb-6.5.1/bin/xtb --gfn 1 /lustre/hpc/kemi/ree/PhD/git/ReactivityQM/calculations/R02oxygendeprot/reac01prodE05/conf01/R02oxygendeprot_reac01prodE05_conf01_gfn1.xyz --opt --vfukui --chrg -2 --uhf 0 --alpb DMSO

   ID    Z sym.   atoms
    1    6 C      1, 3, 5, 6, 8, 11-14, 16, 18, 21, 22, 25
    2    8 O      2, 4, 7, 9, 17, 23
    3    7 N      10, 15, 19, 20, 24
    4    1 H      26-42

      * Solvation model:               ALPB
        Solvent                        DMSO
        Solvent mass                       7.8130E+01 g/mol
          :  Hamiltonian                  GFN1-xTB          :
 * total energy  :   -83.5570481 Eh     change       -0.1015692E-08 Eh
 * total energy  :   -83.5704717 Eh     change       -0.1342362E-01 Eh
 * total energy  :   -83.5761346 Eh     change       -0.5662883E-02 Eh
 * total energy  :   -83.5776279 Eh     change       -0.1493264E-02 Eh
 * total energy  :   -83.5785376 Eh     change       -0.9097051E-03 Eh
 * total energy  :   -83.5788982 Eh     change       -0.3606807E-03 Eh
 * total energy  :   -83.5791485 Eh     change       -0.2502941E-03 Eh
 * total energy  :   -83.5793362 Eh     change       -0.1876793E-03 Eh
 * total energy  :   -83.5795016 Eh     change       -0.1653363E-03 Eh
 * total energy  :   -83.5796637 Eh     change       -0.1621630E-03 Eh
 * total energy  :   -83.5887187 Eh     change       -0.2148104E-04 Eh
 * total energy  :   -83.5887435 Eh     change       -0.2479503E-04 Eh
 * total energy  :   -83.5887613 Eh     change       -0.1776723E-04 Eh
 * total energy  :   -83.5887750 Eh     change       -0.1372150E-04 Eh
 * total energy  :   -83.5887896 Eh     change       -0.1461261E-04 Eh
 * total energy  :   -83.5888006 Eh     change       -0.1093233E-04 Eh
 * total energy  :   -83.5888093 Eh     change       -0.8791927E-05 Eh
 * total energy  :   -83.5888160 Eh     change       -0.6641905E-05 Eh
 * total energy  :   -83.5888204 Eh     change       -0.4448904E-05 Eh
   *** GEOMETRY OPTIMIZATION CONVERGED AFTER 122 ITERATIONS ***

 final structure:
================
42
 xtb: 6.5.1 (579679a)
C           -2.28500895389628        3.37022956823768       -1.61892965497693
O           -2.67732562547935        2.05828565738611       -1.27154900553265
C           -1.90508410954688        1.44694032130799       -0.29590000442103
O           -0.95431993827293        2.07566344572830        0.19302805018522
C           -2.29579065782348        0.12660494598704        0.04984985242659
C           -3.30565284450311       -0.65058508559437       -0.55977392018992
O           -4.07279366617029       -0.28699544434605       -1.48471703277698
C           -3.37653929754099       -2.09484205301212       -0.07946461318837
O           -4.40422185442335       -2.80255272942299       -0.16773106844155
N           -2.21687482872285       -2.61123824766121        0.37676879332312
C           -1.12031988955352       -1.83832756693160        0.91537384509093
C            0.14483239045969       -1.93627893518810        0.03200538735424
C            0.87540914040188       -3.24295092463503        0.39275333255028
C           -0.11706850492993       -1.90197314251072       -1.49179146570606
N            0.98440632916247       -0.79247571568740        0.39968011568671
C            2.22164934993094       -0.54474757606979       -0.03941671069744
O            2.87740129326819       -1.25780872701803       -0.80601795728392
C            2.76021908423500        0.71677998774644        0.52339268627053
N            2.15911216564371        1.51928344540993        1.35993569302129
N            3.02286853789881        2.54768995560759        1.61198350153009
C            4.09193777627179        2.31264066871883        0.92159104254058
C            5.31933975830166        3.13946130275541        0.85702693250531
O            4.00089184705818        1.17455960300887        0.20999608511637
N           -1.51777720561231       -0.45719762692182        1.13550850346601
C           -2.21550022898844       -0.32460673996233        2.42641783228795
H           -2.36057624934255        4.04946455962815       -0.76077876444719
H           -2.95617558646356        3.71362099076739       -2.40736915681525
H           -1.25198335192871        3.39487131993214       -1.98782567581693
H           -2.25201364172075       -3.58226052991478        0.64552069742064
H            0.22605077128376       -4.08852263577007        0.16902687181566
H            1.80439601419401       -3.35886519206973       -0.16547105506040
H            1.09625187695791       -3.24984131228031        1.46008502471385
H           -0.79829373913378       -2.71047833790419       -1.75645709966343
H            0.81239769214583       -2.03388759818072       -2.04604381240638
H           -0.56831510694951       -0.95056600240543       -1.77676312047987
H            0.51720336122506       -0.09213856304230        0.98212960512493
H            6.17473739149846        2.57430785080181        1.22585561038130
H            5.18904595143195        4.03167307818948        1.46405148993550
H            5.52560245577677        3.42805237800975       -0.17320856515738
H           -3.20934152494808       -0.79691801001612        2.41424267906948
H           -2.33423410149560        0.73356098496113        2.67409079611439
H           -1.60854327968928       -0.80763036761879        3.19472125514885

          :  Hamiltonian                  GFN1-xTB          :
         :: total energy             -83.588820440791 Eh    ::
         :: gradient norm              0.000468828473 Eh/a0 ::
         :: HOMO-LUMO gap              0.132995455523 eV    ::
         :: SCC energy               -84.308289485561 Eh    ::
         :: -> Gsolv                  -0.279767895081 Eh    ::
         :: repulsion energy           0.747776659704 Eh    ::

    * Orbital Energies and Occupations

         #    Occupation            Energy/Eh            Energy/eV
      -------------------------------------------------------------
         1        2.0000           -0.8327913             -22.6614
       ...           ...                  ...                  ...
        56        2.0000           -0.4381054             -11.9215
        57        2.0000           -0.4331707             -11.7872
        58        2.0000           -0.4291204             -11.6770
        59        2.0000           -0.4257643             -11.5856
        60        2.0000           -0.4132084             -11.2440
        61        2.0000           -0.4107489             -11.1770
        62        2.0000           -0.4030149             -10.9666
        63        2.0000           -0.3996699             -10.8756
        64        2.0000           -0.3795014             -10.3268
        65        2.0000           -0.3542398              -9.6394
        66        2.0000           -0.3354988              -9.1294
        67        2.0000           -0.3221751              -8.7668
        68        1.8581           -0.2798505              -7.6151 (HOMO)
        69        0.1419           -0.2749630              -7.4821 (LUMO)
        70                         -0.2316310              -6.3030
        71                         -0.2252541              -6.1295
        72                         -0.1613489              -4.3905
        73                         -0.1599370              -4.3521
        74                         -0.1333467              -3.6285
        75                         -0.1102421              -2.9998
        76                         -0.0999265              -2.7191
        77                         -0.0915986              -2.4925
        78                         -0.0843783              -2.2960
        79                         -0.0788718              -2.1462
       ...                                ...                  ...
       134                          0.7469710              20.3261
      -------------------------------------------------------------
                  HL-Gap            0.0048875 Eh            0.1330 eV

Wiberg/Mayer (AO) data.
largest (>0.10) Wiberg bond orders for each atom

     #   Z sym  total        # sym  WBO       # sym  WBO       # sym  WBO
 ---------------------------------------------------------------------------
     1   6 C    3.917 --    27 H    0.987    26 H    0.980    28 H    0.980
                             2 O    0.946
     2   8 O    2.109 --     3 C    0.979     1 C    0.946
     3   6 C    3.853 --     4 O    1.496     5 C    1.249     2 O    0.979
     4   8 O    1.809 --     3 C    1.496
     5   6 C    3.890 --     6 C    1.309     3 C    1.249    24 N    0.965
                             7 O    0.126
     6   6 C    3.932 --     7 O    1.481     5 C    1.309     8 C    0.952
     7   8 O    1.779 --     6 C    1.481     5 C    0.126
     8   6 C    3.888 --     9 O    1.472    10 N    1.273     6 C    0.952
     9   8 O    1.752 --     8 C    1.472    10 N    0.155
    10   7 N    3.377 --     8 C    1.273    11 C    0.940    29 H    0.919
                             9 O    0.155
    11   6 C    3.211 --    24 N    0.965    12 C    0.955    10 N    0.940
    12   6 C    3.900 --    13 C    0.988    14 C    0.976    11 C    0.955
                            15 N    0.912
    13   6 C    3.992 --    12 C    0.988    32 H    0.987    30 H    0.987
                            31 H    0.984
    14   6 C    3.988 --    33 H    0.986    34 H    0.985    35 H    0.985
                            12 C    0.976
    15   7 N    3.370 --    16 C    1.303    12 C    0.912    36 H    0.878
                            17 O    0.180
    16   6 C    3.891 --    17 O    1.507    15 N    1.303    18 C    1.006
    17   8 O    1.813 --    16 C    1.507    15 N    0.180
    18   6 C    3.801 --    19 N    1.572    23 O    1.032    16 C    1.006
    19   7 N    2.939 --    18 C    1.572    20 N    1.185
    20   7 N    2.981 --    21 C    1.624    19 N    1.185
    21   6 C    3.860 --    20 N    1.624    23 O    1.072    22 C    1.027
    22   6 C    3.991 --    21 C    1.027    38 H    0.984    39 H    0.969
                            37 H    0.967
    23   8 O    2.277 --    21 C    1.072    18 C    1.032
    24   7 N    3.089 --    25 C    0.974     5 C    0.965    11 C    0.965
    25   6 C    3.986 --    42 H    0.989    41 H    0.989    40 H    0.981
                            24 N    0.974
    26   1 H    1.020 --     1 C    0.980
    27   1 H    1.019 --     1 C    0.987
    28   1 H    1.020 --     1 C    0.980
    29   1 H    0.985 --    10 N    0.919
    30   1 H    1.011 --    13 C    0.987
    31   1 H    1.017 --    13 C    0.984
    32   1 H    1.024 --    13 C    0.987
    33   1 H    1.015 --    14 C    0.986
    34   1 H    1.015 --    14 C    0.985
    35   1 H    1.019 --    14 C    0.985
    36   1 H    1.001 --    15 N    0.878
    37   1 H    0.999 --    22 C    0.967
    38   1 H    1.002 --    22 C    0.984
    39   1 H    0.999 --    22 C    0.969
    40   1 H    1.013 --    25 C    0.981
    41   1 H    1.023 --    25 C    0.989
    42   1 H    1.038 --    25 C    0.989
 ---------------------------------------------------------------------------

           -------------------------------------------------
          | TOTAL ENERGY              -83.588820440791 Eh   |
          | GRADIENT NORM               0.000468828473 Eh/α |
          | HOMO-LUMO GAP               0.132995455523 eV   |
           -------------------------------------------------

 * finished run on 2023/06/21 at 17:06:30.822
