   * xtb version 6.5.1 (579679a) compiled by 'ehlert@majestix' on 2022-07-11
          program call               : /lustre/hpc/kemi/ree/PhD/git/ReactivityQM/dep/xtb-6.5.1/bin/xtb --gfn 1 /lustre/hpc/kemi/ree/PhD/git/ReactivityQM/calculations/R03/reac01prodN01/conf02/R03_reac01prodN01_conf02_gfn1.xyz --opt --vfukui --chrg 1 --uhf 0 --alpb DMSO

   ID    Z sym.   atoms
    1    6 C      1, 3-7, 9, 10
    2    7 N      2
    3    9 F      8
    4    1 H      11-21

      * Solvation model:               ALPB
        Solvent                        DMSO
        Solvent mass                       7.8130E+01 g/mol
          :  Hamiltonian                  GFN1-xTB          :
 * total energy  :   -30.8261281 Eh     change       -0.2319922E-11 Eh
 * total energy  :   -30.8299253 Eh     change       -0.3797194E-02 Eh
 * total energy  :   -30.8305263 Eh     change       -0.6010215E-03 Eh
 * total energy  :   -30.8305914 Eh     change       -0.6502024E-04 Eh
 * total energy  :   -30.8306165 Eh     change       -0.2512071E-04 Eh
 * total energy  :   -30.8306262 Eh     change       -0.9695126E-05 Eh
 * total energy  :   -30.8306334 Eh     change       -0.7214973E-05 Eh
 * total energy  :   -30.8306384 Eh     change       -0.4992555E-05 Eh
   *** GEOMETRY OPTIMIZATION CONVERGED AFTER 8 ITERATIONS ***

 final structure:
================
21
 xtb: 6.5.1 (579679a)
C           -2.17559821404664        0.12581889332458        1.21254702934395
N           -2.10484828377119       -0.50065509716090       -0.12881583068394
C           -1.18216883885293        0.21468640963785       -1.07054185892392
C            0.24119668214254        0.12890951487075       -0.58741097819750
C            0.96306283816098       -1.05147956627102       -0.76305677800152
C            2.27684436073159       -1.14196012138548       -0.32945160467309
C            2.84830758177102       -0.03317695502861        0.27149913197603
F            4.11589338281143       -0.11144840991515        0.68551239462285
C            2.15927877787046        1.15222637159738        0.46026641060410
C            0.84357843736699        1.22584033919346        0.02649285110916
H           -1.18185970642747        0.11322168224230        1.65359261620173
H           -2.52942721671489        1.14740510889552        1.09849212498361
H           -2.86964326893447       -0.45324235786643        1.81628492827804
H           -1.80267109002340       -1.46738279897302       -0.03344760739724
H           -3.03406291047915       -0.50806933094331       -0.53826090124720
H           -1.52913365605828        1.24670377035765       -1.13239508004016
H           -1.30478332554117       -0.27303307504379       -2.03902833194369
H            0.49452177478837       -1.90120246497611       -1.24348593742116
H            2.84856131292793       -2.05194774956849       -0.45828161984184
H            2.64039580952710        1.99647039591566        0.93733357977417
H            0.28255655275138        2.14231544109686        0.16215546147777

          :  Hamiltonian                  GFN1-xTB          :
         :: total energy             -30.830638391803 Eh    ::
         :: gradient norm              0.000327186609 Eh/a0 ::
         :: HOMO-LUMO gap              4.525083619690 eV    ::
         :: SCC energy               -31.241737199533 Eh    ::
         :: -> Gsolv                  -0.102480063325 Eh    ::
         :: repulsion energy           0.421346622844 Eh    ::

    * Orbital Energies and Occupations

         #    Occupation            Energy/Eh            Energy/eV
      -------------------------------------------------------------
         1        2.0000           -0.8852891             -24.0899
       ...           ...                  ...                  ...
        15        2.0000           -0.5961437             -16.2219
        16        2.0000           -0.5818698             -15.8335
        17        2.0000           -0.5656223             -15.3914
        18        2.0000           -0.5643331             -15.3563
        19        2.0000           -0.5611164             -15.2688
        20        2.0000           -0.5586787             -15.2024
        21        2.0000           -0.5542907             -15.0830
        22        2.0000           -0.5350460             -14.5593
        23        2.0000           -0.5314369             -14.4611
        24        2.0000           -0.5182027             -14.1010
        25        2.0000           -0.4924871             -13.4013
        26        2.0000           -0.4714668             -12.8293
        27        2.0000           -0.4598305             -12.5126 (HOMO)
        28                         -0.2935367              -7.9875 (LUMO)
        29                         -0.2918704              -7.9422
        30                         -0.1831388              -4.9835
        31                         -0.1729785              -4.7070
        32                         -0.1688252              -4.5940
        33                         -0.1610440              -4.3822
        34                         -0.1381141              -3.7583
        35                         -0.1219226              -3.3177
        36                         -0.1120579              -3.0492
        37                         -0.1060693              -2.8863
        38                         -0.0988190              -2.6890
       ...                                ...                  ...
        62                          0.6264674              17.0470
      -------------------------------------------------------------
                  HL-Gap            0.1662938 Eh            4.5251 eV

Wiberg/Mayer (AO) data.
largest (>0.10) Wiberg bond orders for each atom

     #   Z sym  total        # sym  WBO       # sym  WBO       # sym  WBO
 ---------------------------------------------------------------------------
     1   6 C    3.898 --    12 H    0.984    11 H    0.983    13 H    0.981
                             2 N    0.922
     2   7 N    3.605 --     1 C    0.922     3 C    0.894    14 H    0.892
                            15 H    0.888
     3   6 C    3.902 --     4 C    1.008    16 H    0.975    17 H    0.969
                             2 N    0.894
     4   6 C    3.984 --    10 C    1.414     5 C    1.411     3 C    1.008
     5   6 C    3.993 --     6 C    1.450     4 C    1.411    18 H    0.969
                             9 C    0.109
     6   6 C    3.991 --     5 C    1.450     7 C    1.394    19 H    0.967
                            10 C    0.108
     7   6 C    3.866 --     9 C    1.398     6 C    1.394     8 F    0.941
     8   9 F    1.074 --     7 C    0.941
     9   6 C    3.991 --    10 C    1.445     7 C    1.398    20 H    0.967
                             5 C    0.109
    10   6 C    3.993 --     9 C    1.445     4 C    1.414    21 H    0.969
                             6 C    0.108
    11   1 H    0.999 --     1 C    0.983
    12   1 H    0.991 --     1 C    0.984
    13   1 H    0.989 --     1 C    0.981
    14   1 H    0.921 --     2 N    0.892
    15   1 H    0.909 --     2 N    0.888
    16   1 H    0.994 --     3 C    0.975
    17   1 H    0.993 --     3 C    0.969
    18   1 H    0.995 --     5 C    0.969
    19   1 H    0.995 --     6 C    0.967
    20   1 H    0.995 --     9 C    0.967
    21   1 H    0.997 --    10 C    0.969
 ---------------------------------------------------------------------------

           -------------------------------------------------
          | TOTAL ENERGY              -30.830638391803 Eh   |
          | GRADIENT NORM               0.000327186609 Eh/α |
          | HOMO-LUMO GAP               4.525083619690 eV   |
           -------------------------------------------------

 * finished run on 2023/06/20 at 15:13:50.863
