   * xtb version 6.5.1 (579679a) compiled by 'ehlert@majestix' on 2022-07-11
          program call               : /lustre/hpc/kemi/ree/PhD/git/ReactivityQM/dep/xtb-6.5.1/bin/xtb --gfn 1 /lustre/hpc/kemi/ree/PhD/git/ReactivityQM/calculations/R02oxygendeprot/reac01prodN01/conf14/R02oxygendeprot_reac01prodN01_conf14_gfn1.xyz --opt --vfukui --chrg 0 --uhf 0 --alpb DMSO

   ID    Z sym.   atoms
    1    6 C      1, 3, 5, 7-10, 12, 14, 17, 18, 20, 22, 24
    2    8 O      2, 4, 13, 19, 23, 25
    3    7 N      6, 11, 15, 16, 21
    4    1 H      26-42

      * Solvation model:               ALPB
        Solvent                        DMSO
        Solvent mass                       7.8130E+01 g/mol
          :  Hamiltonian                  GFN1-xTB          :
 * total energy  :   -82.8824577 Eh     change       -0.1293188E-10 Eh
 * total energy  :   -82.8993315 Eh     change       -0.1687375E-01 Eh
 * total energy  :   -82.9079377 Eh     change       -0.8606235E-02 Eh
 * total energy  :   -82.9104992 Eh     change       -0.2561489E-02 Eh
 * total energy  :   -82.9121251 Eh     change       -0.1625935E-02 Eh
 * total energy  :   -82.9129268 Eh     change       -0.8017091E-03 Eh
 * total energy  :   -82.9135571 Eh     change       -0.6302223E-03 Eh
 * total energy  :   -82.9140432 Eh     change       -0.4861774E-03 Eh
 * total energy  :   -82.9143700 Eh     change       -0.3267930E-03 Eh
 * total energy  :   -82.9145998 Eh     change       -0.2297439E-03 Eh
 * total energy  :   -82.9166466 Eh     change       -0.6250711E-04 Eh
 * total energy  :   -82.9166702 Eh     change       -0.2359827E-04 Eh
 * total energy  :   -82.9166955 Eh     change       -0.2528675E-04 Eh
 * total energy  :   -82.9167078 Eh     change       -0.1230997E-04 Eh
 * total energy  :   -82.9167075 Eh     change        0.3085530E-06 Eh
 * total energy  :   -82.9167224 Eh     change       -0.1490809E-04 Eh
 * total energy  :   -82.9167295 Eh     change       -0.7088409E-05 Eh
 * total energy  :   -82.9167348 Eh     change       -0.5261622E-05 Eh
 * total energy  :   -82.9167387 Eh     change       -0.3975040E-05 Eh
   *** GEOMETRY OPTIMIZATION CONVERGED AFTER 42 ITERATIONS ***

 final structure:
================
42
 xtb: 6.5.1 (579679a)
C           -2.70975701366440        3.45815633841593        0.28631181016055
O           -2.53645856446146        2.08822694762099       -0.05126278937926
C           -3.64854096304521        1.45423883969046       -0.54214218018860
O           -4.69646930247920        2.06358310477503       -0.67501636044763
C           -3.39546533613267        0.05713417564052       -0.84649468633360
N           -2.10456172555601       -0.36981854114754       -0.59649354913230
C           -1.75671688160839       -1.58376429589106       -0.81161660318533
C           -0.33213608447309       -2.01415770165212       -0.51593201309031
C            0.35266922357535       -2.58045607013458       -1.76502620181263
C           -0.29695896513868       -3.02102464690551        0.64074606658729
N            0.34307349653391       -0.77748152186695       -0.10646327598884
C            1.61550298604801       -0.67762242805921        0.24393415998482
O            2.45066789813363       -1.56620362314779        0.29619366617715
C            1.96481270797703        0.73952134146075        0.59048633522339
N            1.23470175955444        1.78771375552655        0.55436380318035
N            1.98630669091293        2.86340400499228        0.94342427291285
C            3.16938345848081        2.46824170108590        1.21462051252739
C            4.33254974174924        3.24540062938686        1.66855329063106
O            3.25044951221163        1.08448170526875        1.01095654025596
C            4.38429955353290        0.17750047225016        1.18546248241013
N           -2.63861977015579       -2.52235978595457       -1.29329309667058
C           -3.95216446385521       -2.24090349825769       -1.59539864652076
O           -4.67814516625978       -3.12990222764759       -2.02523926339613
C           -4.39628977932145       -0.81127550939535       -1.35790495735407
O           -5.57050884982341       -0.50269573941255       -1.61563124249327
H           -2.99747337204164        4.04262420151475       -0.59400102195622
H           -1.75298385838437        3.81335744010208        0.66648628232770
H           -3.47905066194724        3.57421472888891        1.05696791347276
H            1.38711314543364       -2.83210607312631       -1.54047663728558
H           -0.16243584908998       -3.48278766080448       -2.08869241800190
H            0.33075970500577       -1.84728906146953       -2.57003565653156
H            0.73077319489579       -3.30601284674369        0.85632483259120
H           -0.85910578619672       -3.91141246768898        0.36557099394195
H           -0.73962429441325       -2.58011068545258        1.53277479979609
H           -0.26933203933123        0.04472599552162       -0.09359470542936
H            5.15836924521423        3.14185833746418        0.96443584663841
H            4.04415078315890        4.29283721549429        1.73943476547549
H            4.66951237529007        2.89427193448950        2.64420966783325
H            4.09254779610702       -0.57086647233417        1.91913677162122
H            5.21628978821600        0.78074971761815        1.53446305657630
H            4.59067061518606       -0.27594976229815        0.21866954673740
H           -2.33180594984012       -3.46804296782190       -1.44881211186429

          :  Hamiltonian                  GFN1-xTB          :
         :: total energy             -82.916738743637 Eh    ::
         :: gradient norm              0.000613649005 Eh/a0 ::
         :: HOMO-LUMO gap              0.452122744762 eV    ::
         :: SCC energy               -83.700217446693 Eh    ::
         :: -> Gsolv                  -0.123923997538 Eh    ::
         :: repulsion energy           0.809824515486 Eh    ::

    * Orbital Energies and Occupations

         #    Occupation            Energy/Eh            Energy/eV
      -------------------------------------------------------------
         1        2.0000           -0.9639479             -26.2304
       ...           ...                  ...                  ...
        55        2.0000           -0.5075100             -13.8100
        56        2.0000           -0.5014041             -13.6439
        57        2.0000           -0.4999290             -13.6038
        58        2.0000           -0.4930426             -13.4164
        59        2.0000           -0.4825547             -13.1310
        60        2.0000           -0.4721643             -12.8482
        61        2.0000           -0.4664954             -12.6940
        62        2.0000           -0.4643399             -12.6353
        63        2.0000           -0.4498532             -12.2411
        64        2.0000           -0.4447021             -12.1010
        65        2.0000           -0.4295266             -11.6880
        66        2.0000           -0.3863149             -10.5122
        67        1.9997           -0.3740822             -10.1793 (HOMO)
        68        0.0003           -0.3574670              -9.7272 (LUMO)
        69                         -0.3092199              -8.4143
        70                         -0.2779849              -7.5644
        71                         -0.2502151              -6.8087
        72                         -0.2354618              -6.4072
        73                         -0.2041244              -5.5545
        74                         -0.1873050              -5.0968
        75                         -0.1735558              -4.7227
        76                         -0.1342627              -3.6535
        77                         -0.1287975              -3.5048
        78                         -0.1253059              -3.4097
       ...                                ...                  ...
       134                          0.7652879              20.8245
      -------------------------------------------------------------
                  HL-Gap            0.0166152 Eh            0.4521 eV

Wiberg/Mayer (AO) data.
largest (>0.10) Wiberg bond orders for each atom

     #   Z sym  total        # sym  WBO       # sym  WBO       # sym  WBO
 ---------------------------------------------------------------------------
     1   6 C    3.898 --    27 H    0.987    26 H    0.980    28 H    0.980
                             2 O    0.925
     2   8 O    2.133 --     3 C    1.021     1 C    0.925     4 O    0.109
     3   6 C    3.850 --     4 O    1.599     5 C    1.118     2 O    1.021
     4   8 O    1.875 --     3 C    1.599     2 O    0.109
     5   6 C    3.911 --    24 C    1.263     6 N    1.147     3 C    1.118
                            25 O    0.129
     6   7 N    3.072 --     7 C    1.622     5 C    1.147
     7   6 C    3.936 --     6 N    1.622    21 N    1.107     8 C    0.977
     8   6 C    3.920 --     9 C    0.984    10 C    0.981     7 C    0.977
                            11 N    0.912
     9   6 C    3.988 --    31 H    0.985     8 C    0.984    30 H    0.983
                            29 H    0.981
    10   6 C    3.988 --    34 H    0.985    33 H    0.983    32 H    0.981
                             8 C    0.981
    11   7 N    3.419 --    12 C    1.339     8 C    0.912    35 H    0.854
                            13 O    0.201
    12   6 C    3.931 --    13 O    1.557    11 N    1.339    14 C    0.962
    13   8 O    1.922 --    12 C    1.557    11 N    0.201
    14   6 C    3.795 --    15 N    1.709    12 C    0.962    19 O    0.883
    15   7 N    3.042 --    14 C    1.709    16 N    1.142
    16   7 N    3.024 --    17 C    1.703    15 N    1.142
    17   6 C    3.804 --    16 N    1.703    18 C    1.043    19 O    0.875
    18   6 C    3.970 --    17 C    1.043    37 H    0.970    36 H    0.952
                            38 H    0.951
    19   8 O    2.653 --    14 C    0.883    17 C    0.875    20 C    0.749
    20   6 C    3.727 --    40 H    0.975    39 H    0.968    41 H    0.968
                            19 O    0.749
    21   7 N    3.424 --    22 C    1.146     7 C    1.107    42 H    0.895
                            23 O    0.133
    22   6 C    3.874 --    23 O    1.595    21 N    1.146    24 C    0.962
    23   8 O    1.872 --    22 C    1.595    21 N    0.133
    24   6 C    3.942 --    25 O    1.535     5 C    1.263    22 C    0.962
    25   8 O    1.839 --    24 C    1.535     5 C    0.129
    26   1 H    1.013 --     1 C    0.980
    27   1 H    1.017 --     1 C    0.987
    28   1 H    1.013 --     1 C    0.980
    29   1 H    1.005 --     9 C    0.981
    30   1 H    0.999 --     9 C    0.983
    31   1 H    1.002 --     9 C    0.985
    32   1 H    1.005 --    10 C    0.981
    33   1 H    1.000 --    10 C    0.983
    34   1 H    1.002 --    10 C    0.985
    35   1 H    0.968 --    11 N    0.854
    36   1 H    0.989 --    18 C    0.952
    37   1 H    0.989 --    18 C    0.970
    38   1 H    0.988 --    18 C    0.951
    39   1 H    1.000 --    20 C    0.968
    40   1 H    0.991 --    20 C    0.975
    41   1 H    1.001 --    20 C    0.968
    42   1 H    0.943 --    21 N    0.895
 ---------------------------------------------------------------------------

           -------------------------------------------------
          | TOTAL ENERGY              -82.916738743637 Eh   |
          | GRADIENT NORM               0.000613649005 Eh/α |
          | HOMO-LUMO GAP               0.452122744762 eV   |
           -------------------------------------------------

 * finished run on 2023/06/21 at 17:17:02.464
