   * xtb version 6.5.1 (579679a) compiled by 'ehlert@majestix' on 2022-07-11
          program call               : /lustre/hpc/kemi/ree/PhD/git/ReactivityQM/dep/xtb-6.5.1/bin/xtb --gfn 1 /lustre/hpc/kemi/ree/PhD/git/ReactivityQM/calculations/RaltegravirCLI/reac02prodE11/conf02/RaltegravirCLI_reac02prodE11_conf02_gfn1.xyz --opt --vfukui --chrg -1 --uhf 0 --alpb DMSO

   ID    Z sym.   atoms
    1    6 C      1, 3-6, 9, 10, 13-17, 19-21, 23, 24
    2    7 N      2, 7, 8, 12
    3    8 O      11, 22, 25
    4    9 F      18
    5    1 H      26-47

      * Solvation model:               ALPB
        Solvent                        DMSO
        Solvent mass                       7.8130E+01 g/mol
          :  Hamiltonian                  GFN1-xTB          :
 * total energy  :   -80.1891390 Eh     change       -0.1568878E-10 Eh
 * total energy  :   -80.1985617 Eh     change       -0.9422742E-02 Eh
 * total energy  :   -80.2016252 Eh     change       -0.3063489E-02 Eh
 * total energy  :   -80.2026600 Eh     change       -0.1034843E-02 Eh
 * total energy  :   -80.2040858 Eh     change       -0.1425766E-02 Eh
 * total energy  :   -80.2062941 Eh     change       -0.2208269E-02 Eh
 * total energy  :   -80.2043293 Eh     change        0.1964751E-02 Eh
 * total energy  :   -80.2101154 Eh     change       -0.5786050E-02 Eh
 * total energy  :   -80.2125669 Eh     change       -0.2451515E-02 Eh
 * total energy  :   -80.2166138 Eh     change       -0.4046893E-02 Eh
 * total energy  :   -80.2327211 Eh     change       -0.2182218E-04 Eh
 * total energy  :   -80.2327575 Eh     change       -0.3646149E-04 Eh
 * total energy  :   -80.2327879 Eh     change       -0.3038967E-04 Eh
 * total energy  :   -80.2328120 Eh     change       -0.2409049E-04 Eh
 * total energy  :   -80.2328349 Eh     change       -0.2285801E-04 Eh
 * total energy  :   -80.2328550 Eh     change       -0.2012828E-04 Eh
 * total energy  :   -80.2328649 Eh     change       -0.9939829E-05 Eh
 * total energy  :   -80.2328747 Eh     change       -0.9707334E-05 Eh
 * total energy  :   -80.2328786 Eh     change       -0.3975925E-05 Eh
   *** GEOMETRY OPTIMIZATION CONVERGED AFTER 70 ITERATIONS ***

 final structure:
================
47
 xtb: 6.5.1 (579679a)
C           -3.73659245074297        2.19630957772536        0.38682848917161
N           -2.51799715089642        1.39238430220643        0.35278368159044
C           -2.51396968995187        0.03832862107403        0.00079835424433
C           -3.80746907787223       -0.75818539517338       -0.17223297821808
C           -3.49354745767844       -2.05507793957631       -0.94044577631529
C           -4.37448804468234       -1.12189193586615        1.20915296685911
N           -4.81559161176637        0.00471052028081       -0.91263903898145
N           -1.42841832086744       -0.64050841146543       -0.06109807819431
C           -0.17862387791716       -0.05735112701057        0.24792502187805
C            0.89031791774893       -1.00882669302160        0.48909521742106
O            0.76838306565639       -2.23966310490668        0.39145467873837
N            2.11695671657206       -0.45861671539256        0.81321739556296
C            3.18097853330279       -1.29590664470343        1.32641980729334
C            4.49116905157603       -1.04815882877575        0.61123702950676
C            5.69412382912953       -1.36719169034720        1.23887255050992
C            6.90757369104312       -1.15717044294447        0.59795930742147
C            6.89041482937282       -0.62383579723027       -0.67760813008692
F            8.06347527919606       -0.41334346186323       -1.30616854372054
C            5.71729014215893       -0.29699915578198       -1.33262153710788
C            4.51479367732275       -0.51613675056407       -0.67602574854990
C           -0.06645395502149        1.32099304572106        0.33014896550858
O            0.91908071916663        2.02226036712385        0.68651127190063
C           -1.32838033037716        2.12044663421474       -0.09602016713973
C           -1.33133198782861        2.30908801839764       -1.63085862673663
O           -1.26234036075617        3.37574908182646        0.52987311860016
H           -4.51211067242641        1.67625422330228        0.94476285003797
H           -3.51632378382416        3.13591176864784        0.89804503933892
H           -4.11609548868548        2.41812723294386       -0.61580089333042
H           -4.41085209551816       -2.61997327561073       -1.10001952174910
H           -3.05346411458411       -1.81711655188163       -1.90856763692497
H           -2.78817355046244       -2.66870471987064       -0.37947248520464
H           -4.68156393473957       -0.23050431854558        1.75451478348919
H           -3.61790051810636       -1.64603243837036        1.79373917943054
H           -5.24261753321774       -1.77151274886576        1.09825188505998
H           -5.69808409076263       -0.48437190425188       -0.86861750936355
H           -4.55144945887690        0.05527758232604       -1.88881863178668
H            2.14137124515249        0.51488072026515        1.09397196952391
H            3.31574825313719       -1.12910458677580        2.40349356225965
H            2.88818964680601       -2.34585940566222        1.18601537463284
H            5.68868391614091       -1.78104920955677        2.24089307277742
H            7.84692477694408       -1.39713144846669        1.07808254103024
H            5.74827679889766        0.11899775488982       -2.33131317256042
H            3.58030327909179       -0.26216657406425       -1.16594425485846
H           -0.34229711420436        3.43615077777769        0.87251451632852
H           -1.41995435164047        1.34441803848195       -2.12777433529957
H           -2.16009303206527        2.94779680088897       -1.93099341081506
H           -0.39787031294514        2.78430420844316       -1.92723815317512

          :  Hamiltonian                  GFN1-xTB          :
         :: total energy             -80.232878629873 Eh    ::
         :: gradient norm              0.000730681172 Eh/a0 ::
         :: HOMO-LUMO gap              1.820765117758 eV    ::
         :: SCC energy               -81.087714850304 Eh    ::
         :: -> Gsolv                  -0.103807151804 Eh    ::
         :: repulsion energy           0.885302238999 Eh    ::

    * Orbital Energies and Occupations

         #    Occupation            Energy/Eh            Energy/eV
      -------------------------------------------------------------
         1        2.0000           -0.8549043             -23.2631
       ...           ...                  ...                  ...
        56        2.0000           -0.4639333             -12.6243
        57        2.0000           -0.4568070             -12.4304
        58        2.0000           -0.4433841             -12.0651
        59        2.0000           -0.4410122             -12.0006
        60        2.0000           -0.4391789             -11.9507
        61        2.0000           -0.4231297             -11.5139
        62        2.0000           -0.4081334             -11.1059
        63        2.0000           -0.3982084             -10.8358
        64        2.0000           -0.3932631             -10.7012
        65        2.0000           -0.3924215             -10.6783
        66        2.0000           -0.3759323             -10.2296
        67        2.0000           -0.3657528              -9.9526
        68        2.0000           -0.3298602              -8.9760 (HOMO)
        69                         -0.2629483              -7.1552 (LUMO)
        70                         -0.2530044              -6.8846
        71                         -0.2241476              -6.0994
        72                         -0.2055137              -5.5923
        73                         -0.1332083              -3.6248
        74                         -0.1141095              -3.1051
        75                         -0.1089509              -2.9647
        76                         -0.1064465              -2.8966
        77                         -0.1046290              -2.8471
        78                         -0.1029828              -2.8023
        79                         -0.0955995              -2.6014
       ...                                ...                  ...
       144                          0.7074407              19.2504
      -------------------------------------------------------------
                  HL-Gap            0.0669119 Eh            1.8208 eV

Wiberg/Mayer (AO) data.
largest (>0.10) Wiberg bond orders for each atom

     #   Z sym  total        # sym  WBO       # sym  WBO       # sym  WBO
 ---------------------------------------------------------------------------
     1   6 C    3.965 --    27 H    0.983    26 H    0.982    28 H    0.980
                             2 N    0.960
     2   7 N    3.241 --     3 C    1.089     1 C    0.960    23 C    0.929
                             8 N    0.139
     3   6 C    3.941 --     8 N    1.672     2 N    1.089     4 C    0.971
     4   6 C    3.963 --     5 C    0.990     6 C    0.988     7 N    0.976
                             3 C    0.971
     5   6 C    3.996 --     4 C    0.990    29 H    0.987    30 H    0.985
                            31 H    0.982
     6   6 C    3.995 --     4 C    0.988    33 H    0.986    34 H    0.985
                            32 H    0.981
     7   7 N    2.978 --     4 C    0.976    36 H    0.948    35 H    0.948
     8   7 N    3.015 --     3 C    1.672     9 C    1.058     2 N    0.139
     9   6 C    3.900 --    21 C    1.399    10 C    1.134     8 N    1.058
                            22 O    0.127
    10   6 C    3.900 --    11 O    1.506    12 N    1.141     9 C    1.134
    11   8 O    1.807 --    10 C    1.506    12 N    0.121
    12   7 N    3.244 --    10 C    1.141    13 C    0.973    37 H    0.890
                            11 O    0.121
    13   6 C    3.970 --    14 C    1.002    12 N    0.973    38 H    0.970
                            39 H    0.954
    14   6 C    3.987 --    20 C    1.414    15 C    1.414    13 C    1.002
    15   6 C    3.994 --    16 C    1.444    14 C    1.414    40 H    0.972
                            19 C    0.110
    16   6 C    3.992 --    15 C    1.444    17 C    1.402    41 H    0.970
                            20 C    0.110
    17   6 C    3.857 --    19 C    1.402    16 C    1.402    18 F    0.916
    18   9 F    1.041 --    17 C    0.916
    19   6 C    3.992 --    20 C    1.443    17 C    1.402    42 H    0.970
                            15 C    0.110
    20   6 C    3.994 --    19 C    1.443    14 C    1.414    43 H    0.969
                            16 C    0.110
    21   6 C    3.935 --    22 O    1.436     9 C    1.399    23 C    0.913
    22   8 O    1.849 --    21 C    1.436     9 C    0.127
    23   6 C    3.883 --    24 C    0.967    25 O    0.966     2 N    0.929
                            21 C    0.913
    24   6 C    3.995 --    45 H    0.987    47 H    0.986    46 H    0.984
                            23 C    0.967
    25   8 O    1.899 --    23 C    0.966    44 H    0.819
    26   1 H    1.029 --     1 C    0.982
    27   1 H    1.021 --     1 C    0.983
    28   1 H    1.023 --     1 C    0.980
    29   1 H    1.007 --     5 C    0.987
    30   1 H    1.014 --     5 C    0.985
    31   1 H    1.024 --     5 C    0.982
    32   1 H    1.009 --     6 C    0.981
    33   1 H    1.009 --     6 C    0.986
    34   1 H    1.003 --     6 C    0.985
    35   1 H    0.963 --     7 N    0.948
    36   1 H    0.967 --     7 N    0.948
    37   1 H    0.966 --    12 N    0.890
    38   1 H    1.006 --    13 C    0.970
    39   1 H    1.023 --    13 C    0.954
    40   1 H    1.001 --    15 C    0.972
    41   1 H    0.999 --    16 C    0.970
    42   1 H    1.000 --    19 C    0.970
    43   1 H    1.012 --    20 C    0.969
    44   1 H    0.890 --    25 O    0.819
    45   1 H    1.008 --    24 C    0.987
    46   1 H    1.007 --    24 C    0.984
    47   1 H    1.009 --    24 C    0.986
 ---------------------------------------------------------------------------

           -------------------------------------------------
          | TOTAL ENERGY              -80.232878629873 Eh   |
          | GRADIENT NORM               0.000730681172 Eh/α |
          | HOMO-LUMO GAP               1.820765117758 eV   |
           -------------------------------------------------

 * finished run on 2023/06/20 at 15:13:49.024
