   * xtb version 6.5.1 (579679a) compiled by 'ehlert@majestix' on 2022-07-11
          program call               : /lustre/hpc/kemi/ree/PhD/git/ReactivityQM/dep/xtb-6.5.1/bin/xtb --gfn 1 /lustre/hpc/kemi/ree/PhD/git/ReactivityQM/calculations/R01/reac02prodE03/conf18/R01_reac02prodE03_conf18_gfn1.xyz --opt --vfukui --chrg -1 --uhf 0 --alpb DMSO

   ID    Z sym.   atoms
    1    6 C      1, 3, 5, 6, 8-11, 14, 16
    2    8 O      2, 4, 15, 17
    3    7 N      7, 12, 13
    4    1 H      18-33

      * Solvation model:               ALPB
        Solvent                        DMSO
        Solvent mass                       7.8130E+01 g/mol
          :  Hamiltonian                  GFN1-xTB          :
 * total energy  :   -58.5309669 Eh     change       -0.4376943E-11 Eh
 * total energy  :   -58.5449685 Eh     change       -0.1400167E-01 Eh
 * total energy  :   -58.5488410 Eh     change       -0.3872463E-02 Eh
 * total energy  :   -58.5494184 Eh     change       -0.5773718E-03 Eh
 * total energy  :   -58.5497677 Eh     change       -0.3493584E-03 Eh
 * total energy  :   -58.5498682 Eh     change       -0.1004785E-03 Eh
 * total energy  :   -58.5499422 Eh     change       -0.7399494E-04 Eh
 * total energy  :   -58.5499863 Eh     change       -0.4412159E-04 Eh
 * total energy  :   -58.5500317 Eh     change       -0.4542423E-04 Eh
 * total energy  :   -58.5500841 Eh     change       -0.5240006E-04 Eh
 * total energy  :   -58.5514600 Eh     change       -0.1028499E-04 Eh
 * total energy  :   -58.5514829 Eh     change       -0.2291360E-04 Eh
 * total energy  :   -58.5514919 Eh     change       -0.8901282E-05 Eh
 * total energy  :   -58.5515080 Eh     change       -0.1614274E-04 Eh
 * total energy  :   -58.5515166 Eh     change       -0.8571859E-05 Eh
 * total energy  :   -58.5515303 Eh     change       -0.1377046E-04 Eh
 * total energy  :   -58.5515397 Eh     change       -0.9319569E-05 Eh
 * total energy  :   -58.5515473 Eh     change       -0.7651014E-05 Eh
 * total energy  :   -58.5515505 Eh     change       -0.3229063E-05 Eh
   *** GEOMETRY OPTIMIZATION CONVERGED AFTER 44 ITERATIONS ***

 final structure:
================
33
 xtb: 6.5.1 (579679a)
C            2.95166088108402        1.93350921425668        1.12134002189662
O            1.94083404259622        1.14997709435388        0.49428625347686
C            2.34361921725345        0.37679471074853       -0.53583760837334
O            3.50380067041808        0.36742760988564       -0.91024457977632
C            1.25437708041043       -0.56846892448241       -1.05666677429726
C            1.56833055892279       -0.95206329705766       -2.50890801518385
N           -0.05609923464004        0.07397806654429       -1.00780053264396
C           -0.78365088285140       -0.07447588611514        0.03526982977506
C           -2.13818371888467        0.62144023873938        0.07972801740000
C           -2.34498511691644        1.35463259446836        1.41053275689485
C           -3.24030762404051       -0.43462774884391       -0.12731493020080
N           -2.17840191885113        1.61686080576017       -0.98868898375461
N           -0.43944833444910       -0.82533223135765        1.11818594099807
C            0.54768807828622       -1.88519171877339        0.97573356859380
O            0.52585369078284       -2.81491523747810        1.83265201165557
C            1.34727081428789       -1.73965032346684       -0.11396628272432
O            2.33955436724959       -2.70825263670273       -0.41964233760011
H            3.36974394463912        2.65542525029113        0.41339626361917
H            3.75925093281870        1.29669427645746        1.49493403565189
H            2.48135352051174        2.46045529062272        1.95012653807621
H            1.48512824251592       -0.07573213930428       -3.15119890200161
H            0.85943976225076       -1.70560641803260       -2.84841726601533
H            2.57827335136306       -1.35447981767592       -2.58158354531748
H           -3.29590244459068        1.88548870150729        1.38993716573108
H           -2.35999892125634        0.65816489195232        2.24706301991572
H           -1.54530379218628        2.07957719632065        1.56427424822598
H           -4.22074269323585        0.03796469686655       -0.09552091485809
H           -3.11652678703498       -0.91599748811437       -1.09693335974649
H           -3.19192292012489       -1.19360878541423        0.65304658480601
H           -1.91282576853854        1.17028918670549       -1.86181523591926
H           -3.12581171896899        1.95119397963757       -1.08980940118554
H           -1.14734780541979       -1.02805852914344        1.80519320434746
H            2.24127952660057       -3.41341162315306        0.23512820853617

          :  Hamiltonian                  GFN1-xTB          :
         :: total energy             -58.551550535032 Eh    ::
         :: gradient norm              0.000528035123 Eh/a0 ::
         :: HOMO-LUMO gap              1.979306802399 eV    ::
         :: SCC energy               -59.094612353741 Eh    ::
         :: -> Gsolv                  -0.111004957833 Eh    ::
         :: repulsion energy           0.562767367407 Eh    ::

    * Orbital Energies and Occupations

         #    Occupation            Energy/Eh            Energy/eV
      -------------------------------------------------------------
         1        2.0000           -0.8104986             -22.0548
       ...           ...                  ...                  ...
        36        2.0000           -0.4832571             -13.1501
        37        2.0000           -0.4778630             -13.0033
        38        2.0000           -0.4761110             -12.9556
        39        2.0000           -0.4699095             -12.7869
        40        2.0000           -0.4634704             -12.6117
        41        2.0000           -0.4539623             -12.3529
        42        2.0000           -0.4492888             -12.2258
        43        2.0000           -0.4336287             -11.7996
        44        2.0000           -0.3927652             -10.6877
        45        2.0000           -0.3910626             -10.6414
        46        2.0000           -0.3831004             -10.4247
        47        2.0000           -0.3720015             -10.1227
        48        2.0000           -0.3071441              -8.3578 (HOMO)
        49                         -0.2344059              -6.3785 (LUMO)
        50                         -0.2117521              -5.7621
        51                         -0.1299790              -3.5369
        52                         -0.1263754              -3.4389
        53                         -0.1142962              -3.1102
        54                         -0.1080567              -2.9404
        55                         -0.0963709              -2.6224
        56                         -0.0909847              -2.4758
        57                         -0.0683248              -1.8592
        58                         -0.0663120              -1.8044
        59                         -0.0656767              -1.7872
       ...                                ...                  ...
       100                          0.7065832              19.2271
      -------------------------------------------------------------
                  HL-Gap            0.0727382 Eh            1.9793 eV

Wiberg/Mayer (AO) data.
largest (>0.10) Wiberg bond orders for each atom

     #   Z sym  total        # sym  WBO       # sym  WBO       # sym  WBO
 ---------------------------------------------------------------------------
     1   6 C    3.894 --    20 H    0.987    18 H    0.981    19 H    0.981
                             2 O    0.916
     2   8 O    2.169 --     3 C    1.072     1 C    0.916     4 O    0.115
     3   6 C    3.809 --     4 O    1.626     2 O    1.072     5 C    0.922
     4   8 O    1.895 --     3 C    1.626     2 O    0.115
     5   6 C    3.966 --     6 C    0.988     7 N    0.972    16 C    0.954
                             3 C    0.922
     6   6 C    3.997 --    21 H    0.988     5 C    0.988    22 H    0.987
                            23 H    0.985
     7   7 N    2.976 --     8 C    1.679     5 C    0.972    13 N    0.156
     8   6 C    3.946 --     7 N    1.679    13 N    1.180     9 C    0.971
     9   6 C    3.968 --    10 C    0.993    12 N    0.988    11 C    0.978
                             8 C    0.971
    10   6 C    3.996 --     9 C    0.993    26 H    0.986    24 H    0.985
                            25 H    0.984
    11   6 C    3.995 --    28 H    0.986    27 H    0.985    29 H    0.984
                             9 C    0.978
    12   7 N    2.955 --     9 C    0.988    31 H    0.953    30 H    0.942
    13   7 N    3.300 --     8 C    1.180    32 H    0.914    14 C    0.909
                             7 N    0.156
    14   6 C    3.919 --    16 C    1.516    15 O    1.360    13 N    0.909
    15   8 O    1.704 --    14 C    1.360    16 C    0.169
    16   6 C    3.791 --    14 C    1.516     5 C    0.954    17 O    0.941
                            15 O    0.169
    17   8 O    1.913 --    16 C    0.941    33 H    0.859
    18   1 H    1.012 --     1 C    0.981
    19   1 H    1.012 --     1 C    0.981
    20   1 H    1.015 --     1 C    0.987
    21   1 H    1.011 --     6 C    0.988
    22   1 H    1.012 --     6 C    0.987
    23   1 H    1.017 --     6 C    0.985
    24   1 H    1.004 --    10 C    0.985
    25   1 H    1.005 --    10 C    0.984
    26   1 H    1.010 --    10 C    0.986
    27   1 H    1.005 --    11 C    0.985
    28   1 H    1.007 --    11 C    0.986
    29   1 H    1.004 --    11 C    0.984
    30   1 H    0.985 --    12 N    0.942
    31   1 H    0.967 --    12 N    0.953
    32   1 H    0.967 --    13 N    0.914
    33   1 H    0.892 --    17 O    0.859
 ---------------------------------------------------------------------------

           -------------------------------------------------
          | TOTAL ENERGY              -58.551550535032 Eh   |
          | GRADIENT NORM               0.000528035123 Eh/α |
          | HOMO-LUMO GAP               1.979306802399 eV   |
           -------------------------------------------------

 * finished run on 2023/06/20 at 14:58:45.667
