   * xtb version 6.5.1 (579679a) compiled by 'ehlert@majestix' on 2022-07-11
          program call               : /lustre/hpc/kemi/ree/PhD/git/ReactivityQM/dep/xtb-6.5.1/bin/xtb --gfn 1 /lustre/hpc/kemi/ree/PhD/git/ReactivityQM/calculations/R01/reac02prodN11/conf07/R01_reac02prodN11_conf07_gfn1.xyz --opt --vfukui --chrg 1 --uhf 0 --alpb DMSO

   ID    Z sym.   atoms
    1    6 C      1, 3, 5, 6, 8, 11-15
    2    8 O      2, 4, 7, 9
    3    7 N      10, 16, 17
    4    1 H      18-33

      * Solvation model:               ALPB
        Solvent                        DMSO
        Solvent mass                       7.8130E+01 g/mol
          :  Hamiltonian                  GFN1-xTB          :
 * total energy  :   -57.7925618 Eh     change       -0.4772716E-10 Eh
 * total energy  :   -57.8051469 Eh     change       -0.1258509E-01 Eh
 * total energy  :   -57.8095179 Eh     change       -0.4371054E-02 Eh
 * total energy  :   -57.8103521 Eh     change       -0.8341819E-03 Eh
 * total energy  :   -57.8107707 Eh     change       -0.4185324E-03 Eh
 * total energy  :   -57.8109131 Eh     change       -0.1424125E-03 Eh
 * total energy  :   -57.8110195 Eh     change       -0.1063828E-03 Eh
 * total energy  :   -57.8111048 Eh     change       -0.8536632E-04 Eh
 * total energy  :   -57.8111702 Eh     change       -0.6533996E-04 Eh
 * total energy  :   -57.8112184 Eh     change       -0.4823258E-04 Eh
 * total energy  :   -57.8113087 Eh     change       -0.1694191E-04 Eh
 * total energy  :   -57.8113256 Eh     change       -0.1684551E-04 Eh
 * total energy  :   -57.8113354 Eh     change       -0.9856078E-05 Eh
 * total energy  :   -57.8113445 Eh     change       -0.9029872E-05 Eh
 * total energy  :   -57.8113521 Eh     change       -0.7603292E-05 Eh
 * total energy  :   -57.8113612 Eh     change       -0.9134158E-05 Eh
 * total energy  :   -57.8113702 Eh     change       -0.9005208E-05 Eh
 * total energy  :   -57.8113783 Eh     change       -0.8148596E-05 Eh
 * total energy  :   -57.8113823 Eh     change       -0.3964522E-05 Eh
   *** GEOMETRY OPTIMIZATION CONVERGED AFTER 22 ITERATIONS ***

 final structure:
================
33
 xtb: 6.5.1 (579679a)
C            3.94131274028072        1.13832643695561        2.20158969068970
O            2.75625848995702        0.75592487782281        1.48334271554633
C            2.65455322331931       -0.50439601918099        1.13037394498700
O            3.48903785873992       -1.35685794891251        1.36544828432678
C            1.39478242544304       -0.82860630077972        0.40207658583531
C            1.15517398702158       -2.10781465688402       -0.01975089354395
O            1.98179810059662       -3.12498970661129        0.14101789391471
C           -0.07532132044723       -2.42337573895458       -0.75256439268865
O           -0.37745187465768       -3.41977797617237       -1.32501036152037
N           -1.10733953170869       -1.32964034692355       -0.67735357828323
C           -2.06623323789504       -1.76085593356655        0.39482020687688
C           -0.60001403461104        0.04496869399389       -0.41027960657744
C           -1.50715883742619        1.19592374768347       -0.78146025870639
C           -1.89526836537984        1.09730043083693       -2.26248472081660
C           -0.77578972101850        2.51530469452834       -0.50304459641555
N           -2.72170005651374        1.08730909611192        0.02252068652086
N            0.53705081894035        0.21355631255377        0.10710425185923
H            3.82453205512352        2.19207877265702        2.44419716635089
H            4.81915143694795        0.98137545530762        1.57193322197703
H            4.02955927363706        0.53928394167626        3.10985555528815
H            2.79268416914389       -2.83299288711832        0.63442646718987
H           -1.62332549594175       -1.34859592161129       -1.56004299143319
H           -2.41621667802538       -2.75844202743912        0.13992856604632
H           -2.88199975495486       -1.04014484825359        0.39208598006732
H           -1.54706782026836       -1.75618392242694        1.34865843527561
H           -1.00706676934977        1.01074387862706       -2.88628988642864
H           -2.44085973515958        1.99529813325387       -2.54824469767865
H           -2.54182267091759        0.23695447176577       -2.42964431798982
H           -1.44509228830079        3.34702324869998       -0.71397568963730
H            0.10809322174553        2.59520271682042       -1.13475200689751
H           -0.46928841213063        2.56066133386258        0.54058371924077
H           -2.54040639761366        1.42123361271183        0.96014229871725
H           -3.44456479857709        1.66420537896518       -0.38520667209360

          :  Hamiltonian                  GFN1-xTB          :
         :: total energy             -57.811382308999 Eh    ::
         :: gradient norm              0.000499021077 Eh/a0 ::
         :: HOMO-LUMO gap              1.121649059185 eV    ::
         :: SCC energy               -58.386286003871 Eh    ::
         :: -> Gsolv                  -0.099471397939 Eh    ::
         :: repulsion energy           0.594503057449 Eh    ::

    * Orbital Energies and Occupations

         #    Occupation            Energy/Eh            Energy/eV
      -------------------------------------------------------------
         1        2.0000           -0.9043586             -24.6089
       ...           ...                  ...                  ...
        35        2.0000           -0.5586299             -15.2011
        36        2.0000           -0.5421809             -14.7535
        37        2.0000           -0.5381188             -14.6430
        38        2.0000           -0.5335398             -14.5184
        39        2.0000           -0.5306401             -14.4395
        40        2.0000           -0.5267596             -14.3339
        41        2.0000           -0.5228554             -14.2276
        42        2.0000           -0.5167373             -14.0611
        43        2.0000           -0.5101930             -13.8831
        44        2.0000           -0.5055308             -13.7562
        45        2.0000           -0.4894004             -13.3173
        46        2.0000           -0.4803151             -13.0700
        47        2.0000           -0.4398988             -11.9703 (HOMO)
        48                         -0.3986789             -10.8486 (LUMO)
        49                         -0.3290290              -8.9533
        50                         -0.2980564              -8.1105
        51                         -0.2143876              -5.8338
        52                         -0.1726683              -4.6985
        53                         -0.1640825              -4.4649
        54                         -0.1480995              -4.0300
        55                         -0.1383425              -3.7645
        56                         -0.1294658              -3.5229
        57                         -0.1182464              -3.2176
        58                         -0.1130052              -3.0750
       ...                                ...                  ...
       100                          0.7265071              19.7693
      -------------------------------------------------------------
                  HL-Gap            0.0412198 Eh            1.1216 eV

Wiberg/Mayer (AO) data.
largest (>0.10) Wiberg bond orders for each atom

     #   Z sym  total        # sym  WBO       # sym  WBO       # sym  WBO
 ---------------------------------------------------------------------------
     1   6 C    3.848 --    18 H    0.985    20 H    0.977    19 H    0.977
                             2 O    0.876
     2   8 O    2.239 --     3 C    1.169     1 C    0.876     4 O    0.140
     3   6 C    3.861 --     4 O    1.615     2 O    1.169     5 C    0.999
     4   8 O    1.965 --     3 C    1.615     2 O    0.140
     5   6 C    3.962 --     6 C    1.514    17 N    1.112     3 C    0.999
                             7 O    0.114
     6   6 C    3.931 --     5 C    1.514     7 O    1.162     8 C    1.035
     7   8 O    2.125 --     6 C    1.162    21 H    0.747     5 C    0.114
     8   6 C    3.860 --     9 O    1.815     6 C    1.035    10 N    0.855
     9   8 O    2.074 --     8 C    1.815
    10   7 N    3.601 --    12 C    0.869    22 H    0.865    11 C    0.857
                             8 C    0.855
    11   6 C    3.857 --    25 H    0.985    23 H    0.978    24 H    0.960
                            10 N    0.857
    12   6 C    3.882 --    17 N    1.792    13 C    0.979    10 N    0.869
    13   6 C    3.957 --    15 C    0.988    12 C    0.979    14 C    0.978
                            16 N    0.976
    14   6 C    3.989 --    26 H    0.985    13 C    0.978    27 H    0.977
                            28 H    0.977
    15   6 C    3.990 --    13 C    0.988    30 H    0.983    29 H    0.983
                            31 H    0.983
    16   7 N    2.991 --    13 C    0.976    32 H    0.933    33 H    0.926
    17   7 N    3.086 --    12 C    1.792     5 C    1.112
    18   1 H    1.007 --     1 C    0.985
    19   1 H    1.002 --     1 C    0.977
    20   1 H    1.002 --     1 C    0.977
    21   1 H    0.829 --     7 O    0.747
    22   1 H    0.923 --    10 N    0.865
    23   1 H    0.991 --    11 C    0.978
    24   1 H    1.021 --    11 C    0.960
    25   1 H    0.991 --    11 C    0.985
    26   1 H    0.998 --    14 C    0.985
    27   1 H    0.995 --    14 C    0.977
    28   1 H    0.998 --    14 C    0.977
    29   1 H    0.999 --    15 C    0.983
    30   1 H    1.001 --    15 C    0.983
    31   1 H    1.005 --    15 C    0.983
    32   1 H    0.947 --    16 N    0.933
    33   1 H    0.941 --    16 N    0.926
 ---------------------------------------------------------------------------

           -------------------------------------------------
          | TOTAL ENERGY              -57.811382308999 Eh   |
          | GRADIENT NORM               0.000499021077 Eh/α |
          | HOMO-LUMO GAP               1.121649059185 eV   |
           -------------------------------------------------

 * finished run on 2023/06/20 at 15:11:32.614
