   * xtb version 6.5.1 (579679a) compiled by 'ehlert@majestix' on 2022-07-11
          program call               : /lustre/hpc/kemi/ree/PhD/git/ReactivityQM/dep/xtb-6.5.1/bin/xtb --gfn 1 /lustre/hpc/kemi/ree/PhD/git/ReactivityQM/calculations/R02methylcation/reac01prodN03/conf07/R02methylcation_reac01prodN03_conf07_gfn1.xyz --opt --vfukui --chrg 0 --uhf 0 --alpb DMSO

   ID    Z sym.   atoms
    1    6 C      1, 3, 5, 6, 8-11, 13, 15, 18, 19, 22, 24
    2    8 O      2, 4, 14, 20, 23, 25
    3    7 N      7, 12, 16, 17, 21
    4    1 H      26-42

      * Solvation model:               ALPB
        Solvent                        DMSO
        Solvent mass                       7.8130E+01 g/mol
          :  Hamiltonian                  GFN1-xTB          :
 * total energy  :   -82.9820691 Eh     change       -0.7062795E-11 Eh
 * total energy  :   -82.9947252 Eh     change       -0.1265612E-01 Eh
 * total energy  :   -82.9998064 Eh     change       -0.5081170E-02 Eh
 * total energy  :   -83.0007713 Eh     change       -0.9649281E-03 Eh
 * total energy  :   -83.0011974 Eh     change       -0.4260353E-03 Eh
 * total energy  :   -83.0013699 Eh     change       -0.1725869E-03 Eh
 * total energy  :   -83.0014943 Eh     change       -0.1243585E-03 Eh
 * total energy  :   -83.0015816 Eh     change       -0.8732438E-04 Eh
 * total energy  :   -83.0016604 Eh     change       -0.7875870E-04 Eh
 * total energy  :   -83.0017505 Eh     change       -0.9009938E-04 Eh
 * total energy  :   -83.0027184 Eh     change       -0.1404117E-04 Eh
 * total energy  :   -83.0027302 Eh     change       -0.1181439E-04 Eh
 * total energy  :   -83.0027411 Eh     change       -0.1093074E-04 Eh
 * total energy  :   -83.0027505 Eh     change       -0.9400538E-05 Eh
 * total energy  :   -83.0027613 Eh     change       -0.1075065E-04 Eh
 * total energy  :   -83.0027687 Eh     change       -0.7382732E-05 Eh
 * total energy  :   -83.0027759 Eh     change       -0.7199866E-05 Eh
 * total energy  :   -83.0027824 Eh     change       -0.6529332E-05 Eh
 * total energy  :   -83.0027864 Eh     change       -0.3962156E-05 Eh
   *** GEOMETRY OPTIMIZATION CONVERGED AFTER 42 ITERATIONS ***

 final structure:
================
42
 xtb: 6.5.1 (579679a)
C           -3.89710631988162        2.57445209025349       -2.25158143711924
O           -3.59821048751606        1.88870912917826       -1.02482970321458
C           -2.75274676869806        0.88331904775947       -1.08996459301370
O           -2.21634922575192        0.48615683625136       -2.08924643996120
C           -2.54623486869264        0.21340920495424        0.30098378774513
C           -2.78893336793335        1.19888501518494        1.44446218270378
N           -1.17550123552945       -0.23943021086109        0.32583224120729
C           -0.85927753878236       -1.39451270594903       -0.09022081622236
C            0.59611492235977       -1.81875853866748       -0.13109780836710
C            0.81907593111564       -2.99203925600442        0.83377022677276
C            0.99779195718140       -2.18692082987335       -1.56662260322470
N            1.37262266623811       -0.66540705251292        0.31009257075898
C            2.71581820620064       -0.64570207899258        0.39189129400177
O            3.45795525357281       -1.58192493128569        0.14850065528933
C            3.19887834466540        0.69369325049439        0.81973726863488
N            2.45918451557063        1.72796262394725        1.08622682547448
N            3.30702051955453        2.74270965574330        1.41644581723143
C            4.51036014188996        2.26190180043401        1.32978113880408
C            5.78669745973583        2.96709710703969        1.57942731905651
O            4.50747782094899        0.97333656698965        0.95769353487390
N           -1.78176235675269       -2.34407796266004       -0.50763656387888
C           -3.13035968535750       -2.22157401226430       -0.35189247574850
O           -3.90712558052232       -3.08544593492646       -0.68747729598603
C           -3.57042000439705       -0.90777413013560        0.30590881501074
O           -4.67831130466400       -0.77413139242346        0.75380570809961
H           -4.41015559104610        1.89695831195417       -2.93657752437398
H           -2.97329523533257        2.93055124464967       -2.71066982619437
H           -4.54013913990265        3.41027064721566       -1.98632995362310
H           -2.55312643572452        0.71353307280631        2.38951174118114
H           -3.83209134107213        1.50877151953875        1.45149205550232
H           -2.15160512169554        2.07122092030785        1.32078455603887
H            1.86381103939993       -3.29627063661295        0.80472790423081
H            0.19829450944295       -3.83665513779288        0.54320926202502
H            0.56148903365253       -2.69143227630851        1.84810464337934
H            0.40165065215349       -3.02431325251203       -1.92221706395194
H            0.84511225977594       -1.33322328268114       -2.22547605064414
H            2.04755298304734       -2.47369610090561       -1.58886717874390
H            0.84761354647922        0.17117507930500        0.54082539118240
H            5.58531607009405        3.98755212423966        1.89558203367813
H            6.38796878708245        2.97877254235493        0.66998091757925
H            6.35418407536118        2.44878870756811        2.35165023993612
H           -1.45923708626083       -3.21593577479677       -0.89932979614098

          :  Hamiltonian                  GFN1-xTB          :
         :: total energy             -83.002786362476 Eh    ::
         :: gradient norm              0.000539749066 Eh/a0 ::
         :: HOMO-LUMO gap              2.410835221650 eV    ::
         :: SCC energy               -83.790530715002 Eh    ::
         :: -> Gsolv                  -0.049783945267 Eh    ::
         :: repulsion energy           0.814313705432 Eh    ::

    * Orbital Energies and Occupations

         #    Occupation            Energy/Eh            Energy/eV
      -------------------------------------------------------------
         1        2.0000           -0.8641096             -23.5136
       ...           ...                  ...                  ...
        55        2.0000           -0.5134717             -13.9723
        56        2.0000           -0.5062751             -13.7764
        57        2.0000           -0.5060532             -13.7704
        58        2.0000           -0.5043158             -13.7231
        59        2.0000           -0.4942217             -13.4485
        60        2.0000           -0.4832163             -13.1490
        61        2.0000           -0.4731767             -12.8758
        62        2.0000           -0.4644220             -12.6376
        63        2.0000           -0.4639549             -12.6249
        64        2.0000           -0.4602809             -12.5249
        65        2.0000           -0.4524785             -12.3126
        66        2.0000           -0.4478113             -12.1856
        67        2.0000           -0.4440613             -12.0835 (HOMO)
        68                         -0.3554647              -9.6727 (LUMO)
        69                         -0.3103839              -8.4460
        70                         -0.2993143              -8.1448
        71                         -0.2731836              -7.4337
        72                         -0.2574665              -7.0060
        73                         -0.2278138              -6.1991
        74                         -0.1983636              -5.3977
        75                         -0.1485739              -4.0429
        76                         -0.1433281              -3.9002
        77                         -0.1428202              -3.8863
        78                         -0.1283530              -3.4927
       ...                                ...                  ...
       134                          0.7570928              20.6015
      -------------------------------------------------------------
                  HL-Gap            0.0885966 Eh            2.4108 eV

Wiberg/Mayer (AO) data.
largest (>0.10) Wiberg bond orders for each atom

     #   Z sym  total        # sym  WBO       # sym  WBO       # sym  WBO
 ---------------------------------------------------------------------------
     1   6 C    3.852 --    28 H    0.985    27 H    0.980    26 H    0.979
                             2 O    0.874
     2   8 O    2.231 --     3 C    1.158     1 C    0.874     4 O    0.140
     3   6 C    3.846 --     4 O    1.697     2 O    1.158     5 C    0.864
     4   8 O    1.965 --     3 C    1.697     2 O    0.140
     5   6 C    3.963 --     6 C    0.981     7 N    0.980    24 C    0.949
                             3 C    0.864
     6   6 C    3.984 --    31 H    0.985    29 H    0.983    30 H    0.982
                             5 C    0.981
     7   7 N    3.049 --     8 C    1.751     5 C    0.980
     8   6 C    3.926 --     7 N    1.751    21 N    1.071     9 C    0.980
     9   6 C    3.939 --     8 C    0.980    11 C    0.978    10 C    0.977
                            12 N    0.937
    10   6 C    3.987 --    34 H    0.985    33 H    0.984    32 H    0.978
                             9 C    0.977
    11   6 C    3.988 --    36 H    0.985    35 H    0.982     9 C    0.978
                            37 H    0.977
    12   7 N    3.354 --    13 C    1.261     9 C    0.937    38 H    0.877
                            14 O    0.180
    13   6 C    3.918 --    14 O    1.587    12 N    1.261    15 C    0.988
    14   8 O    1.907 --    13 C    1.587    12 N    0.180
    15   6 C    3.875 --    16 N    1.612    20 O    1.064    13 C    0.988
    16   7 N    3.014 --    15 C    1.612    17 N    1.199
    17   7 N    2.980 --    18 C    1.606    16 N    1.199
    18   6 C    3.871 --    17 N    1.606    20 O    1.083    19 C    1.031
    19   6 C    3.986 --    18 C    1.031    39 H    0.983    41 H    0.964
                            40 H    0.962
    20   8 O    2.330 --    18 C    1.083    15 C    1.064
    21   7 N    3.429 --    22 C    1.184     8 C    1.071    42 H    0.880
                            23 O    0.149
    22   6 C    3.893 --    23 O    1.677    21 N    1.184    24 C    0.906
    23   8 O    1.961 --    22 C    1.677    21 N    0.149
    24   6 C    3.848 --    25 O    1.813     5 C    0.949    22 C    0.906
    25   8 O    2.028 --    24 C    1.813
    26   1 H    1.003 --     1 C    0.979
    27   1 H    1.004 --     1 C    0.980
    28   1 H    1.007 --     1 C    0.985
    29   1 H    1.001 --     6 C    0.983
    30   1 H    1.008 --     6 C    0.982
    31   1 H    1.003 --     6 C    0.985
    32   1 H    1.007 --    10 C    0.978
    33   1 H    0.999 --    10 C    0.984
    34   1 H    1.001 --    10 C    0.985
    35   1 H    0.998 --    11 C    0.982
    36   1 H    1.001 --    11 C    0.985
    37   1 H    1.007 --    11 C    0.977
    38   1 H    0.968 --    12 N    0.877
    39   1 H    0.998 --    19 C    0.983
    40   1 H    0.997 --    19 C    0.962
    41   1 H    0.997 --    19 C    0.964
    42   1 H    0.928 --    21 N    0.880
 ---------------------------------------------------------------------------

           -------------------------------------------------
          | TOTAL ENERGY              -83.002786362476 Eh   |
          | GRADIENT NORM               0.000539749066 Eh/α |
          | HOMO-LUMO GAP               2.410835221650 eV   |
           -------------------------------------------------

 * finished run on 2023/06/21 at 17:32:32.491
