   * xtb version 6.5.1 (579679a) compiled by 'ehlert@majestix' on 2022-07-11
          program call               : /lustre/hpc/kemi/ree/PhD/git/ReactivityQM/dep/xtb-6.5.1/bin/xtb --gfn 1 /lustre/hpc/kemi/ree/PhD/git/ReactivityQM/calculations/R02deprot/reac01prodE08/conf04/R02deprot_reac01prodE08_conf04_gfn1.xyz --opt --vfukui --chrg -2 --uhf 0 --alpb DMSO

   ID    Z sym.   atoms
    1    6 C      1, 3, 5, 7-10, 12, 14, 15, 18, 19, 22, 24
    2    8 O      2, 4, 13, 20, 23, 25
    3    7 N      6, 11, 16, 17, 21
    4    1 H      26-42

      * Solvation model:               ALPB
        Solvent                        DMSO
        Solvent mass                       7.8130E+01 g/mol
          :  Hamiltonian                  GFN1-xTB          :
 * total energy  :   -83.6079073 Eh     change       -0.2592628E-09 Eh
 * total energy  :   -83.6230069 Eh     change       -0.1509963E-01 Eh
 * total energy  :   -83.6288360 Eh     change       -0.5829121E-02 Eh
 * total energy  :   -83.6297171 Eh     change       -0.8810708E-03 Eh
 * total energy  :   -83.6302421 Eh     change       -0.5250363E-03 Eh
 * total energy  :   -83.6304108 Eh     change       -0.1686741E-03 Eh
 * total energy  :   -83.6305602 Eh     change       -0.1493406E-03 Eh
 * total energy  :   -83.6307003 Eh     change       -0.1401130E-03 Eh
 * total energy  :   -83.6308471 Eh     change       -0.1468641E-03 Eh
 * total energy  :   -83.6309871 Eh     change       -0.1399297E-03 Eh
 * total energy  :   -83.6314786 Eh     change       -0.1575176E-04 Eh
 * total energy  :   -83.6314920 Eh     change       -0.1343965E-04 Eh
 * total energy  :   -83.6315017 Eh     change       -0.9658871E-05 Eh
 * total energy  :   -83.6315129 Eh     change       -0.1125454E-04 Eh
 * total energy  :   -83.6315175 Eh     change       -0.4580060E-05 Eh
 * total energy  :   -83.6315297 Eh     change       -0.1214867E-04 Eh
 * total energy  :   -83.6315336 Eh     change       -0.3882534E-05 Eh
 * total energy  :   -83.6315401 Eh     change       -0.6522570E-05 Eh
 * total energy  :   -83.6315435 Eh     change       -0.3466612E-05 Eh
   *** GEOMETRY OPTIMIZATION CONVERGED AFTER 28 ITERATIONS ***

 final structure:
================
42
 xtb: 6.5.1 (579679a)
C           -5.94043570713786       -0.99411299820880       -2.38685108238204
O           -4.97194885595251       -0.07446472408910       -1.88529663286738
C           -4.01201231632081       -0.61330808127939       -1.08639833651277
O           -4.00390140795418       -1.80574393988072       -0.83938099573173
C           -3.02717838791435        0.35932634952143       -0.58536160256930
N           -2.08149784945117       -0.20438089192942        0.23104846198739
C           -1.14731711346471        0.58593139428518        0.71158910734892
C           -0.09025279781339       -0.03782336373924        1.62200260244564
C           -0.37812421573118       -1.52350793197743        1.85930297568840
C           -0.07106862105495        0.72930074661408        2.95406235488841
N            1.19435517627063        0.12346448976718        0.94480306436672
C            2.38602183505154       -0.25487602516295        1.40723559035213
O            2.57977512622661       -0.86625969676051        2.45980387365761
C            3.54999962188084        0.17160383454714        0.43722289281377
C            4.61221222156462        0.90683556434562        1.27665349770860
N            3.02874977567873        0.99751692234563       -0.64049769456712
N            3.26597895092249        0.29504661115614       -1.79535060183970
C            3.86510649730590       -0.80438631889369       -1.52699258174190
C            4.31214547192554       -1.85715104772291       -2.48122915965392
O            4.11303937902717       -0.99605811675396       -0.16156368797127
N           -1.00437781778656        1.88871026165857        0.48595283691665
C           -1.90489866917538        2.53750586989338       -0.30168007424355
O           -1.82302510915681        3.75870799121547       -0.53061739275835
C           -2.98108552823610        1.70824606806232       -0.86845650619219
O           -3.86580827909660        2.37566728450249       -1.65733816860506
H           -6.63741555240262       -0.42327406885074       -2.99595815796721
H           -5.45537934768396       -1.76295334520492       -2.99471534241863
H           -6.47222284334135       -1.47330110688843       -1.56053868665614
H           -0.35920557582779       -2.06569306888905        0.91378525152095
H            0.36159621353587       -1.95267112284488        2.53356748209241
H           -1.36738672296890       -1.63465426077832        2.30163837653283
H            0.70639160336136        0.33979970285792        3.60981974100314
H            0.11417767322824        1.78714371194254        2.76438361025070
H           -1.03500529437776        0.62495205223302        3.45048330197310
H            1.23872136508383        0.69898445842448        0.09086247333841
H            4.92386629977222        0.28725040326770        2.11677347186705
H            4.19458505240230        1.84064923459254        1.64846290812176
H            5.47473012064876        1.12639141298425        0.65082786808811
H            5.40255215651735       -1.92979646653267       -2.50791238435570
H            3.92088908001338       -2.83604937888555       -2.19532246524298
H            3.95550505084436       -1.61153131856150       -3.48071583320693
H           -4.57084965841340        1.80093290961270       -1.98810335547289

          :  Hamiltonian                  GFN1-xTB          :
         :: total energy             -83.631543540447 Eh    ::
         :: gradient norm              0.000906623236 Eh/a0 ::
         :: HOMO-LUMO gap              0.180516945012 eV    ::
         :: SCC energy               -84.363084834351 Eh    ::
         :: -> Gsolv                  -0.274556872659 Eh    ::
         :: repulsion energy           0.757545964375 Eh    ::

    * Orbital Energies and Occupations

         #    Occupation            Energy/Eh            Energy/eV
      -------------------------------------------------------------
         1        2.0000           -0.8122338             -22.1020
       ...           ...                  ...                  ...
        56        2.0000           -0.4463943             -12.1470
        57        2.0000           -0.4441660             -12.0864
        58        2.0000           -0.4220404             -11.4843
        59        2.0000           -0.4106343             -11.1739
        60        2.0000           -0.4022921             -10.9469
        61        2.0000           -0.3979674             -10.8292
        62        2.0000           -0.3968649             -10.7992
        63        2.0000           -0.3880440             -10.5592
        64        2.0000           -0.3786982             -10.3049
        65        2.0000           -0.3611552              -9.8275
        66        2.0000           -0.3596312              -9.7861
        67        2.0000           -0.3516856              -9.5699
        68        1.9409           -0.2780023              -7.5648 (HOMO)
        69        0.0591           -0.2713684              -7.3843 (LUMO)
        70                         -0.2161084              -5.8806
        71                         -0.2032367              -5.5304
        72                         -0.1816083              -4.9418
        73                         -0.1649880              -4.4896
        74                         -0.1245641              -3.3896
        75                         -0.1087289              -2.9587
        76                         -0.0989278              -2.6920
        77                         -0.0946403              -2.5753
        78                         -0.0925205              -2.5176
        79                         -0.0894329              -2.4336
       ...                                ...                  ...
       134                          0.7351363              20.0041
      -------------------------------------------------------------
                  HL-Gap            0.0066339 Eh            0.1805 eV

Wiberg/Mayer (AO) data.
largest (>0.10) Wiberg bond orders for each atom

     #   Z sym  total        # sym  WBO       # sym  WBO       # sym  WBO
 ---------------------------------------------------------------------------
     1   6 C    3.884 --    26 H    0.987    28 H    0.981    27 H    0.981
                             2 O    0.907
     2   8 O    2.167 --     3 C    1.040     1 C    0.907     4 O    0.114
     3   6 C    3.803 --     4 O    1.624     5 C    1.050     2 O    1.040
     4   8 O    1.878 --     3 C    1.624     2 O    0.114
     5   6 C    3.952 --    24 C    1.456     6 N    1.198     3 C    1.050
     6   7 N    2.987 --     7 C    1.463     5 C    1.198
     7   6 C    3.956 --     6 N    1.463    21 N    1.370     8 C    0.966
     8   6 C    3.944 --     9 C    0.997    10 C    0.984     7 C    0.966
                            11 N    0.924
     9   6 C    3.996 --     8 C    0.997    31 H    0.987    29 H    0.985
                            30 H    0.984
    10   6 C    3.996 --    34 H    0.988     8 C    0.984    32 H    0.984
                            33 H    0.984
    11   7 N    3.369 --    12 C    1.320     8 C    0.924    35 H    0.864
                            13 O    0.169
    12   6 C    3.867 --    13 O    1.557    11 N    1.320    14 C    0.884
    13   8 O    1.855 --    12 C    1.557    11 N    0.169
    14   6 C    3.895 --    16 N    1.019    15 C    0.969    20 O    0.914
                            12 C    0.884
    15   6 C    3.992 --    37 H    0.988    36 H    0.986    38 H    0.986
                            14 C    0.969
    16   7 N    2.607 --    17 N    1.169    14 C    1.019    18 C    0.188
    17   7 N    3.003 --    18 C    1.672    16 N    1.169
    18   6 C    3.848 --    17 N    1.672    19 C    1.015    20 O    0.942
                            16 N    0.188
    19   6 C    3.996 --    18 C    1.015    41 H    0.987    40 H    0.978
                            39 H    0.976
    20   8 O    2.060 --    18 C    0.942    14 C    0.914
    21   7 N    2.969 --     7 C    1.370    22 C    1.232    23 O    0.123
    22   6 C    3.927 --    23 O    1.486    21 N    1.232    24 C    1.078
    23   8 O    1.769 --    22 C    1.486    21 N    0.123
    24   6 C    3.874 --     5 C    1.456    22 C    1.078    25 O    1.051
    25   8 O    2.034 --    24 C    1.051    42 H    0.827
    26   1 H    1.013 --     1 C    0.987
    27   1 H    1.011 --     1 C    0.981
    28   1 H    1.011 --     1 C    0.981
    29   1 H    1.017 --     9 C    0.985
    30   1 H    1.018 --     9 C    0.984
    31   1 H    1.016 --     9 C    0.987
    32   1 H    1.015 --    10 C    0.984
    33   1 H    1.021 --    10 C    0.984
    34   1 H    1.007 --    10 C    0.988
    35   1 H    0.998 --    11 N    0.864
    36   1 H    1.014 --    15 C    0.986
    37   1 H    1.015 --    15 C    0.988
    38   1 H    1.019 --    15 C    0.986
    39   1 H    1.009 --    19 C    0.976
    40   1 H    1.008 --    19 C    0.978
    41   1 H    1.010 --    19 C    0.987
    42   1 H    0.879 --    25 O    0.827
 ---------------------------------------------------------------------------

           -------------------------------------------------
          | TOTAL ENERGY              -83.631543540447 Eh   |
          | GRADIENT NORM               0.000906623236 Eh/α |
          | HOMO-LUMO GAP               0.180516945012 eV   |
           -------------------------------------------------

 * finished run on 2023/06/20 at 17:52:04.002
