                         Program Version 5.0.1 -  RELEASE  -
|  1> # ORCA input file
|  2> ! SP r2SCAN-3c CPCM
|  3>
|  4> %maxcore 1875.0
|  5> %pal nprocs 4 end
|  6> %cpcm smd true SMDsolvent "DMSO" end
|  7>
|  8> *xyz 1 1
|  9> C      -2.392102    0.780608    0.731374
| 10> C      -1.736332   -0.116857   -0.324004
| 11> F      -2.765144   -0.643690   -1.088306
| 12> C      -1.009975   -1.253168    0.332555
| 13> C       0.314407   -1.292954    0.430691
| 14> C       1.164837   -0.258395   -0.203328
| 15> C       2.619437   -0.489758   -0.342834
| 16> N       2.150231    0.398011    0.715240
| 17> C       0.474966    0.662318   -1.137250
| 18> C      -0.850437    0.691940   -1.224575
| 19> H      -2.956417    1.568998    0.236228
| 20> H      -3.064895    0.185597    1.346713
| 21> H      -1.625044    1.224673    1.360278
| 22> H      -1.630612   -2.030915    0.762121
| 23> H       0.826105   -2.097094    0.944823
| 24> H       3.169450    0.015625   -1.126274
| 25> H       3.051011   -1.413648    0.020626
| 26> H       2.201291    0.063879    1.665342
| 27> H       2.309615    1.387402    0.601574
| 28> H       1.103826    1.280696   -1.765683
| 29> H      -1.354217    1.336733   -1.935312
| 30> **                         ****END OF INPUT****

CARTESIAN COORDINATES (ANGSTROEM)
---------------------------------
  C     -2.392102    0.780608    0.731374
  C     -1.736332   -0.116857   -0.324004
  F     -2.765144   -0.643690   -1.088306
  C     -1.009975   -1.253168    0.332555
  C      0.314407   -1.292954    0.430691
  C      1.164837   -0.258395   -0.203328
  C      2.619437   -0.489758   -0.342834
  N      2.150231    0.398011    0.715240
  C      0.474966    0.662318   -1.137250
  C     -0.850437    0.691940   -1.224575
  H     -2.956417    1.568998    0.236228
  H     -3.064895    0.185597    1.346713
  H     -1.625044    1.224673    1.360278
  H     -1.630612   -2.030915    0.762121
  H      0.826105   -2.097094    0.944823
  H      3.169450    0.015625   -1.126274
  H      3.051011   -1.413648    0.020626
  H      2.201291    0.063879    1.665342
  H      2.309615    1.387402    0.601574
  H      1.103826    1.280696   -1.765683
  H     -1.354217    1.336733   -1.935312

 Total Charge           Charge          ....    1
 Multiplicity           Mult            ....    1
 Number of Electrons    NEL             ....   74
 Basis Dimension        Dim             ....  255

ORBITAL ENERGIES
----------------

  NO   OCC          E(Eh)            E(eV)
   0   2.0000     -24.480311      -666.1431
   1   2.0000     -14.278211      -388.5299
   2   2.0000     -10.133693      -275.7518
   3   2.0000     -10.132018      -275.7062
   4   2.0000     -10.105695      -274.9899
   5   2.0000     -10.059075      -273.7214
   6   2.0000     -10.058998      -273.7192
   7   2.0000     -10.055642      -273.6279
   8   2.0000     -10.055575      -273.6261
   9   2.0000     -10.028910      -272.9005
  10   2.0000      -1.169501       -31.8238
  11   2.0000      -1.023150       -27.8413
  12   2.0000      -0.832330       -22.6489
  13   2.0000      -0.753240       -20.4967
  14   2.0000      -0.746339       -20.3089
  15   2.0000      -0.709544       -19.3077
  16   2.0000      -0.646264       -17.5857
  17   2.0000      -0.616002       -16.7623
  18   2.0000      -0.592266       -16.1164
  19   2.0000      -0.553189       -15.0530
  20   2.0000      -0.541073       -14.7233
  21   2.0000      -0.508675       -13.8417
  22   2.0000      -0.461672       -12.5627
  23   2.0000      -0.443064       -12.0564
  24   2.0000      -0.440674       -11.9914
  25   2.0000      -0.425241       -11.5714
  26   2.0000      -0.414888       -11.2897
  27   2.0000      -0.405019       -11.0211
  28   2.0000      -0.401770       -10.9327
  29   2.0000      -0.371250       -10.1022
  30   2.0000      -0.366358        -9.9691
  31   2.0000      -0.358468        -9.7544
  32   2.0000      -0.358043        -9.7429
  33   2.0000      -0.312787        -8.5114
  34   2.0000      -0.301153        -8.1948
  35   2.0000      -0.262384        -7.1398
  36   2.0000      -0.260757        -7.0956
  37   0.0000      -0.067128        -1.8266
  38   0.0000      -0.034691        -0.9440
  39   0.0000       0.039009         1.0615
  40   0.0000       0.065217         1.7746
  41   0.0000       0.068856         1.8737

MULLIKEN ATOMIC CHARGES
-----------------------
   0 C :   -0.506511
   1 C :    0.437922
   2 F :   -0.278737
   3 C :   -0.219799
   4 C :   -0.298424
   5 C :    0.337817
   6 C :   -0.171962
   7 N :   -0.217633
   8 C :   -0.296652
   9 C :   -0.219337
  10 H :    0.180996
  11 H :    0.181153
  12 H :    0.185658
  13 H :    0.202896
  14 H :    0.197986
  15 H :    0.210262
  16 H :    0.210511
  17 H :    0.331297
  18 H :    0.331699
  19 H :    0.198082
  20 H :    0.202774
Sum of atomic charges:    1.0000000

LOEWDIN ATOMIC CHARGES
----------------------
   0 C :   -0.363799
   1 C :    0.130303
   2 F :   -0.357341
   3 C :   -0.111237
   4 C :   -0.124590
   5 C :    0.107326
   6 C :    0.056311
   7 N :   -0.464161
   8 C :   -0.124174
   9 C :   -0.111403
  10 H :    0.174334
  11 H :    0.174380
  12 H :    0.177095
  13 H :    0.198004
  14 H :    0.196825
  15 H :    0.218084
  16 H :    0.218247
  17 H :    0.305411
  18 H :    0.305515
  19 H :    0.196905
  20 H :    0.197965

  Mayer bond orders larger than 0.100000
B(  0-C ,  1-C ) :   0.9294 B(  0-C , 10-H ) :   0.9541 B(  0-C , 11-H ) :   0.9544
B(  0-C , 12-H ) :   0.9578 B(  1-C ,  2-F ) :   0.7735 B(  1-C ,  3-C ) :   1.0175
B(  1-C ,  9-C ) :   1.0177 B(  3-C ,  4-C ) :   1.7914 B(  3-C , 13-H ) :   0.9272
B(  4-C ,  5-C ) :   1.0636 B(  4-C , 14-H ) :   0.9183 B(  5-C ,  6-C ) :   1.0442
B(  5-C ,  7-N ) :   0.5958 B(  5-C ,  8-C ) :   1.0642 B(  6-C ,  7-N ) :   0.8909
B(  6-C , 15-H ) :   0.9085 B(  6-C , 16-H ) :   0.9084 B(  7-N , 17-H ) :   0.8847
B(  7-N , 18-H ) :   0.8846 B(  8-C ,  9-C ) :   1.7906 B(  8-C , 19-H ) :   0.9182
B(  9-C , 20-H ) :   0.9270

Dispersion correction           -0.006943346
FINAL SINGLE POINT ENERGY      -465.770063551511

DIPOLE MOMENT
-------------
                                X             Y             Z
Electronic contribution:     -2.34909      -2.34600      -3.17633
Nuclear contribution   :      6.98374       3.39752       4.96331
                        -----------------------------------------
Total Dipole Moment    :      4.63465       1.05152       1.78698
                        -----------------------------------------
Magnitude (a.u.)       :      5.07730
Magnitude (Debye)      :     12.90547

Rotational constants in cm-1:     0.098681     0.030008     0.028625
Rotational constants in MHz :  2958.388776   899.603235   858.163365

                             ****ORCA TERMINATED NORMALLY****
TOTAL RUN TIME: 0 days 0 hours 0 minutes 21 seconds 146 msec
