   * xtb version 6.5.1 (579679a) compiled by 'ehlert@majestix' on 2022-07-11
          program call               : /lustre/hpc/kemi/ree/PhD/git/ReactivityQM/dep/xtb-6.5.1/bin/xtb --gfn 1 /lustre/hpc/kemi/ree/PhD/git/ReactivityQM/calculations/R03/reac01prodN05/conf06/R03_reac01prodN05_conf06_gfn1.xyz --opt --vfukui --chrg 1 --uhf 0 --alpb DMSO

   ID    Z sym.   atoms
    1    6 C      1, 2, 4-7, 9, 10
    2    9 F      3
    3    7 N      8
    4    1 H      11-21

      * Solvation model:               ALPB
        Solvent                        DMSO
        Solvent mass                       7.8130E+01 g/mol
          :  Hamiltonian                  GFN1-xTB          :
 * total energy  :   -30.7528313 Eh     change       -0.1213607E-10 Eh
 * total energy  :   -30.7579128 Eh     change       -0.5081510E-02 Eh
 * total energy  :   -30.7610968 Eh     change       -0.3184085E-02 Eh
 * total energy  :   -30.7621380 Eh     change       -0.1041104E-02 Eh
 * total energy  :   -30.7629235 Eh     change       -0.7855399E-03 Eh
 * total energy  :   -30.7635464 Eh     change       -0.6229379E-03 Eh
 * total energy  :   -30.7642729 Eh     change       -0.7265018E-03 Eh
 * total energy  :   -30.7652492 Eh     change       -0.9762904E-03 Eh
 * total energy  :   -30.7669448 Eh     change       -0.1695611E-02 Eh
 * total energy  :   -30.7692878 Eh     change       -0.2342979E-02 Eh
 * total energy  :   -30.7875958 Eh     change        0.1009760E-03 Eh
 * total energy  :   -30.7885117 Eh     change       -0.9158818E-03 Eh
 * total energy  :   -30.7883776 Eh     change        0.1340988E-03 Eh
 * total energy  :   -30.7886347 Eh     change       -0.2570756E-03 Eh
 * total energy  :   -30.7886506 Eh     change       -0.1595018E-04 Eh
 * total energy  :   -30.7886797 Eh     change       -0.2908400E-04 Eh
 * total energy  :   -30.7886957 Eh     change       -0.1602583E-04 Eh
 * total energy  :   -30.7887076 Eh     change       -0.1188584E-04 Eh
 * total energy  :   -30.7887116 Eh     change       -0.3940637E-05 Eh
   *** GEOMETRY OPTIMIZATION CONVERGED AFTER 24 ITERATIONS ***

 final structure:
================
21
 xtb: 6.5.1 (579679a)
C           -2.39210201812991        0.78060790665321        0.73137421106472
C           -1.73633173673091       -0.11685653427196       -0.32400423212198
F           -2.76514424748354       -0.64368952066775       -1.08830618249693
C           -1.00997499846061       -1.25316845176124        0.33255524348618
C            0.31440711993150       -1.29295396283669        0.43069057309987
C            1.16483731726444       -0.25839505943401       -0.20332786310381
C            2.61943655942119       -0.48975797978662       -0.34283366236598
N            2.15023099881642        0.39801111026577        0.71524031107771
C            0.47496565628913        0.66231797638831       -1.13725019621510
C           -0.85043710246570        0.69193996633591       -1.22457506154064
H           -2.95641717352751        1.56899781577455        0.23622822038567
H           -3.06489535758882        0.18559744198452        1.34671287882865
H           -1.62504447930796        1.22467293839037        1.36027794039896
H           -1.63061180068939       -2.03091512583479        0.76212055506370
H            0.82610501425089       -2.09709436925486        0.94482321918366
H            3.16944985259185        0.01562480056486       -1.12627413460621
H            3.05101118774528       -1.41364823806683        0.02062611711296
H            2.20129094266658        0.06387945993195        1.66534206668073
H            2.30961462435303        1.38740214795641        0.60157389270738
H            1.10382623733652        1.28069601245826       -1.76568331696415
H           -1.35421659628295        1.33673266521073       -1.93531157967589

          :  Hamiltonian                  GFN1-xTB          :
         :: total energy             -30.788711564247 Eh    ::
         :: gradient norm              0.000696332262 Eh/a0 ::
         :: HOMO-LUMO gap              4.318093569788 eV    ::
         :: SCC energy               -31.184394117955 Eh    ::
         :: -> Gsolv                  -0.100225904328 Eh    ::
         :: repulsion energy           0.405910289731 Eh    ::

    * Orbital Energies and Occupations

         #    Occupation            Energy/Eh            Energy/eV
      -------------------------------------------------------------
         1        2.0000           -0.8869526             -24.1352
       ...           ...                  ...                  ...
        15        2.0000           -0.5880325             -16.0012
        16        2.0000           -0.5776567             -15.7188
        17        2.0000           -0.5756938             -15.6654
        18        2.0000           -0.5756742             -15.6649
        19        2.0000           -0.5708977             -15.5349
        20        2.0000           -0.5452762             -14.8377
        21        2.0000           -0.5446106             -14.8196
        22        2.0000           -0.5350702             -14.5600
        23        2.0000           -0.5345845             -14.5468
        24        2.0000           -0.5086322             -13.8406
        25        2.0000           -0.4953038             -13.4779
        26        2.0000           -0.4863684             -13.2348
        27        2.0000           -0.4769375             -12.9781 (HOMO)
        28                         -0.3182505              -8.6600 (LUMO)
        29                         -0.2915876              -7.9345
        30                         -0.1871164              -5.0917
        31                         -0.1670276              -4.5451
        32                         -0.1589410              -4.3250
        33                         -0.1540044              -4.1907
        34                         -0.1379494              -3.7538
        35                         -0.1214779              -3.3056
        36                         -0.1206829              -3.2839
        37                         -0.1025063              -2.7893
        38                         -0.1001590              -2.7255
       ...                                ...                  ...
        62                          0.5727132              15.5843
      -------------------------------------------------------------
                  HL-Gap            0.1586870 Eh            4.3181 eV

Wiberg/Mayer (AO) data.
largest (>0.10) Wiberg bond orders for each atom

     #   Z sym  total        # sym  WBO       # sym  WBO       # sym  WBO
 ---------------------------------------------------------------------------
     1   6 C    3.987 --    13 H    0.983    12 H    0.980    11 H    0.980
                             2 C    0.959
     2   6 C    3.875 --     4 C    0.999    10 C    0.999     1 C    0.959
                             3 F    0.872
     3   9 F    0.976 --     2 C    0.872
     4   6 C    3.987 --     5 C    1.909     2 C    0.999    14 H    0.963
     5   6 C    3.984 --     4 C    1.909     6 C    1.026    15 H    0.963
     6   6 C    3.865 --     5 C    1.026     9 C    1.026     7 C    0.946
                             8 N    0.816
     7   6 C    3.861 --    17 H    0.971    16 H    0.971     6 C    0.946
                             8 N    0.896
     8   7 N    3.525 --     7 C    0.896    19 H    0.872    18 H    0.872
                             6 C    0.816
     9   6 C    3.984 --    10 C    1.909     6 C    1.026    20 H    0.963
    10   6 C    3.987 --     9 C    1.909     2 C    0.999    21 H    0.963
    11   1 H    0.999 --     1 C    0.980
    12   1 H    0.999 --     1 C    0.980
    13   1 H    1.001 --     1 C    0.983
    14   1 H    0.995 --     4 C    0.963
    15   1 H    0.991 --     5 C    0.963
    16   1 H    0.988 --     7 C    0.971
    17   1 H    0.988 --     7 C    0.971
    18   1 H    0.902 --     8 N    0.872
    19   1 H    0.902 --     8 N    0.872
    20   1 H    0.991 --     9 C    0.963
    21   1 H    0.995 --    10 C    0.963
 ---------------------------------------------------------------------------

           -------------------------------------------------
          | TOTAL ENERGY              -30.788711564247 Eh   |
          | GRADIENT NORM               0.000696332262 Eh/α |
          | HOMO-LUMO GAP               4.318093569788 eV   |
           -------------------------------------------------

 * finished run on 2023/06/20 at 15:14:34.362
