   * xtb version 6.5.1 (579679a) compiled by 'ehlert@majestix' on 2022-07-11
          program call               : /lustre/hpc/kemi/ree/PhD/git/ReactivityQM/dep/xtb-6.5.1/bin/xtb --gfn 1 /lustre/hpc/kemi/ree/PhD/git/ReactivityQM/calculations/R02methylcation/reac01prodE04/conf08/R02methylcation_reac01prodE04_conf08_gfn1.xyz --opt --vfukui --chrg -2 --uhf 0 --alpb DMSO

   ID    Z sym.   atoms
    1    6 C      1, 3, 5, 6, 8-11, 13, 15, 18, 19, 22, 24
    2    8 O      2, 4, 14, 20, 23, 25
    3    7 N      7, 12, 16, 17, 21
    4    1 H      26-42

      * Solvation model:               ALPB
        Solvent                        DMSO
        Solvent mass                       7.8130E+01 g/mol
          :  Hamiltonian                  GFN1-xTB          :
 * total energy  :   -83.5771729 Eh     change       -0.6652101E-09 Eh
 * total energy  :   -83.5989006 Eh     change       -0.2172772E-01 Eh
 * total energy  :   -83.6060824 Eh     change       -0.7181746E-02 Eh
 * total energy  :   -83.6076311 Eh     change       -0.1548769E-02 Eh
 * total energy  :   -83.6085309 Eh     change       -0.8997505E-03 Eh
 * total energy  :   -83.6088884 Eh     change       -0.3575354E-03 Eh
 * total energy  :   -83.6091580 Eh     change       -0.2696207E-03 Eh
 * total energy  :   -83.6095062 Eh     change       -0.3482031E-03 Eh
 * total energy  :   -83.6099098 Eh     change       -0.4035698E-03 Eh
 * total energy  :   -83.6102989 Eh     change       -0.3891308E-03 Eh
 * total energy  :   -83.6151957 Eh     change       -0.1188239E-04 Eh
 * total energy  :   -83.6152066 Eh     change       -0.1090338E-04 Eh
 * total energy  :   -83.6152190 Eh     change       -0.1232388E-04 Eh
 * total energy  :   -83.6152339 Eh     change       -0.1492306E-04 Eh
 * total energy  :   -83.6152495 Eh     change       -0.1561069E-04 Eh
 * total energy  :   -83.6152615 Eh     change       -0.1195652E-04 Eh
 * total energy  :   -83.6152692 Eh     change       -0.7749327E-05 Eh
 * total energy  :   -83.6152743 Eh     change       -0.5094738E-05 Eh
 * total energy  :   -83.6152782 Eh     change       -0.3918935E-05 Eh
   *** GEOMETRY OPTIMIZATION CONVERGED AFTER 59 ITERATIONS ***

 final structure:
================
42
 xtb: 6.5.1 (579679a)
C           -6.12328209150213       -0.06597148257884       -0.16103801121688
O           -5.03685884704444        0.69647826642423        0.34577722398626
C           -3.79670603462439        0.32104785003776       -0.06500867508017
O           -3.63785832443367       -0.60555653145524       -0.84760626367707
C           -2.69231587763628        1.07420688561724        0.65587615362489
C           -3.07865148042702        2.52288941043369        0.96408960320972
N           -1.48502670432306        1.05987212625087       -0.15321295271967
C           -0.76089667784619        0.00169486713132       -0.11627424065837
C            0.40954046265379       -0.13942552917947       -1.07991584671477
C            0.01424084875200       -1.18012658661868       -2.13892519303714
C            0.71068552309872        1.21371294318228       -1.73776672512068
N            1.55711545306411       -0.61393549629841       -0.30024235273173
C            2.82183056419396       -0.72690690355166       -0.89666170351647
O            2.98909943776453       -0.89876610457656       -2.12164040192311
C            3.86379103293332       -0.67369207726975        0.08118747312945
N            3.70604432612581       -0.45826624975623        1.39053232556416
N            4.96058811043165       -0.44843386065647        1.93595387827728
C            5.80038974129194       -0.64822165331630        0.97395722045773
C            7.27962430816326       -0.70947742437944        1.07673661714376
O            5.20208900372509       -0.80192102036928       -0.23126323438590
N           -0.99370451365652       -1.05039334980818        0.71271963737154
C           -1.77496159694356       -0.91447464567333        1.90875203817242
O           -1.57914136656910       -1.78206864628621        2.80914172572585
C           -2.61742173430877        0.21883530710739        1.95482499026195
O           -3.34065294211363        0.56731887345612        2.94971337082515
H           -6.06346041626370       -1.10568104509153        0.17705192716280
H           -6.12764888092583       -0.05074374267815       -1.25522509351328
H           -7.03740324186268        0.39148720294272        0.21414077470763
H           -2.23427315737009        3.02985297325829        1.43130073379441
H           -3.33914049555374        3.05133520946580        0.04763407185938
H           -3.92749412854276        2.55071497190414        1.64661499149020
H           -0.11344008219964       -2.15670140251002       -1.67261092010273
H           -0.92777664761150       -0.88472029244810       -2.60155603350005
H            0.77790873650956       -1.25628123561446       -2.91050890816609
H            1.51431984212272        1.11285655926313       -2.46523348460910
H           -0.18301625170316        1.57909930498283       -2.24282981191931
H            1.00212215807744        1.94190198137862       -0.98125805987446
H            1.60906653435307       -0.20028572942955        0.62643395489627
H            7.57484224209377       -0.62802283323479        2.11998044486066
H            7.65112215083770       -1.64891654306489        0.66793263253820
H            7.73383397897297        0.10526031472970        0.51215074844696
H           -0.30712496167888       -1.78957466169484        0.74288137494674

          :  Hamiltonian                  GFN1-xTB          :
         :: total energy             -83.615278226580 Eh    ::
         :: gradient norm              0.000290356627 Eh/a0 ::
         :: HOMO-LUMO gap              0.038250105970 eV    ::
         :: SCC energy               -84.341976362212 Eh    ::
         :: -> Gsolv                  -0.272433549186 Eh    ::
         :: repulsion energy           0.753321265955 Eh    ::

    * Orbital Energies and Occupations

         #    Occupation            Energy/Eh            Energy/eV
      -------------------------------------------------------------
         1        2.0000           -0.8034392             -21.8627
       ...           ...                  ...                  ...
        56        2.0000           -0.4469492             -12.1621
        57        2.0000           -0.4428934             -12.0517
        58        2.0000           -0.4313965             -11.7389
        59        2.0000           -0.4246558             -11.5555
        60        2.0000           -0.4103456             -11.1661
        61        2.0000           -0.4068455             -11.0708
        62        2.0000           -0.4059458             -11.0463
        63        2.0000           -0.3996151             -10.8741
        64        2.0000           -0.3908706             -10.6361
        65        2.0000           -0.3798695             -10.3368
        66        2.0000           -0.3758247             -10.2267
        67        2.0000           -0.3460154              -9.4156
        68        1.3539           -0.2703103              -7.3555 (HOMO)
        69        0.6461           -0.2689047              -7.3173 (LUMO)
        70                         -0.2216710              -6.0320
        71                         -0.2117205              -5.7612
        72                         -0.2021137              -5.4998
        73                         -0.1427018              -3.8831
        74                         -0.1249366              -3.3997
        75                         -0.1227000              -3.3388
        76                         -0.1149439              -3.1278
        77                         -0.0955108              -2.5990
        78                         -0.0930000              -2.5307
        79                         -0.0890187              -2.4223
       ...                                ...                  ...
       134                          0.7124746              19.3874
      -------------------------------------------------------------
                  HL-Gap            0.0014057 Eh            0.0383 eV

Wiberg/Mayer (AO) data.
largest (>0.10) Wiberg bond orders for each atom

     #   Z sym  total        # sym  WBO       # sym  WBO       # sym  WBO
 ---------------------------------------------------------------------------
     1   6 C    3.897 --    28 H    0.987    27 H    0.981    26 H    0.981
                             2 O    0.921
     2   8 O    2.152 --     3 C    1.044     1 C    0.921     4 O    0.107
     3   6 C    3.777 --     4 O    1.595     2 O    1.044     5 C    0.945
     4   8 O    1.852 --     3 C    1.595     2 O    0.107
     5   6 C    3.959 --     6 C    0.992     7 N    0.981     3 C    0.945
                            24 C    0.875
     6   6 C    3.990 --     5 C    0.992    30 H    0.989    29 H    0.987
                            31 H    0.983
     7   7 N    2.941 --     8 C    1.655     5 C    0.981    21 N    0.147
     8   6 C    3.932 --     7 N    1.655    21 N    1.175     9 C    0.970
     9   6 C    3.949 --    11 C    0.992    10 C    0.985     8 C    0.970
                            12 N    0.939
    10   6 C    3.993 --    33 H    0.987    32 H    0.986     9 C    0.985
                            34 H    0.980
    11   6 C    3.993 --     9 C    0.992    37 H    0.986    36 H    0.985
                            35 H    0.984
    12   7 N    3.145 --    13 C    1.080     9 C    0.939    38 H    0.919
                            14 O    0.108
    13   6 C    3.750 --    14 O    1.456    15 C    1.148    12 N    1.080
    14   8 O    1.697 --    13 C    1.456    12 N    0.108
    15   6 C    3.698 --    16 N    1.399    13 C    1.148    20 O    0.980
    16   7 N    2.750 --    15 C    1.399    17 N    1.185
    17   7 N    2.980 --    18 C    1.628    16 N    1.185
    18   6 C    3.821 --    17 N    1.628    20 O    1.051    19 C    1.024
    19   6 C    3.994 --    18 C    1.024    39 H    0.986    40 H    0.972
                            41 H    0.970
    20   8 O    2.188 --    18 C    1.051    15 C    0.980
    21   7 N    3.324 --     8 C    1.175    22 C    0.960    42 H    0.912
                             7 N    0.147
    22   6 C    3.746 --    23 O    1.389    24 C    1.244    21 N    0.960
    23   8 O    1.602 --    22 C    1.389
    24   6 C    3.731 --    25 O    1.371    22 C    1.244     5 C    0.875
    25   8 O    1.575 --    24 C    1.371
    26   1 H    1.012 --     1 C    0.981
    27   1 H    1.014 --     1 C    0.981
    28   1 H    1.015 --     1 C    0.987
    29   1 H    1.013 --     6 C    0.987
    30   1 H    1.010 --     6 C    0.989
    31   1 H    1.027 --     6 C    0.983
    32   1 H    1.009 --    10 C    0.986
    33   1 H    1.009 --    10 C    0.987
    34   1 H    1.023 --    10 C    0.980
    35   1 H    1.014 --    11 C    0.984
    36   1 H    1.020 --    11 C    0.985
    37   1 H    1.011 --    11 C    0.986
    38   1 H    0.980 --    12 N    0.919
    39   1 H    1.004 --    19 C    0.986
    40   1 H    1.001 --    19 C    0.972
    41   1 H    1.001 --    19 C    0.970
    42   1 H    0.971 --    21 N    0.912
 ---------------------------------------------------------------------------

           -------------------------------------------------
          | TOTAL ENERGY              -83.615278226580 Eh   |
          | GRADIENT NORM               0.000290356627 Eh/α |
          | HOMO-LUMO GAP               0.038250105970 eV   |
           -------------------------------------------------

 * finished run on 2023/06/21 at 17:10:56.719
