   * xtb version 6.5.1 (579679a) compiled by 'ehlert@majestix' on 2022-07-11
          program call               : /lustre/hpc/kemi/ree/PhD/git/ReactivityQM/dep/xtb-6.5.1/bin/xtb --gfn 1 /lustre/hpc/kemi/ree/PhD/git/ReactivityQM/calculations/RaltegravirCLI/reac02prodE04/conf13/RaltegravirCLI_reac02prodE04_conf13_gfn1.xyz --opt --vfukui --chrg -1 --uhf 0 --alpb DMSO

   ID    Z sym.   atoms
    1    6 C      1, 3, 5, 7-9, 12-16, 18, 19, 21-24
    2    7 N      2, 11, 20, 25
    3    8 O      4, 6, 10
    4    9 F      17
    5    1 H      26-47

      * Solvation model:               ALPB
        Solvent                        DMSO
        Solvent mass                       7.8130E+01 g/mol
          :  Hamiltonian                  GFN1-xTB          :
 * total energy  :   -80.1905501 Eh     change       -0.2292211E-10 Eh
 * total energy  :   -80.2052407 Eh     change       -0.1469061E-01 Eh
 * total energy  :   -80.2088127 Eh     change       -0.3572008E-02 Eh
 * total energy  :   -80.2093875 Eh     change       -0.5748240E-03 Eh
 * total energy  :   -80.2098219 Eh     change       -0.4343538E-03 Eh
 * total energy  :   -80.2099472 Eh     change       -0.1252822E-03 Eh
 * total energy  :   -80.2100628 Eh     change       -0.1156761E-03 Eh
 * total energy  :   -80.2101423 Eh     change       -0.7943789E-04 Eh
 * total energy  :   -80.2102140 Eh     change       -0.7175468E-04 Eh
 * total energy  :   -80.2102698 Eh     change       -0.5582024E-04 Eh
 * total energy  :   -80.2103505 Eh     change       -0.1001805E-04 Eh
 * total energy  :   -80.2103704 Eh     change       -0.1999537E-04 Eh
 * total energy  :   -80.2103884 Eh     change       -0.1790570E-04 Eh
 * total energy  :   -80.2104039 Eh     change       -0.1553921E-04 Eh
 * total energy  :   -80.2104179 Eh     change       -0.1397932E-04 Eh
 * total energy  :   -80.2104256 Eh     change       -0.7719141E-05 Eh
 * total energy  :   -80.2104336 Eh     change       -0.7970998E-05 Eh
 * total energy  :   -80.2104402 Eh     change       -0.6616879E-05 Eh
 * total energy  :   -80.2104429 Eh     change       -0.2727343E-05 Eh
   *** GEOMETRY OPTIMIZATION CONVERGED AFTER 22 ITERATIONS ***

 final structure:
================
47
 xtb: 6.5.1 (579679a)
C           -3.93486686608425        0.58736408318540       -1.81551467954807
N           -2.77083184768567       -0.05736842397062       -1.22430076441197
C           -1.89617130967354       -0.77536035593215       -2.15892723005618
O           -2.30558246856489       -0.96350170271109       -3.34721019167057
C           -0.73533439492007       -1.21253186828179       -1.61439311851169
O            0.19895819459538       -1.92529818690027       -2.42946590649431
C           -0.26533223771277       -0.87064631145691       -0.23852596575505
C            0.48391275514031       -2.04580235107724        0.42911877131419
C            0.73322491421613        0.32409582250528       -0.24732196436511
O            0.71648042070426        1.23757789069269        0.57252318020583
N            1.62460670087900        0.29184080500976       -1.26304703684872
C            2.70048724871099        1.26358606496764       -1.36124668043578
C            3.97632437477306        0.72212726422097       -0.75088885566821
C            4.01783014879451        0.40482697389885        0.60652611988292
C            5.17256837242581       -0.10826360958383        1.17784775305555
C            6.27831974394649       -0.29466615123788        0.36712840593729
F            7.40286302604683       -0.79242464441276        0.91330658910303
C            6.27565254403295        0.01344303963857       -0.98020905113487
C            5.10943049307647        0.52482849214038       -1.53521294140023
N           -1.38872122145326       -0.50935306479591        0.61414120094295
C           -2.50040383015661       -0.09824541693155        0.11063036236735
C           -3.53689962989924        0.35602054788265        1.15082231020704
C           -3.65671888924929        1.88625533458298        1.14849102039328
C           -3.08513924510205       -0.09588235107430        2.55138343995382
N           -4.85034482056589       -0.22896762459927        0.86353907913567
H           -4.84916059905204        0.34157311279992       -1.27472487984283
H           -3.80821292785463        1.67480161174004       -1.83385774276743
H           -4.03355610202886        0.23567311604141       -2.84633953110233
H           -0.23229517091414       -2.03478521612815       -3.29087010215902
H           -0.17417150455102       -2.91262163324316        0.48326664800249
H            1.36850563017102       -2.30785172070416       -0.14971910281106
H            0.78447413276605       -1.76816601591142        1.43930424117030
H            1.67664091845431       -0.51147777184240       -1.87369582135416
H            2.85924561026102        1.51042640475240       -2.41465358575013
H            2.38676626525378        2.16936575909554       -0.82908582896132
H            3.13869415520337        0.56191979978869        1.22274479674213
H            5.22057350927115       -0.35736815068997        2.22993556312920
H            7.16250618752253       -0.14356625760130       -1.57947152856067
H            5.08911020747231        0.77243267801288       -2.59023533262958
H           -2.66791928458940        2.33733980411816        1.23757099605640
H           -4.12740761492980        2.24617555361955        0.23581058871191
H           -4.26482175424989        2.21057161705855        1.99267655906666
H           -3.84016835535940        0.18073328268827        3.28624132573025
H           -2.13955054026830        0.37604087844761        2.81838139859906
H           -2.95128838046162       -1.17689606857200        2.57424128545593
H           -4.82795670636211       -1.22105135935436        1.06240493348607
H           -5.53431985201159        0.18307832012797        1.48171727357826

          :  Hamiltonian                  GFN1-xTB          :
         :: total energy             -80.210442908075 Eh    ::
         :: gradient norm              0.000307285104 Eh/a0 ::
         :: HOMO-LUMO gap              0.895356347665 eV    ::
         :: SCC energy               -81.071944940376 Eh    ::
         :: -> Gsolv                  -0.109552308130 Eh    ::
         :: repulsion energy           0.892915177704 Eh    ::

    * Orbital Energies and Occupations

         #    Occupation            Energy/Eh            Energy/eV
      -------------------------------------------------------------
         1        2.0000           -0.8590951             -23.3772
       ...           ...                  ...                  ...
        56        2.0000           -0.4613665             -12.5544
        57        2.0000           -0.4544219             -12.3655
        58        2.0000           -0.4458264             -12.1316
        59        2.0000           -0.4454103             -12.1202
        60        2.0000           -0.4396252             -11.9628
        61        2.0000           -0.4319478             -11.7539
        62        2.0000           -0.4156350             -11.3100
        63        2.0000           -0.4134007             -11.2492
        64        2.0000           -0.3943819             -10.7317
        65        2.0000           -0.3756694             -10.2225
        66        2.0000           -0.3718739             -10.1192
        67        2.0000           -0.3604298              -9.8078
        68        2.0000           -0.3005646              -8.1788 (HOMO)
        69                         -0.2676609              -7.2834 (LUMO)
        70                         -0.2603974              -7.0858
        71                         -0.2169169              -5.9026
        72                         -0.2072554              -5.6397
        73                         -0.1395706              -3.7979
        74                         -0.1257286              -3.4212
        75                         -0.1137332              -3.0948
        76                         -0.1123569              -3.0574
        77                         -0.1029771              -2.8021
        78                         -0.0979956              -2.6666
        79                         -0.0972327              -2.6458
       ...                                ...                  ...
       144                          0.6937026              18.8766
      -------------------------------------------------------------
                  HL-Gap            0.0329037 Eh            0.8954 eV

Wiberg/Mayer (AO) data.
largest (>0.10) Wiberg bond orders for each atom

     #   Z sym  total        # sym  WBO       # sym  WBO       # sym  WBO
 ---------------------------------------------------------------------------
     1   6 C    3.959 --    27 H    0.981    26 H    0.976    28 H    0.974
                             2 N    0.958
     2   7 N    3.366 --    21 C    1.200     1 C    0.958     3 C    0.899
                            20 N    0.170
     3   6 C    3.919 --     5 C    1.553     4 O    1.337     2 N    0.899
     4   8 O    1.700 --     3 C    1.337     5 C    0.179
     5   6 C    3.777 --     3 C    1.553     7 C    0.991     6 O    0.924
                             4 O    0.179
     6   8 O    1.927 --     5 C    0.924    29 H    0.855
     7   6 C    3.968 --     5 C    0.991    20 N    0.978     8 C    0.967
                             9 C    0.906
     8   6 C    3.997 --    32 H    0.988    31 H    0.987    30 H    0.985
                             7 C    0.967
     9   6 C    3.865 --    10 O    1.584    11 N    1.253     7 C    0.906
    10   8 O    1.867 --     9 C    1.584    11 N    0.155
    11   7 N    3.321 --     9 C    1.253    12 C    0.951    33 H    0.894
                            10 O    0.155
    12   6 C    3.959 --    13 C    0.995    34 H    0.978    35 H    0.965
                            11 N    0.951
    13   6 C    3.988 --    19 C    1.423    14 C    1.411    12 C    0.995
    14   6 C    3.993 --    15 C    1.449    13 C    1.411    36 H    0.970
                            18 C    0.111
    15   6 C    3.992 --    14 C    1.449    16 C    1.397    37 H    0.970
                            19 C    0.109
    16   6 C    3.858 --    18 C    1.406    15 C    1.397    17 F    0.920
    17   9 F    1.046 --    16 C    0.920
    18   6 C    3.991 --    19 C    1.437    16 C    1.406    38 H    0.970
                            14 C    0.111
    19   6 C    3.994 --    18 C    1.437    13 C    1.423    39 H    0.971
                            15 C    0.109
    20   7 N    2.976 --    21 C    1.643     7 C    0.978     2 N    0.170
    21   6 C    3.947 --    20 N    1.643     2 N    1.200    22 C    0.964
    22   6 C    3.963 --    24 C    0.992    23 C    0.991    25 N    0.975
                            21 C    0.964
    23   6 C    3.996 --    22 C    0.991    40 H    0.986    42 H    0.985
                            41 H    0.981
    24   6 C    3.997 --    22 C    0.992    43 H    0.987    45 H    0.985
                            44 H    0.983
    25   7 N    2.988 --    22 C    0.975    47 H    0.949    46 H    0.947
    26   1 H    1.035 --     1 C    0.976
    27   1 H    1.014 --     1 C    0.981
    28   1 H    1.027 --     1 C    0.974
    29   1 H    0.894 --     6 O    0.855
    30   1 H    1.014 --     8 C    0.985
    31   1 H    1.013 --     8 C    0.987
    32   1 H    1.012 --     8 C    0.988
    33   1 H    0.962 --    11 N    0.894
    34   1 H    1.006 --    12 C    0.978
    35   1 H    1.015 --    12 C    0.965
    36   1 H    1.009 --    14 C    0.970
    37   1 H    0.999 --    15 C    0.970
    38   1 H    0.999 --    18 C    0.970
    39   1 H    1.001 --    19 C    0.971
    40   1 H    1.007 --    23 C    0.986
    41   1 H    1.009 --    23 C    0.981
    42   1 H    1.004 --    23 C    0.985
    43   1 H    1.007 --    24 C    0.987
    44   1 H    1.022 --    24 C    0.983
    45   1 H    1.018 --    24 C    0.985
    46   1 H    0.965 --    25 N    0.947
    47   1 H    0.964 --    25 N    0.949
 ---------------------------------------------------------------------------

           -------------------------------------------------
          | TOTAL ENERGY              -80.210442908075 Eh   |
          | GRADIENT NORM               0.000307285104 Eh/α |
          | HOMO-LUMO GAP               0.895356347665 eV   |
           -------------------------------------------------

 * finished run on 2023/06/20 at 15:00:09.183
