   * xtb version 6.5.1 (579679a) compiled by 'ehlert@majestix' on 2022-07-11
          program call               : /lustre/hpc/kemi/ree/PhD/git/ReactivityQM/dep/xtb-6.5.1/bin/xtb --gfn 1 /lustre/hpc/kemi/ree/PhD/git/ReactivityQM/calculations/R02/reac01prodN07/conf04/R02_reac01prodN07_conf04_gfn1.xyz --opt --vfukui --chrg 1 --uhf 0 --alpb DMSO

   ID    Z sym.   atoms
    1    6 C      1, 3, 5, 7-10, 12, 14, 17-19, 22, 24
    2    8 O      2, 4, 13, 20, 23, 25
    3    7 N      6, 11, 15, 16, 21
    4    1 H      26-43

      * Solvation model:               ALPB
        Solvent                        DMSO
        Solvent mass                       7.8130E+01 g/mol
          :  Hamiltonian                  GFN1-xTB          :
 * total energy  :   -83.1581945 Eh     change       -0.1470823E-10 Eh
 * total energy  :   -83.1750881 Eh     change       -0.1689360E-01 Eh
 * total energy  :   -83.1807893 Eh     change       -0.5701147E-02 Eh
 * total energy  :   -83.1818712 Eh     change       -0.1081924E-02 Eh
 * total energy  :   -83.1826550 Eh     change       -0.7837983E-03 Eh
 * total energy  :   -83.1830254 Eh     change       -0.3704023E-03 Eh
 * total energy  :   -83.1833485 Eh     change       -0.3231595E-03 Eh
 * total energy  :   -83.1836055 Eh     change       -0.2569962E-03 Eh
 * total energy  :   -83.1837552 Eh     change       -0.1496371E-03 Eh
 * total energy  :   -83.1838392 Eh     change       -0.8402520E-04 Eh
 * total energy  :   -83.1843939 Eh     change       -0.1701399E-04 Eh
 * total energy  :   -83.1844125 Eh     change       -0.1853278E-04 Eh
 * total energy  :   -83.1844328 Eh     change       -0.2030507E-04 Eh
 * total energy  :   -83.1844450 Eh     change       -0.1220140E-04 Eh
 * total energy  :   -83.1844553 Eh     change       -0.1034313E-04 Eh
 * total energy  :   -83.1844692 Eh     change       -0.1390404E-04 Eh
 * total energy  :   -83.1844693 Eh     change       -0.3256865E-07 Eh
 * total energy  :   -83.1844859 Eh     change       -0.1667457E-04 Eh
 * total energy  :   -83.1844905 Eh     change       -0.4563423E-05 Eh
   *** GEOMETRY OPTIMIZATION CONVERGED AFTER 40 ITERATIONS ***

 final structure:
================
43
 xtb: 6.5.1 (579679a)
C           -6.62819490371126       -2.28274095396961        0.16103114012328
O           -5.60193605649359       -1.40841252670026       -0.32030112637714
C           -4.57037222651409       -1.20105042821066        0.49364155903671
O           -4.47731436858282       -1.70455880107215        1.59018160447194
C           -3.53463356663122       -0.29007310040536       -0.08008325439651
N           -2.45534937892806       -0.10065659286616        0.75083447380859
C           -1.47971146448498        0.65786055165822        0.38902022133175
C           -0.32799193958522        0.88165732462781        1.35535696703247
C           -0.28405524961694        2.34874561957614        1.80034377035824
C           -0.49431862934392       -0.03620196206550        2.56727933989398
N            0.95255637691615        0.50330167958796        0.71963930960265
C            1.61256251785284        1.22299769786505       -0.19105674602634
O            1.23264443640020        2.23176737766182       -0.75473594219454
C            2.96368629627509        0.64912020047748       -0.50879946887799
N            3.84398447423207        1.12948243922976       -1.33161942507011
N            4.88959809234781        0.28673262142872       -1.25223538641905
C            6.07029612644472        0.51663804869838       -2.06066277561454
C            4.62836025436061       -0.67910903163115       -0.39666367877514
C            5.47024052019385       -1.81426549219579        0.01243032357080
O            3.41903339784148       -0.47196308509443        0.08668443690002
N           -1.47028128900904        1.30843417697770       -0.80997909079047
C           -2.48048489790649        1.18654797971894       -1.73045160740374
O           -2.46266254264645        1.74743992846241       -2.81632745343102
C           -3.58436549439122        0.32816793122344       -1.29945928714300
O           -4.59099317742935        0.21038349446137       -2.17029753680945
H           -7.35335955651337       -2.38466027795585       -0.64383536128915
H           -7.10141676301237       -1.85305280233081        1.04738920899501
H           -6.20246567124037       -3.25652078882237        0.41473429326479
H            0.59367817043124        2.51288116660117        2.42252711840991
H           -0.24339007122746        3.02036731881492        0.94592803650987
H           -1.17900451525929        2.57041335609830        2.38006654654880
H           -1.42755315406291        0.19825159872606        3.07743302950114
H           -0.52447383975236       -1.07703613254213        2.24912742655792
H            0.33580484165004        0.10673022489669        3.25564089898054
H            1.41175955155414       -0.30815904771947        1.09890210180590
H            6.94430991407903        0.19282752089621       -1.50124026576105
H            6.12461668184777        1.57974684858198       -2.28361897568014
H            5.98283615745020       -0.05744515814405       -2.98294155793407
H            6.36262021585620       -1.44743494713025        0.52344434076535
H            5.79325610479098       -2.37686230811018       -0.86422152549509
H            4.90731855093900       -2.45961519288864        0.68351151560900
H           -0.67619349814534        1.88714780155393       -1.06435991145805
H           -4.38863842697202        0.74237772203927       -2.96225828612632

          :  Hamiltonian                  GFN1-xTB          :
         :: total energy             -83.184490504138 Eh    ::
         :: gradient norm              0.000732922107 Eh/a0 ::
         :: HOMO-LUMO gap              2.007312079587 eV    ::
         :: SCC energy               -83.993239417687 Eh    ::
         :: -> Gsolv                  -0.128818630473 Eh    ::
         :: repulsion energy           0.834246511195 Eh    ::

    * Orbital Energies and Occupations

         #    Occupation            Energy/Eh            Energy/eV
      -------------------------------------------------------------
         1        2.0000           -0.9419520             -25.6318
       ...           ...                  ...                  ...
        55        2.0000           -0.5297786             -14.4160
        56        2.0000           -0.5234635             -14.2442
        57        2.0000           -0.5206856             -14.1686
        58        2.0000           -0.5164436             -14.0531
        59        2.0000           -0.5154860             -14.0271
        60        2.0000           -0.4994915             -13.5919
        61        2.0000           -0.4970458             -13.5253
        62        2.0000           -0.4923722             -13.3981
        63        2.0000           -0.4888957             -13.3035
        64        2.0000           -0.4865217             -13.2389
        65        2.0000           -0.4637285             -12.6187
        66        2.0000           -0.4555754             -12.3968
        67        2.0000           -0.4378543             -11.9146 (HOMO)
        68                         -0.3640869              -9.9073 (LUMO)
        69                         -0.3468335              -9.4378
        70                         -0.3284962              -8.9388
        71                         -0.2918790              -7.9424
        72                         -0.2478291              -6.7438
        73                         -0.2442479              -6.6463
        74                         -0.1857316              -5.0540
        75                         -0.1734384              -4.7195
        76                         -0.1636843              -4.4541
        77                         -0.1397354              -3.8024
        78                         -0.1395692              -3.7979
       ...                                ...                  ...
       136                          0.7276101              19.7993
      -------------------------------------------------------------
                  HL-Gap            0.0737674 Eh            2.0073 eV

Wiberg/Mayer (AO) data.
largest (>0.10) Wiberg bond orders for each atom

     #   Z sym  total        # sym  WBO       # sym  WBO       # sym  WBO
 ---------------------------------------------------------------------------
     1   6 C    3.870 --    26 H    0.986    28 H    0.980    27 H    0.979
                             2 O    0.895
     2   8 O    2.206 --     3 C    1.119     1 C    0.895     4 O    0.135
     3   6 C    3.853 --     4 O    1.657     2 O    1.119     5 C    0.997
     4   8 O    1.920 --     3 C    1.657     2 O    0.135
     5   6 C    3.961 --    24 C    1.507     6 N    1.172     3 C    0.997
     6   7 N    3.030 --     7 C    1.599     5 C    1.172
     7   6 C    3.934 --     6 N    1.599    21 N    1.173     8 C    0.970
     8   6 C    3.919 --    10 C    1.001     9 C    0.982     7 C    0.970
                            11 N    0.901
     9   6 C    3.985 --    31 H    0.983    29 H    0.983     8 C    0.982
                            30 H    0.979
    10   6 C    3.988 --     8 C    1.001    34 H    0.984    33 H    0.982
                            32 H    0.980
    11   7 N    3.386 --    12 C    1.309     8 C    0.901    35 H    0.887
                            13 O    0.197
    12   6 C    3.925 --    13 O    1.581    11 N    1.309    14 C    0.961
    13   8 O    1.941 --    12 C    1.581    11 N    0.197
    14   6 C    3.843 --    15 N    1.619    20 O    1.052    12 C    0.961
    15   7 N    2.986 --    14 C    1.619    16 N    1.152
    16   7 N    3.631 --    18 C    1.425    15 N    1.152    17 C    0.908
    17   6 C    3.883 --    36 H    0.976    37 H    0.975    38 H    0.963
                            16 N    0.908
    18   6 C    3.839 --    16 N    1.425    20 O    1.145    19 C    1.042
    19   6 C    3.959 --    18 C    1.042    41 H    0.972    40 H    0.948
                            39 H    0.940
    20   8 O    2.374 --    18 C    1.145    14 C    1.052
    21   7 N    3.472 --     7 C    1.173    22 C    1.145    42 H    0.855
                            23 O    0.135
    22   6 C    3.911 --    23 O    1.576    21 N    1.145    24 C    1.059
    23   8 O    1.900 --    22 C    1.576    21 N    0.135
    24   6 C    3.920 --     5 C    1.507    25 O    1.112    22 C    1.059
    25   8 O    2.090 --    24 C    1.112    43 H    0.805
    26   1 H    1.010 --     1 C    0.986
    27   1 H    1.007 --     1 C    0.979
    28   1 H    1.007 --     1 C    0.980
    29   1 H    0.997 --     9 C    0.983
    30   1 H    1.006 --     9 C    0.979
    31   1 H    0.999 --     9 C    0.983
    32   1 H    1.007 --    10 C    0.980
    33   1 H    1.003 --    10 C    0.982
    34   1 H    0.997 --    10 C    0.984
    35   1 H    0.927 --    11 N    0.887
    36   1 H    0.989 --    17 C    0.976
    37   1 H    0.991 --    17 C    0.975
    38   1 H    0.989 --    17 C    0.963
    39   1 H    0.985 --    19 C    0.940
    40   1 H    0.986 --    19 C    0.948
    41   1 H    0.985 --    19 C    0.972
    42   1 H    0.928 --    21 N    0.855
    43   1 H    0.845 --    25 O    0.805
 ---------------------------------------------------------------------------

           -------------------------------------------------
          | TOTAL ENERGY              -83.184490504138 Eh   |
          | GRADIENT NORM               0.000732922107 Eh/α |
          | HOMO-LUMO GAP               2.007312079587 eV   |
           -------------------------------------------------

 * finished run on 2023/06/20 at 15:26:58.033
