   * xtb version 6.5.1 (579679a) compiled by 'ehlert@majestix' on 2022-07-11
          program call               : /lustre/hpc/kemi/ree/PhD/git/ReactivityQM/dep/xtb-6.5.1/bin/xtb --gfn 1 /lustre/hpc/kemi/ree/PhD/git/ReactivityQM/calculations/RaltegravirCLI/reac01prodE06/conf09/RaltegravirCLI_reac01prodE06_conf09_gfn1.xyz --opt --vfukui --chrg -1 --uhf 0 --alpb DMSO

   ID    Z sym.   atoms
    1    6 C      1, 3, 5, 8, 9
    2    8 O      2, 10
    3   17 Cl     4
    4    7 N      6, 7
    5    1 H      11-16

      * Solvation model:               ALPB
        Solvent                        DMSO
        Solvent mass                       7.8130E+01 g/mol
          :  Hamiltonian                  GFN1-xTB          :
 * total energy  :   -34.1167543 Eh     change       -0.6536993E-12 Eh
 * total energy  :   -34.1227151 Eh     change       -0.5960783E-02 Eh
 * total energy  :   -34.1252388 Eh     change       -0.2523735E-02 Eh
 * total energy  :   -34.1257827 Eh     change       -0.5438825E-03 Eh
 * total energy  :   -34.1261409 Eh     change       -0.3581484E-03 Eh
 * total energy  :   -34.1262564 Eh     change       -0.1155320E-03 Eh
 * total energy  :   -34.1263685 Eh     change       -0.1120468E-03 Eh
 * total energy  :   -34.1265332 Eh     change       -0.1647055E-03 Eh
 * total energy  :   -34.1268996 Eh     change       -0.3664880E-03 Eh
 * total energy  :   -34.1273800 Eh     change       -0.4803165E-03 Eh
 * total energy  :   -34.1307262 Eh     change       -0.1091135E-04 Eh
 * total energy  :   -34.1307381 Eh     change       -0.1194992E-04 Eh
 * total energy  :   -34.1294591 Eh     change        0.1279002E-02 Eh
 * total energy  :   -34.1306822 Eh     change       -0.1223107E-02 Eh
 * total energy  :   -34.1307242 Eh     change       -0.4194768E-04 Eh
 * total energy  :   -34.1307434 Eh     change       -0.1918387E-04 Eh
 * total energy  :   -34.1307503 Eh     change       -0.6977323E-05 Eh
 * total energy  :   -34.1307561 Eh     change       -0.5733181E-05 Eh
 * total energy  :   -34.1307590 Eh     change       -0.2939833E-05 Eh
   *** GEOMETRY OPTIMIZATION CONVERGED AFTER 37 ITERATIONS ***

 final structure:
================
16
 xtb: 6.5.1 (579679a)
C            3.08917929524740        0.40160043857832        0.14946526485852
O            2.47568381329110        0.26489646805742       -1.13308403769316
C            1.21452096622477       -0.28939023539242       -1.17868905694357
Cl           1.26028451617105       -2.11235219729306       -0.94522214685334
C            0.18202341811765        0.34466003421039       -0.47160827944921
N            0.10887033206471        1.65042650208414       -0.20032365885677
N           -1.19318298780461        1.89016732504621        0.20418442456831
C           -1.82120241946160        0.77003660431991        0.15755734779693
C           -3.24483743772360        0.51239514508766        0.49888861936549
O           -1.03322579390320       -0.26150221830371       -0.26421657130773
H            3.16833288168164       -0.57045243570509        0.65135269853223
H            4.09046592824358        0.80560857420936       -0.00942306502646
H            2.51740222143282        1.08833254344222        0.78747414548031
H           -3.32016668127029       -0.24979570003830        1.27510565519806
H           -3.70356192888732        1.43241295458668        0.85404384714360
H           -3.79058612342480        0.15564719710960       -0.37550318681352

          :  Hamiltonian                  GFN1-xTB          :
         :: total energy             -34.130759002620 Eh    ::
         :: gradient norm              0.000458566607 Eh/a0 ::
         :: HOMO-LUMO gap              2.960623454958 eV    ::
         :: SCC energy               -34.379132384761 Eh    ::
         :: -> Gsolv                  -0.092536541936 Eh    ::
         :: repulsion energy           0.255517872674 Eh    ::

    * Orbital Energies and Occupations

         #    Occupation            Energy/Eh            Energy/eV
      -------------------------------------------------------------
         1        2.0000           -0.8451563             -22.9979
       ...           ...                  ...                  ...
        16        2.0000           -0.5141190             -13.9899
        17        2.0000           -0.5060526             -13.7704
        18        2.0000           -0.4962479             -13.5036
        19        2.0000           -0.4790347             -13.0352
        20        2.0000           -0.4684033             -12.7459
        21        2.0000           -0.4457383             -12.1292
        22        2.0000           -0.4336680             -11.8007
        23        2.0000           -0.4325557             -11.7704
        24        2.0000           -0.4243283             -11.5466
        25        2.0000           -0.4095017             -11.1431
        26        2.0000           -0.3967388             -10.7958
        27        2.0000           -0.3852848             -10.4841
        28        2.0000           -0.3094456              -8.4204 (HOMO)
        29                         -0.2006447              -5.4598 (LUMO)
        30                         -0.1816376              -4.9426
        31                         -0.1314096              -3.5758
        32                         -0.1207134              -3.2848
        33                         -0.1088146              -2.9610
        34                         -0.0539918              -1.4692
        35                         -0.0529187              -1.4400
        36                         -0.0482691              -1.3135
        37                         -0.0433776              -1.1804
        38                          0.0189377               0.5153
        39                          0.0228319               0.6213
       ...                                ...                  ...
        57                          0.6330342              17.2257
      -------------------------------------------------------------
                  HL-Gap            0.1088009 Eh            2.9606 eV

Wiberg/Mayer (AO) data.
largest (>0.10) Wiberg bond orders for each atom

     #   Z sym  total        # sym  WBO       # sym  WBO       # sym  WBO
 ---------------------------------------------------------------------------
     1   6 C    3.933 --    12 H    0.987    11 H    0.982    13 H    0.981
                             2 O    0.934
     2   8 O    2.053 --     3 C    1.001     1 C    0.934
     3   6 C    3.428 --     5 C    1.342     2 O    1.001     4 Cl   0.801
                             6 N    0.147
     4  17 Cl   0.914 --     3 C    0.801
     5   6 C    3.856 --     6 N    1.392     3 C    1.342    10 O    0.993
     6   7 N    2.872 --     5 C    1.392     7 N    1.142     3 C    0.147
     7   7 N    2.984 --     8 C    1.677     6 N    1.142
     8   6 C    3.890 --     7 N    1.677     9 C    1.020    10 O    1.019
     9   6 C    3.995 --     8 C    1.020    15 H    0.986    14 H    0.974
                            16 H    0.973
    10   8 O    2.220 --     8 C    1.019     5 C    0.993
    11   1 H    1.019 --     1 C    0.982
    12   1 H    1.021 --     1 C    0.987
    13   1 H    1.026 --     1 C    0.981
    14   1 H    1.005 --     9 C    0.974
    15   1 H    1.006 --     9 C    0.986
    16   1 H    1.005 --     9 C    0.973
 ---------------------------------------------------------------------------

           -------------------------------------------------
          | TOTAL ENERGY              -34.130759002620 Eh   |
          | GRADIENT NORM               0.000458566607 Eh/α |
          | HOMO-LUMO GAP               2.960623454958 eV   |
           -------------------------------------------------

 * finished run on 2023/06/20 at 14:54:05.853
