   * xtb version 6.5.1 (579679a) compiled by 'ehlert@majestix' on 2022-07-11
          program call               : /lustre/hpc/kemi/ree/PhD/git/ReactivityQM/dep/xtb-6.5.1/bin/xtb --gfn 1 /lustre/hpc/kemi/ree/PhD/git/ReactivityQM/calculations/R02/reac01prodE13/conf20/R02_reac01prodE13_conf20_gfn1.xyz --opt --vfukui --chrg -1 --uhf 0 --alpb DMSO

   ID    Z sym.   atoms
    1    6 C      1, 3, 5, 6, 8, 10, 12-15, 17, 19, 22, 23
    2    8 O      2, 4, 7, 9, 18, 24
    3    7 N      11, 16, 20, 21, 25
    4    1 H      26-43

      * Solvation model:               ALPB
        Solvent                        DMSO
        Solvent mass                       7.8130E+01 g/mol
          :  Hamiltonian                  GFN1-xTB          :
 * total energy  :   -83.8247860 Eh     change       -0.1428191E-10 Eh
 * total energy  :   -83.8414978 Eh     change       -0.1671173E-01 Eh
 * total energy  :   -83.8477037 Eh     change       -0.6205884E-02 Eh
 * total energy  :   -83.8489700 Eh     change       -0.1266299E-02 Eh
 * total energy  :   -83.8496625 Eh     change       -0.6925866E-03 Eh
 * total energy  :   -83.8498885 Eh     change       -0.2259596E-03 Eh
 * total energy  :   -83.8500186 Eh     change       -0.1301019E-03 Eh
 * total energy  :   -83.8501196 Eh     change       -0.1009588E-03 Eh
 * total energy  :   -83.8502260 Eh     change       -0.1064275E-03 Eh
 * total energy  :   -83.8503748 Eh     change       -0.1488589E-03 Eh
 * total energy  :   -83.8521337 Eh     change       -0.2815490E-04 Eh
 * total energy  :   -83.8521439 Eh     change       -0.1019985E-04 Eh
 * total energy  :   -83.8521660 Eh     change       -0.2206856E-04 Eh
 * total energy  :   -83.8521790 Eh     change       -0.1303887E-04 Eh
 * total energy  :   -83.8521918 Eh     change       -0.1281444E-04 Eh
 * total energy  :   -83.8522175 Eh     change       -0.2565798E-04 Eh
 * total energy  :   -83.8522262 Eh     change       -0.8752479E-05 Eh
 * total energy  :   -83.8522377 Eh     change       -0.1141890E-04 Eh
 * total energy  :   -83.8522422 Eh     change       -0.4545544E-05 Eh
   *** GEOMETRY OPTIMIZATION CONVERGED AFTER 31 ITERATIONS ***

 final structure:
================
43
 xtb: 6.5.1 (579679a)
C           -4.98033323551689       -3.41498284071185        0.21320918033714
O           -3.84134209999450       -2.60284941107566        0.00404279249822
C           -3.99286178508691       -1.26636888212269        0.38036264488634
O           -5.09740888386334       -0.89710848773512        0.88046387782435
C           -2.89056470831474       -0.45209141742050        0.17814665182140
C           -2.94479814067326        0.97761516661415        0.50652288550613
O           -4.14017448479330        1.47869820054552        0.95539505017700
C           -1.85637286751732        1.73762991230867        0.31335979847494
O           -1.66047329571101        3.09821047054393        0.50269598731699
C           -2.73695611332965        3.87827479077564        0.98889131505585
N           -0.62296655713190        1.13935265369490       -0.10274974138034
C           -0.71395762270780       -0.19070363439437       -0.57475192477526
C            0.54924730273312       -0.72464163504303       -1.22596800299329
C            0.70602108165030       -0.12601278427325       -2.63332808115564
C            0.49312575492562       -2.25429573581069       -1.29556669240946
N            1.67359054991892       -0.30019398524391       -0.38189731277839
C            2.96939091421578       -0.56376940723410       -0.64766553268213
O            3.38299178084506       -1.25202176311554       -1.57473745140069
C            3.85414652944808        0.07847666448193        0.34838970524194
N            3.47120963871580        0.79461253036689        1.37049227525345
N            4.60569978782345        1.19760678312495        2.01473531320099
C            5.60435813940688        0.70712763522475        1.34961040354738
C            7.04666485638678        0.86549752468820        1.64335969625658
O            5.20249922023458       -0.01117323318458        0.28753349904060
N           -1.72373662775710       -0.94683807873844       -0.41408761625622
H           -5.84208715731949       -3.04770227500529       -0.35770909347973
H           -4.72638680154668       -4.42092524685047       -0.12573743388209
H           -5.25674622218863       -3.44979638739834        1.27440361040229
H           -4.75203698013785        0.67248351914294        1.01912886068021
H           -3.59425862742439        3.85818315116906        0.30555071180905
H           -2.36609891570898        4.90332239456972        1.06197781704795
H           -3.06311110515833        3.54594357354650        1.98192480038767
H           -0.08385919239017        1.76096767105512       -0.69074423510419
H            1.58969530524581       -0.53120610232991       -3.12374849267820
H           -0.17271613102279       -0.36925199346847       -3.22900864853545
H            0.80355422319385        0.95660442889531       -2.57270332898217
H           -0.39427120244200       -2.55258491867622       -1.85271734960864
H            0.43044250311621       -2.67113572669816       -0.29077661763999
H            1.37673356757094       -2.64884385500691       -1.79352037486994
H            1.46588207680564        0.33562084824768        0.37740022680357
H            7.54941890002082        1.34075552349903        0.80140652436690
H            7.17256276738874        1.47702933427578        2.53328045746755
H            7.50628685809734       -0.10951397523551        1.80343584522104

          :  Hamiltonian                  GFN1-xTB          :
         :: total energy             -83.852242209310 Eh    ::
         :: gradient norm              0.000845808568 Eh/a0 ::
         :: HOMO-LUMO gap              0.144036065797 eV    ::
         :: SCC energy               -84.605819010326 Eh    ::
         :: -> Gsolv                  -0.105571489807 Eh    ::
         :: repulsion energy           0.778828752243 Eh    ::

    * Orbital Energies and Occupations

         #    Occupation            Energy/Eh            Energy/eV
      -------------------------------------------------------------
         1        2.0000           -0.8490175             -23.1029
       ...           ...                  ...                  ...
        56        2.0000           -0.4678460             -12.7307
        57        2.0000           -0.4659734             -12.6798
        58        2.0000           -0.4631549             -12.6031
        59        2.0000           -0.4480650             -12.1925
        60        2.0000           -0.4457793             -12.1303
        61        2.0000           -0.4410102             -12.0005
        62        2.0000           -0.4364315             -11.8759
        63        2.0000           -0.4272038             -11.6248
        64        2.0000           -0.4241755             -11.5424
        65        2.0000           -0.4072726             -11.0825
        66        2.0000           -0.3861274             -10.5071
        67        2.0000           -0.3790879             -10.3155
        68        1.8838           -0.3012316              -8.1969 (HOMO)
        69        0.1162           -0.2959384              -8.0529 (LUMO)
        70                         -0.2457031              -6.6859
        71                         -0.2262279              -6.1560
        72                         -0.1848996              -5.0314
        73                         -0.1815517              -4.9403
        74                         -0.1384842              -3.7683
        75                         -0.1168572              -3.1798
        76                         -0.1127207              -3.0673
        77                         -0.1112849              -3.0282
        78                         -0.1057152              -2.8767
        79                         -0.0960555              -2.6138
       ...                                ...                  ...
       136                          0.7204960              19.6057
      -------------------------------------------------------------
                  HL-Gap            0.0052932 Eh            0.1440 eV

Wiberg/Mayer (AO) data.
largest (>0.10) Wiberg bond orders for each atom

     #   Z sym  total        # sym  WBO       # sym  WBO       # sym  WBO
 ---------------------------------------------------------------------------
     1   6 C    3.914 --    27 H    0.987    28 H    0.981    26 H    0.981
                             2 O    0.945
     2   8 O    2.071 --     3 C    0.953     1 C    0.945
     3   6 C    3.853 --     5 C    1.385     4 O    1.357     2 O    0.953
     4   8 O    1.796 --     3 C    1.357    29 H    0.128     5 C    0.109
     5   6 C    3.821 --     3 C    1.385    25 N    1.086     6 C    1.063
                             4 O    0.109
     6   6 C    3.895 --     8 C    1.637     5 C    1.063     7 O    1.029
     7   8 O    1.970 --     6 C    1.029    29 H    0.742
     8   6 C    3.798 --     6 C    1.637    11 N    0.975     9 O    0.964
     9   8 O    2.065 --     8 C    0.964    10 C    0.935
    10   6 C    3.905 --    31 H    0.985    32 H    0.981    30 H    0.981
                             9 O    0.935
    11   7 N    3.177 --    12 C    1.031     8 C    0.975    33 H    0.914
                            25 N    0.100
    12   6 C    3.932 --    25 N    1.717    11 N    1.031    13 C    0.976
    13   6 C    3.931 --    15 C    0.994    14 C    0.981    12 C    0.976
                            16 N    0.915
    14   6 C    3.990 --    35 H    0.986    36 H    0.984    34 H    0.982
                            13 C    0.981
    15   6 C    3.993 --    13 C    0.994    38 H    0.986    37 H    0.984
                            39 H    0.984
    16   7 N    3.327 --    17 C    1.251    13 C    0.915    40 H    0.895
                            18 O    0.172
    17   6 C    3.884 --    18 O    1.550    16 N    1.251    19 C    1.007
    18   8 O    1.853 --    17 C    1.550    16 N    0.172
    19   6 C    3.824 --    20 N    1.573    24 O    1.046    17 C    1.007
    20   7 N    2.953 --    19 C    1.573    21 N    1.191
    21   7 N    2.979 --    22 C    1.616    20 N    1.191
    22   6 C    3.861 --    21 N    1.616    24 O    1.076    23 C    1.029
    23   6 C    3.989 --    22 C    1.029    42 H    0.984    43 H    0.966
                            41 H    0.965
    24   8 O    2.297 --    22 C    1.076    19 C    1.046
    25   7 N    3.034 --    12 C    1.717     5 C    1.086    11 N    0.100
    26   1 H    1.018 --     1 C    0.981
    27   1 H    1.019 --     1 C    0.987
    28   1 H    1.019 --     1 C    0.981
    29   1 H    0.883 --     7 O    0.742     4 O    0.128
    30   1 H    1.019 --    10 C    0.981
    31   1 H    1.018 --    10 C    0.985
    32   1 H    1.019 --    10 C    0.981
    33   1 H    0.959 --    11 N    0.914
    34   1 H    1.011 --    14 C    0.982
    35   1 H    1.005 --    14 C    0.986
    36   1 H    1.004 --    14 C    0.984
    37   1 H    1.017 --    15 C    0.984
    38   1 H    1.011 --    15 C    0.986
    39   1 H    1.014 --    15 C    0.984
    40   1 H    0.970 --    16 N    0.895
    41   1 H    0.998 --    23 C    0.965
    42   1 H    1.000 --    23 C    0.984
    43   1 H    0.998 --    23 C    0.966
 ---------------------------------------------------------------------------

           -------------------------------------------------
          | TOTAL ENERGY              -83.852242209310 Eh   |
          | GRADIENT NORM               0.000845808568 Eh/α |
          | HOMO-LUMO GAP               0.144036065797 eV   |
           -------------------------------------------------

 * finished run on 2023/06/20 at 15:16:05.215
