   * xtb version 6.5.1 (579679a) compiled by 'ehlert@majestix' on 2022-07-11
          program call               : /lustre/hpc/kemi/ree/PhD/git/ReactivityQM/dep/xtb-6.5.1/bin/xtb --gfn 1 /lustre/hpc/kemi/ree/PhD/git/ReactivityQM/calculations/R02/reac01prodN03/conf15/R02_reac01prodN03_conf15_gfn1.xyz --opt --vfukui --chrg 1 --uhf 0 --alpb DMSO

   ID    Z sym.   atoms
    1    6 C      1, 3, 5, 6, 8-11, 13, 15, 18, 19, 22, 24
    2    8 O      2, 4, 14, 20, 23, 25
    3    7 N      7, 12, 16, 17, 21
    4    1 H      26-43

      * Solvation model:               ALPB
        Solvent                        DMSO
        Solvent mass                       7.8130E+01 g/mol
          :  Hamiltonian                  GFN1-xTB          :
 * total energy  :   -83.1182394 Eh     change       -0.1155342E-10 Eh
 * total energy  :   -83.1459783 Eh     change       -0.2773887E-01 Eh
 * total energy  :   -83.1554946 Eh     change       -0.9516291E-02 Eh
 * total energy  :   -83.1578139 Eh     change       -0.2319351E-02 Eh
 * total energy  :   -83.1587102 Eh     change       -0.8962281E-03 Eh
 * total energy  :   -83.1589113 Eh     change       -0.2011688E-03 Eh
 * total energy  :   -83.1590261 Eh     change       -0.1147523E-03 Eh
 * total energy  :   -83.1590949 Eh     change       -0.6883990E-04 Eh
 * total energy  :   -83.1591452 Eh     change       -0.5024059E-04 Eh
 * total energy  :   -83.1591853 Eh     change       -0.4014545E-04 Eh
 * total energy  :   -83.1592333 Eh     change       -0.1869221E-04 Eh
 * total energy  :   -83.1592514 Eh     change       -0.1810172E-04 Eh
 * total energy  :   -83.1592516 Eh     change       -0.2156915E-06 Eh
 * total energy  :   -83.1592620 Eh     change       -0.1040054E-04 Eh
 * total energy  :   -83.1592793 Eh     change       -0.1728845E-04 Eh
 * total energy  :   -83.1592899 Eh     change       -0.1062018E-04 Eh
 * total energy  :   -83.1592991 Eh     change       -0.9233841E-05 Eh
 * total energy  :   -83.1593041 Eh     change       -0.5021878E-05 Eh
 * total energy  :   -83.1593074 Eh     change       -0.3282069E-05 Eh
   *** GEOMETRY OPTIMIZATION CONVERGED AFTER 20 ITERATIONS ***

 final structure:
================
43
 xtb: 6.5.1 (579679a)
C           -3.64742304502426       -1.27499171017045        1.29813149361860
O           -4.42036675118308       -0.52657745231694        0.34616261376899
C           -4.00237306796479        0.34926330374824       -0.49640093557829
O           -4.91029124427805        0.87739664953430       -1.25351393079797
C           -6.28932558530929        0.46852988163702       -1.10547058453351
C           -2.64152254655842        0.80139926896896       -0.67504603556963
N           -1.70584869228664        0.24454254200485        0.17134787503325
C           -0.46970249343431        0.60656350200536        0.09083182814467
C            0.55472900076299        0.07343676905119        1.06579433397968
C            0.68543289699830        1.12104434467446        2.18404024565940
C            0.13496650729699       -1.28629915356118        1.62826953105267
N            1.81617868380800       -0.06267457006024        0.33442591054999
C            2.98564664436494       -0.38479864341366        0.95439106438058
O            3.16778306713190       -0.40293191642793        2.15439416168519
C            4.03983769459191       -0.68332955234241       -0.04382463664093
N            3.89332907267353       -0.70949126232915       -1.33514513565477
N            5.10569653274675       -1.03345842867542       -1.86095355919486
C            5.91662696743574       -1.18636838853151       -0.85608990232754
C            7.35296125426358       -1.53829041090227       -0.89699425877109
O            5.30085999072323       -0.97937437428235        0.31628520887592
N           -0.04281210903520        1.53853440584287       -0.80479116698051
C           -0.85521209931300        2.16892703903411       -1.72001354350954
O           -0.42799625680133        2.98509997086248       -2.50440549826816
C           -2.27231855743379        1.74416262180209       -1.62306835394193
O           -3.06066110205969        2.34338738901746       -2.48906986329547
H           -4.36481273840080       -1.91672710349325        1.80835517288772
H           -2.89566193660814       -1.86819202350890        0.77919441346482
H           -3.16703238088599       -0.59466098058981        2.00025672989078
H           -6.61668269838949        0.67478904478779       -0.08665050368568
H           -6.37098382409729       -0.59732495733360       -1.31797225226471
H           -6.85157732560236        1.05703157667216       -1.82528900923095
H            1.31250476507537        0.73943195975675        2.98670780219293
H           -0.30393180474149        1.34024215065965        2.58128629977739
H            1.12231070938012        2.03589711674385        1.78779877016980
H           -0.01768800778792       -1.99652984335122        0.81784334914390
H           -0.79104541432582       -1.18002785732578        2.18853995949247
H            0.91117075244054       -1.65974462654602        2.29454357546116
H            1.74910430711337       -0.29843484416739       -0.64493279678953
H            7.94334308857334       -0.73774909100558       -0.45081626600995
H            7.52913111449290       -2.44740454095042       -0.32225777262871
H            7.66434630977422       -1.69009858047221       -1.92758560902048
H            0.93536824466603        1.80024858455149       -0.81374434377659
H           -3.99605692279321        2.08555319040359       -2.44630738075276

          :  Hamiltonian                  GFN1-xTB          :
         :: total energy             -83.159307430800 Eh    ::
         :: gradient norm              0.000485950358 Eh/a0 ::
         :: HOMO-LUMO gap              1.890366158346 eV    ::
         :: SCC energy               -83.954055237122 Eh    ::
         :: -> Gsolv                  -0.117465746230 Eh    ::
         :: repulsion energy           0.821150931979 Eh    ::

    * Orbital Energies and Occupations

         #    Occupation            Energy/Eh            Energy/eV
      -------------------------------------------------------------
         1        2.0000           -0.9176678             -24.9710
       ...           ...                  ...                  ...
        55        2.0000           -0.5281148             -14.3707
        56        2.0000           -0.5252869             -14.2938
        57        2.0000           -0.5188118             -14.1176
        58        2.0000           -0.5130122             -13.9598
        59        2.0000           -0.5106488             -13.8955
        60        2.0000           -0.4939222             -13.4403
        61        2.0000           -0.4876954             -13.2709
        62        2.0000           -0.4841963             -13.1757
        63        2.0000           -0.4738005             -12.8928
        64        2.0000           -0.4693003             -12.7703
        65        2.0000           -0.4653479             -12.6628
        66        2.0000           -0.4578553             -12.4589
        67        2.0000           -0.4551280             -12.3847 (HOMO)
        68                         -0.3856584             -10.4943 (LUMO)
        69                         -0.3194780              -8.6934
        70                         -0.3175777              -8.6417
        71                         -0.2934777              -7.9859
        72                         -0.2609252              -7.1001
        73                         -0.2069980              -5.6327
        74                         -0.2024273              -5.5083
        75                         -0.1716450              -4.6707
        76                         -0.1626329              -4.4255
        77                         -0.1436213              -3.9081
        78                         -0.1367859              -3.7221
       ...                                ...                  ...
       136                          0.7235183              19.6879
      -------------------------------------------------------------
                  HL-Gap            0.0694697 Eh            1.8904 eV

Wiberg/Mayer (AO) data.
largest (>0.10) Wiberg bond orders for each atom

     #   Z sym  total        # sym  WBO       # sym  WBO       # sym  WBO
 ---------------------------------------------------------------------------
     1   6 C    3.810 --    26 H    0.978    27 H    0.971    28 H    0.970
                             2 O    0.846
     2   8 O    2.318 --     3 C    1.264     1 C    0.846
     3   6 C    3.814 --     2 O    1.264     4 O    1.233     6 C    1.128
     4   8 O    2.298 --     3 C    1.233     5 C    0.841
     5   6 C    3.810 --    31 H    0.981    29 H    0.973    30 H    0.972
                             4 O    0.841
     6   6 C    3.955 --    24 C    1.418     7 N    1.148     3 C    1.128
     7   7 N    3.033 --     8 C    1.581     6 C    1.148
     8   6 C    3.920 --     7 N    1.581    21 N    1.176     9 C    0.983
     9   6 C    3.935 --    11 C    0.988     8 C    0.983    10 C    0.969
                            12 N    0.931
    10   6 C    3.983 --    33 H    0.985    34 H    0.984    32 H    0.974
                             9 C    0.969
    11   6 C    3.988 --     9 C    0.988    35 H    0.984    36 H    0.982
                            37 H    0.980
    12   7 N    3.305 --    13 C    1.210     9 C    0.931    38 H    0.894
                            14 O    0.166
    13   6 C    3.911 --    14 O    1.621    12 N    1.210    15 C    0.994
    14   8 O    1.932 --    13 C    1.621    12 N    0.166
    15   6 C    3.878 --    16 N    1.604    20 O    1.065    13 C    0.994
    16   7 N    3.019 --    15 C    1.604    17 N    1.206
    17   7 N    2.981 --    18 C    1.598    16 N    1.206
    18   6 C    3.869 --    17 N    1.598    20 O    1.085    19 C    1.032
    19   6 C    3.985 --    18 C    1.032    41 H    0.982    40 H    0.963
                            39 H    0.962
    20   8 O    2.334 --    18 C    1.085    15 C    1.065
    21   7 N    3.474 --     8 C    1.176    22 C    1.131    42 H    0.872
                            23 O    0.141
    22   6 C    3.911 --    23 O    1.643    21 N    1.131    24 C    1.019
    23   8 O    1.939 --    22 C    1.643    21 N    0.141
    24   6 C    3.907 --     6 C    1.418    25 O    1.180    22 C    1.019
    25   8 O    2.160 --    24 C    1.180    43 H    0.784
    26   1 H    1.001 --     1 C    0.978
    27   1 H    1.011 --     1 C    0.971
    28   1 H    1.012 --     1 C    0.970
    29   1 H    0.997 --     5 C    0.973
    30   1 H    0.997 --     5 C    0.972
    31   1 H    1.000 --     5 C    0.981
    32   1 H    1.009 --    10 C    0.974
    33   1 H    1.001 --    10 C    0.985
    34   1 H    0.999 --    10 C    0.984
    35   1 H    1.001 --    11 C    0.984
    36   1 H    1.004 --    11 C    0.982
    37   1 H    1.001 --    11 C    0.980
    38   1 H    0.948 --    12 N    0.894
    39   1 H    0.996 --    19 C    0.962
    40   1 H    0.996 --    19 C    0.963
    41   1 H    0.998 --    19 C    0.982
    42   1 H    0.921 --    21 N    0.872
    43   1 H    0.829 --    25 O    0.784
 ---------------------------------------------------------------------------

           -------------------------------------------------
          | TOTAL ENERGY              -83.159307430800 Eh   |
          | GRADIENT NORM               0.000485950358 Eh/α |
          | HOMO-LUMO GAP               1.890366158346 eV   |
           -------------------------------------------------

 * finished run on 2023/06/20 at 15:21:04.600
