   * xtb version 6.5.1 (579679a) compiled by 'ehlert@majestix' on 2022-07-11
          program call               : /lustre/hpc/kemi/ree/PhD/git/ReactivityQM/dep/xtb-6.5.1/bin/xtb --gfn 1 /lustre/hpc/kemi/ree/PhD/git/ReactivityQM/calculations/R02deprot/reac01/conf07/R02deprot_reac01_conf07_gfn1.xyz --opt --vfukui --chrg -1 --uhf 0 --alpb DMSO

   ID    Z sym.   atoms
    1    6 C      1, 3, 5, 7-10, 12, 14, 17, 18, 21, 23
    2    8 O      2, 4, 13, 19, 22, 24
    3    7 N      6, 11, 15, 16, 20
    4    1 H      25-38

      * Solvation model:               ALPB
        Solvent                        DMSO
        Solvent mass                       7.8130E+01 g/mol
          :  Hamiltonian                  GFN1-xTB          :
 * total energy  :   -79.5962492 Eh     change       -0.4474998E-10 Eh
 * total energy  :   -79.6067515 Eh     change       -0.1050230E-01 Eh
 * total energy  :   -79.6104385 Eh     change       -0.3687010E-02 Eh
 * total energy  :   -79.6112633 Eh     change       -0.8248037E-03 Eh
 * total energy  :   -79.6120489 Eh     change       -0.7855992E-03 Eh
 * total energy  :   -79.6125328 Eh     change       -0.4839087E-03 Eh
 * total energy  :   -79.6129863 Eh     change       -0.4535173E-03 Eh
 * total energy  :   -79.6133476 Eh     change       -0.3612985E-03 Eh
 * total energy  :   -79.6135350 Eh     change       -0.1873473E-03 Eh
 * total energy  :   -79.6136167 Eh     change       -0.8174286E-04 Eh
 * total energy  :   -79.6148750 Eh     change       -0.8025267E-05 Eh
 * total energy  :   -79.6149111 Eh     change       -0.3607787E-04 Eh
 * total energy  :   -79.6149255 Eh     change       -0.1446169E-04 Eh
 * total energy  :   -79.6149437 Eh     change       -0.1811410E-04 Eh
 * total energy  :   -79.6149522 Eh     change       -0.8580239E-05 Eh
 * total energy  :   -79.6149600 Eh     change       -0.7771660E-05 Eh
 * total energy  :   -79.6149661 Eh     change       -0.6073332E-05 Eh
 * total energy  :   -79.6149707 Eh     change       -0.4605664E-05 Eh
 * total energy  :   -79.6149744 Eh     change       -0.3741754E-05 Eh
   *** GEOMETRY OPTIMIZATION CONVERGED AFTER 44 ITERATIONS ***

 final structure:
================
38
 xtb: 6.5.1 (579679a)
C            5.84836750931029       -1.17558296576847       -0.56965550149893
O            4.50066399735909       -0.74123308075397       -0.40796923479464
C            4.25331144917396        0.04128300031233        0.65173680636152
O            5.13917776058821        0.35632459738026        1.43603446858660
C            2.85335429342497        0.46981111704852        0.76908851657927
N            1.97830271471429        0.03478497927068       -0.18839525985737
C            0.73077702085025        0.43501609643617       -0.06712368913929
C           -0.22846376734822        0.00432716331580       -1.17543230220402
C           -0.38639718892391        1.17710000010444       -2.14807959240990
C            0.28433143034705       -1.24125843232431       -1.90243502885143
N           -1.55448378759788       -0.26466365181435       -0.60514033015175
C           -1.76345840676271       -1.16305899040336        0.36815666734684
O           -0.90648581079999       -1.85218955931248        0.90118657930486
C           -3.19542339457057       -1.24947733242190        0.77796961786097
N           -3.69572920917076       -1.95584043372704        1.74376056990657
N           -5.03981085786157       -1.71244667871532        1.75517637100330
C           -5.27394359406258       -0.87376618562572        0.79634972795368
C           -6.57520399345773       -0.29603364130578        0.39478471907798
O           -4.15027023774727       -0.53699931252699        0.14034508586634
N            0.22308468429721        1.22654069163291        0.86907954235989
C            1.02103299801649        1.69559971061735        1.86969525763693
O            0.58560884703052        2.42725023452562        2.77489746980877
C            2.43194080811848        1.27950433422704        1.80144792946565
O            3.25319676752654        1.73301946308181        2.77668582262194
H            6.51814794037324       -0.31538803012895       -0.64930715977277
H            5.88356916930242       -1.76274689626354       -1.48539206959158
H            6.15572388656045       -1.78866470412628        0.28182584968770
H           -1.08400719043471        0.92408135119510       -2.94453941232279
H            0.57922834281660        1.41739034571925       -2.59047350578702
H           -0.75633485970278        2.05208954156241       -1.61382722525951
H            1.24969222913873       -1.01970623561508       -2.35497994567052
H            0.41062217178139       -2.06394410026135       -1.19906637278240
H           -0.41689852256459       -1.53859208339729       -2.68007016311307
H           -2.34547896803827        0.19228632046190       -1.02336512110339
H           -6.73087978239302       -0.43705701482925       -0.67375120852107
H           -6.58806682077887        0.77504951530062        0.59828348425618
H           -7.37644145588465       -0.77789095857574        0.94932064228935
H            4.16764682737226        1.42012782570465        2.62317799485598

          :  Hamiltonian                  GFN1-xTB          :
         :: total energy             -79.614974425913 Eh    ::
         :: gradient norm              0.000479369482 Eh/a0 ::
         :: HOMO-LUMO gap              1.849763444841 eV    ::
         :: SCC energy               -80.334218288115 Eh    ::
         :: -> Gsolv                  -0.130794846103 Eh    ::
         :: repulsion energy           0.742197413494 Eh    ::

    * Orbital Energies and Occupations

         #    Occupation            Energy/Eh            Energy/eV
      -------------------------------------------------------------
         1        2.0000           -0.8583382             -23.3566
       ...           ...                  ...                  ...
        52        2.0000           -0.4746553             -12.9160
        53        2.0000           -0.4732141             -12.8768
        54        2.0000           -0.4688271             -12.7574
        55        2.0000           -0.4546297             -12.3711
        56        2.0000           -0.4522787             -12.3071
        57        2.0000           -0.4506342             -12.2624
        58        2.0000           -0.4424154             -12.0387
        59        2.0000           -0.4346711             -11.8280
        60        2.0000           -0.4265959             -11.6083
        61        2.0000           -0.4151254             -11.2961
        62        2.0000           -0.3967606             -10.7964
        63        2.0000           -0.3670464              -9.9878
        64        2.0000           -0.3661708              -9.9640 (HOMO)
        65                         -0.2981933              -8.1143 (LUMO)
        66                         -0.2784866              -7.5780
        67                         -0.2509118              -6.8277
        68                         -0.2236439              -6.0857
        69                         -0.1886110              -5.1324
        70                         -0.1865429              -5.0761
        71                         -0.1402298              -3.8158
        72                         -0.1276454              -3.4734
        73                         -0.1167501              -3.1769
        74                         -0.1059448              -2.8829
        75                         -0.1024511              -2.7878
       ...                                ...                  ...
       124                          0.7382323              20.0883
      -------------------------------------------------------------
                  HL-Gap            0.0679776 Eh            1.8498 eV

Wiberg/Mayer (AO) data.
largest (>0.10) Wiberg bond orders for each atom

     #   Z sym  total        # sym  WBO       # sym  WBO       # sym  WBO
 ---------------------------------------------------------------------------
     1   6 C    3.885 --    26 H    0.987    27 H    0.980    25 H    0.980
                             2 O    0.910
     2   8 O    2.191 --     3 C    1.095     1 C    0.910     4 O    0.118
     3   6 C    3.834 --     4 O    1.586     2 O    1.095     5 C    1.051
     4   8 O    1.916 --     3 C    1.586     2 O    0.118
     5   6 C    3.963 --    23 C    1.457     6 N    1.203     3 C    1.051
     6   7 N    2.992 --     7 C    1.455     5 C    1.203
     7   6 C    3.957 --     6 N    1.455    20 N    1.381     8 C    0.960
     8   6 C    3.924 --    10 C    0.993     9 C    0.990     7 C    0.960
                            11 N    0.913
     9   6 C    3.994 --     8 C    0.990    28 H    0.985    29 H    0.985
                            30 H    0.984
    10   6 C    3.993 --     8 C    0.993    33 H    0.988    31 H    0.984
                            32 H    0.982
    11   7 N    3.376 --    12 C    1.288     8 C    0.913    34 H    0.901
                            13 O    0.185
    12   6 C    3.923 --    13 O    1.572    11 N    1.288    14 C    0.981
    13   8 O    1.879 --    12 C    1.572    11 N    0.185
    14   6 C    3.866 --    15 N    1.629    19 O    1.047    12 C    0.981
    15   7 N    2.994 --    14 C    1.629    16 N    1.190
    16   7 N    2.980 --    17 C    1.620    15 N    1.190
    17   6 C    3.872 --    16 N    1.620    19 O    1.071    18 C    1.030
    18   6 C    3.988 --    17 C    1.030    37 H    0.983    35 H    0.967
                            36 H    0.962
    19   8 O    2.313 --    17 C    1.071    14 C    1.047
    20   7 N    2.965 --     7 C    1.381    21 C    1.231    22 O    0.125
    21   6 C    3.930 --    22 O    1.496    20 N    1.231    23 C    1.070
    22   8 O    1.785 --    21 C    1.496    20 N    0.125
    23   6 C    3.903 --     5 C    1.457    24 O    1.074    21 C    1.070
    24   8 O    2.050 --    23 C    1.074    38 H    0.806
    25   1 H    1.010 --     1 C    0.980
    26   1 H    1.013 --     1 C    0.987
    27   1 H    1.010 --     1 C    0.980
    28   1 H    1.000 --     9 C    0.985
    29   1 H    1.005 --     9 C    0.985
    30   1 H    1.008 --     9 C    0.984
    31   1 H    1.018 --    10 C    0.984
    32   1 H    1.016 --    10 C    0.982
    33   1 H    1.004 --    10 C    0.988
    34   1 H    0.945 --    11 N    0.901
    35   1 H    0.997 --    18 C    0.967
    36   1 H    0.998 --    18 C    0.962
    37   1 H    0.999 --    18 C    0.983
    38   1 H    0.876 --    24 O    0.806
 ---------------------------------------------------------------------------

           -------------------------------------------------
          | TOTAL ENERGY              -79.614974425913 Eh   |
          | GRADIENT NORM               0.000479369482 Eh/α |
          | HOMO-LUMO GAP               1.849763444841 eV   |
           -------------------------------------------------

 * finished run on 2023/06/20 at 17:32:12.125
