   * xtb version 6.5.1 (579679a) compiled by 'ehlert@majestix' on 2022-07-11
          program call               : /lustre/hpc/kemi/ree/PhD/git/ReactivityQM/dep/xtb-6.5.1/bin/xtb --gfn 1 /lustre/hpc/kemi/ree/PhD/git/ReactivityQM/calculations/R02oxygendeprot/reac01prodN19/conf14/R02oxygendeprot_reac01prodN19_conf14_gfn1.xyz --opt --vfukui --chrg 0 --uhf 0 --alpb DMSO

   ID    Z sym.   atoms
    1    6 C      1, 3, 5, 7-10, 12, 14, 17, 18, 21, 23, 24
    2    8 O      2, 4, 13, 19, 22, 25
    3    7 N      6, 11, 15, 16, 20
    4    1 H      26-42

      * Solvation model:               ALPB
        Solvent                        DMSO
        Solvent mass                       7.8130E+01 g/mol
          :  Hamiltonian                  GFN1-xTB          :
 * total energy  :   -82.9726120 Eh     change       -0.4443734E-10 Eh
 * total energy  :   -82.9881335 Eh     change       -0.1552152E-01 Eh
 * total energy  :   -82.9944382 Eh     change       -0.6304671E-02 Eh
 * total energy  :   -82.9960049 Eh     change       -0.1566693E-02 Eh
 * total energy  :   -82.9966914 Eh     change       -0.6864910E-03 Eh
 * total energy  :   -82.9969177 Eh     change       -0.2263275E-03 Eh
 * total energy  :   -82.9970496 Eh     change       -0.1318472E-03 Eh
 * total energy  :   -82.9971495 Eh     change       -0.9992219E-04 Eh
 * total energy  :   -82.9972228 Eh     change       -0.7329632E-04 Eh
 * total energy  :   -82.9972744 Eh     change       -0.5162365E-04 Eh
 * total energy  :   -82.9979449 Eh     change       -0.8199326E-05 Eh
 * total energy  :   -82.9979517 Eh     change       -0.6806778E-05 Eh
 * total energy  :   -82.9979567 Eh     change       -0.5058363E-05 Eh
 * total energy  :   -82.9979625 Eh     change       -0.5741046E-05 Eh
 * total energy  :   -82.9979718 Eh     change       -0.9350761E-05 Eh
 * total energy  :   -82.9979793 Eh     change       -0.7524164E-05 Eh
 * total energy  :   -82.9979850 Eh     change       -0.5679825E-05 Eh
 * total energy  :   -82.9979933 Eh     change       -0.8269080E-05 Eh
 * total energy  :   -82.9979962 Eh     change       -0.2904168E-05 Eh
   *** GEOMETRY OPTIMIZATION CONVERGED AFTER 50 ITERATIONS ***

 final structure:
================
42
 xtb: 6.5.1 (579679a)
C           -6.25958314121839        1.44458892293335       -1.16351553968195
O           -5.13221716543465        0.59492926322578       -0.94897679017325
C           -4.06187048990908        1.16012396852903       -0.38577168920207
O           -4.03280537903081        2.33265050387029       -0.06805469380603
C           -2.92136592862937        0.23249974265995       -0.18374435303382
N           -1.85013657362014        0.83193009294626        0.38391125626422
C           -0.76574760563020        0.17729526646649        0.63822826311999
C            0.41793035669712        0.83137842869026        1.31180926567791
C            0.23949986982769        2.35259833040057        1.31373400413244
C            0.54058178951742        0.28508580775030        2.74242197954636
N            1.61180197452302        0.46685315385128        0.53715147888998
C            2.86334687128233        0.85346767127210        0.87356924223958
O            3.17074657260861        1.47374858661802        1.87406533652872
C            3.83987895382253        0.41080591027100       -0.15473323966722
N            3.55409984767785       -0.18264222882744       -1.27477797557024
N            4.73632734186618       -0.39945292952244       -1.91666425492950
C            5.66779107732811        0.07744470202904       -1.14679491158248
C            7.12635508844865        0.08850583301876       -1.39431826965821
O            5.16396572705892        0.60432899477579       -0.02125446534120
N           -0.68595101117517       -1.16372546400488        0.34356503450367
C           -1.68609996448340       -1.83546352572914       -0.22043740519119
O           -1.40952401892766       -3.11156102647768       -0.42614311823473
C           -2.35171907170294       -4.02031471873829       -1.01278836413696
C           -2.94337301108004       -1.15140475295597       -0.54785308134781
O           -3.88397392513798       -1.76115617251759       -1.07761027180234
H           -5.99173746835494        2.26656029368608       -1.83250345055456
H           -7.03438358192058        0.82840722465586       -1.61581204271213
H           -6.61002497065417        1.85515832212746       -0.21308152632195
H           -0.68545909561268        2.60559998926984        1.82994459627096
H            1.07632532083774        2.82492183135296        1.82420022325069
H            0.18553065667209        2.72216206483097        0.29085060768822
H            1.36272661275914        0.77272456475823        3.26240468002528
H            0.72296540072681       -0.78730924037355        2.71703071414779
H           -0.38539171021775        0.47578968358438        3.28270421927007
H            1.48851420606732        0.01162734566118       -0.35382908383307
H            7.47194624924346        1.11324411171091       -1.53699280054483
H            7.35102650031638       -0.49483472952086       -2.28424754851048
H            7.65287254370200       -0.32863691471003       -0.53638493859731
H            0.15499829253774       -1.68173072183032        0.55575597608725
H           -1.84163422008405       -4.98286947823375       -1.04348226768451
H           -2.61523086643652       -3.70223782377273       -2.02279373193528
H           -3.25100305426105       -4.09109488373230       -0.39878306359146

          :  Hamiltonian                  GFN1-xTB          :
         :: total energy             -82.997996195965 Eh    ::
         :: gradient norm              0.000935281807 Eh/a0 ::
         :: HOMO-LUMO gap              2.213931188607 eV    ::
         :: SCC energy               -83.776490989291 Eh    ::
         :: -> Gsolv                  -0.059234285169 Eh    ::
         :: repulsion energy           0.803195295669 Eh    ::

    * Orbital Energies and Occupations

         #    Occupation            Energy/Eh            Energy/eV
      -------------------------------------------------------------
         1        2.0000           -0.8658188             -23.5601
       ...           ...                  ...                  ...
        55        2.0000           -0.5073244             -13.8050
        56        2.0000           -0.5034360             -13.6992
        57        2.0000           -0.4946007             -13.4588
        58        2.0000           -0.4886990             -13.2982
        59        2.0000           -0.4850071             -13.1977
        60        2.0000           -0.4718514             -12.8397
        61        2.0000           -0.4704727             -12.8022
        62        2.0000           -0.4657333             -12.6732
        63        2.0000           -0.4637146             -12.6183
        64        2.0000           -0.4546481             -12.3716
        65        2.0000           -0.4510010             -12.2724
        66        2.0000           -0.4253593             -11.5746
        67        2.0000           -0.4152496             -11.2995 (HOMO)
        68                         -0.3338891              -9.0856 (LUMO)
        69                         -0.3136442              -8.5347
        70                         -0.2846971              -7.7470
        71                         -0.2589001              -7.0450
        72                         -0.2428530              -6.6084
        73                         -0.2019333              -5.4949
        74                         -0.1556656              -4.2359
        75                         -0.1448503              -3.9416
        76                         -0.1430541              -3.8927
        77                         -0.1353746              -3.6837
        78                         -0.1333978              -3.6299
       ...                                ...                  ...
       134                          0.7253623              19.7381
      -------------------------------------------------------------
                  HL-Gap            0.0813605 Eh            2.2139 eV

Wiberg/Mayer (AO) data.
largest (>0.10) Wiberg bond orders for each atom

     #   Z sym  total        # sym  WBO       # sym  WBO       # sym  WBO
 ---------------------------------------------------------------------------
     1   6 C    3.879 --    27 H    0.986    26 H    0.980    28 H    0.980
                             2 O    0.904
     2   8 O    2.201 --     3 C    1.105     1 C    0.904     4 O    0.129
     3   6 C    3.854 --     4 O    1.630     2 O    1.105     5 C    1.029
     4   8 O    1.898 --     3 C    1.630     2 O    0.129
     5   6 C    3.948 --     6 N    1.280    24 C    1.218     3 C    1.029
                            25 O    0.130
     6   7 N    3.046 --     7 C    1.547     5 C    1.280
     7   6 C    3.914 --     6 N    1.547    20 N    1.117     8 C    0.983
     8   6 C    3.932 --     9 C    0.992     7 C    0.983    10 C    0.978
                            11 N    0.919
     9   6 C    3.989 --     8 C    0.992    31 H    0.985    29 H    0.983
                            30 H    0.982
    10   6 C    3.986 --    34 H    0.985    33 H    0.984     8 C    0.978
                            32 H    0.977
    11   7 N    3.331 --    12 C    1.241     8 C    0.919    35 H    0.895
                            13 O    0.175
    12   6 C    3.915 --    13 O    1.602    11 N    1.241    14 C    0.989
    13   8 O    1.918 --    12 C    1.602    11 N    0.175
    14   6 C    3.876 --    15 N    1.609    19 O    1.065    12 C    0.989
    15   7 N    3.018 --    14 C    1.609    16 N    1.200
    16   7 N    2.981 --    17 C    1.604    15 N    1.200
    17   6 C    3.870 --    16 N    1.604    19 O    1.083    18 C    1.032
    18   6 C    3.986 --    17 C    1.032    37 H    0.982    38 H    0.966
                            36 H    0.960
    19   8 O    2.332 --    17 C    1.083    14 C    1.065
    20   7 N    3.528 --    21 C    1.321     7 C    1.117    39 H    0.877
    21   6 C    3.857 --    20 N    1.321    22 O    1.143    24 C    1.069
    22   8 O    2.228 --    21 C    1.143    23 C    0.876
    23   6 C    3.846 --    40 H    0.984    42 H    0.977    41 H    0.977
                            22 O    0.876
    24   6 C    3.951 --    25 O    1.508     5 C    1.218    21 C    1.069
    25   8 O    1.858 --    24 C    1.508     5 C    0.130
    26   1 H    1.009 --     1 C    0.980
    27   1 H    1.012 --     1 C    0.986
    28   1 H    1.009 --     1 C    0.980
    29   1 H    1.009 --     9 C    0.983
    30   1 H    1.007 --     9 C    0.982
    31   1 H    1.005 --     9 C    0.985
    32   1 H    1.008 --    10 C    0.977
    33   1 H    1.001 --    10 C    0.984
    34   1 H    1.001 --    10 C    0.985
    35   1 H    0.952 --    11 N    0.895
    36   1 H    0.996 --    18 C    0.960
    37   1 H    0.998 --    18 C    0.982
    38   1 H    0.996 --    18 C    0.966
    39   1 H    0.924 --    20 N    0.877
    40   1 H    1.009 --    23 C    0.984
    41   1 H    1.015 --    23 C    0.977
    42   1 H    1.015 --    23 C    0.977
 ---------------------------------------------------------------------------

           -------------------------------------------------
          | TOTAL ENERGY              -82.997996195965 Eh   |
          | GRADIENT NORM               0.000935281807 Eh/α |
          | HOMO-LUMO GAP               2.213931188607 eV   |
           -------------------------------------------------

 * finished run on 2023/06/21 at 17:40:15.066
