   * xtb version 6.5.1 (579679a) compiled by 'ehlert@majestix' on 2022-07-11
          program call               : /lustre/hpc/kemi/ree/PhD/git/ReactivityQM/dep/xtb-6.5.1/bin/xtb --gfn 1 /lustre/hpc/kemi/ree/PhD/git/ReactivityQM/calculations/R02/reac01prodE05/conf16/R02_reac01prodE05_conf16_gfn1.xyz --opt --vfukui --chrg -1 --uhf 0 --alpb DMSO

   ID    Z sym.   atoms
    1    6 C      1, 3, 5, 6, 8, 11-14, 16, 18, 21, 22, 25
    2    8 O      2, 4, 7, 9, 17, 23
    3    7 N      10, 15, 19, 20, 24
    4    1 H      26-43

      * Solvation model:               ALPB
        Solvent                        DMSO
        Solvent mass                       7.8130E+01 g/mol
          :  Hamiltonian                  GFN1-xTB          :
 * total energy  :   -83.8038783 Eh     change       -0.1544862E-08 Eh
 * total energy  :   -83.8158991 Eh     change       -0.1202077E-01 Eh
 * total energy  :   -83.8217067 Eh     change       -0.5807571E-02 Eh
 * total energy  :   -83.8229836 Eh     change       -0.1276943E-02 Eh
 * total energy  :   -83.8243199 Eh     change       -0.1336251E-02 Eh
 * total energy  :   -83.8248837 Eh     change       -0.5637996E-03 Eh
 * total energy  :   -83.8253077 Eh     change       -0.4240845E-03 Eh
 * total energy  :   -83.8256239 Eh     change       -0.3161526E-03 Eh
 * total energy  :   -83.8258304 Eh     change       -0.2064977E-03 Eh
 * total energy  :   -83.8259766 Eh     change       -0.1461656E-03 Eh
 * total energy  :   -83.8274250 Eh     change       -0.3719633E-04 Eh
 * total energy  :   -83.8274523 Eh     change       -0.2737095E-04 Eh
 * total energy  :   -83.8274728 Eh     change       -0.2045085E-04 Eh
 * total energy  :   -83.8274888 Eh     change       -0.1601398E-04 Eh
 * total energy  :   -83.8274985 Eh     change       -0.9677967E-05 Eh
 * total energy  :   -83.8275041 Eh     change       -0.5615827E-05 Eh
 * total energy  :   -83.8275096 Eh     change       -0.5528142E-05 Eh
 * total energy  :   -83.8275082 Eh     change        0.1408853E-05 Eh
 * total energy  :   -83.8275123 Eh     change       -0.4063103E-05 Eh
   *** GEOMETRY OPTIMIZATION CONVERGED AFTER 49 ITERATIONS ***

 final structure:
================
43
 xtb: 6.5.1 (579679a)
C           -5.20595945263261       -1.29605678609890        2.12469881243479
O           -4.08494075423670       -0.75260251890270        1.44762562793371
C           -3.92588093762030       -1.19890533268510        0.12748891100150
O           -4.76309052243285       -2.02145920883723       -0.33329774631313
C           -2.85433199597153       -0.68209357803276       -0.58512830198756
C           -2.52344037871375       -1.18510488972061       -1.91621626716170
O           -3.53920914488979       -1.75457890412248       -2.66432133840765
C           -1.24412704219746       -1.12549753669901       -2.40405406389886
O           -0.71704379248554       -1.48835319987935       -3.48664728874330
N           -0.32075043231385       -0.50162775041469       -1.43147287770750
C           -0.66199379998994        0.28388416564799       -0.42653301869388
C            0.47124865842641        1.10842122341388        0.21515428043429
C            0.46198285805209        2.55211737186055       -0.31317505585195
C            0.40814727855039        1.09218888572271        1.74840577825938
N            1.73871134501478        0.45516039463901       -0.11109860908575
C            2.52881583541586        0.72046739016955       -1.20848345982217
O            2.15403602510127        1.36033291030051       -2.19631373426571
C            3.84593598256835        0.11716352751112       -1.10816407201368
N            4.81268578095428        0.13150286689003       -2.00123524291865
N            5.85239988123065       -0.57082501528292       -1.46226622191494
C            5.47705471720335       -0.97088191247390       -0.29065537623859
C            6.25505637064775       -1.76422097754036        0.68904390847134
O            4.22049534720688       -0.57878831187908        0.00886478122568
N           -1.92570921855949        0.28199284998859       -0.03221066212042
C           -2.50688527686892        1.32026773000591        0.81257329247664
H           -5.21712163378576       -0.86094617310788        3.12478918897561
H           -6.14021499667843       -1.04564319453077        1.60788876905385
H           -5.12934887221524       -2.38741509731800        2.20346288402735
H           -4.24920986197112       -1.99294241653010       -2.01500802988056
H            0.64694882319316       -0.50834317150299       -1.72382044781206
H            1.42576296723502        3.01494134520990       -0.10914788947004
H            0.27757423935024        2.57496056743532       -1.38584160093621
H           -0.30688286133519        3.13518294294793        0.18809530765183
H           -0.37265469920136        1.74368768589923        2.12858771858257
H            1.35786022801495        1.45131700281371        2.14199334184409
H            0.23712136503416        0.08086709622526        2.11399461852514
H            2.18002393924475       -0.03393097616972        0.64936482965080
H            5.70193274634168       -2.66015688856636        0.97134222955610
H            6.42717310869453       -1.17739375193719        1.59172812463520
H            7.21165985541398       -2.04700927949610        0.25540033440131
H           -3.54441626953780        1.46263238905892        0.51325707101042
H           -2.48086542079210        1.02470871824972        1.86058694013461
H           -1.97854898844002        2.25961780772389        0.68074455495988

          :  Hamiltonian                  GFN1-xTB          :
         :: total energy             -83.827512264507 Eh    ::
         :: gradient norm              0.000592155947 Eh/a0 ::
         :: HOMO-LUMO gap              0.090486569835 eV    ::
         :: SCC energy               -84.582065288500 Eh    ::
         :: -> Gsolv                  -0.130659041454 Eh    ::
         :: repulsion energy           0.782030938157 Eh    ::

    * Orbital Energies and Occupations

         #    Occupation            Energy/Eh            Energy/eV
      -------------------------------------------------------------
         1        2.0000           -0.8355483             -22.7364
       ...           ...                  ...                  ...
        56        2.0000           -0.4699139             -12.7870
        57        2.0000           -0.4619797             -12.5711
        58        2.0000           -0.4547484             -12.3743
        59        2.0000           -0.4453050             -12.1174
        60        2.0000           -0.4395983             -11.9621
        61        2.0000           -0.4369400             -11.8897
        62        2.0000           -0.4321717             -11.7600
        63        2.0000           -0.4268503             -11.6152
        64        2.0000           -0.4239030             -11.5350
        65        2.0000           -0.4135543             -11.2534
        66        2.0000           -0.3940211             -10.7219
        67        2.0000           -0.3741907             -10.1822
        68        1.7039           -0.2946900              -8.0189 (HOMO)
        69        0.2961           -0.2913647              -7.9284 (LUMO)
        70                         -0.2676547              -7.2833
        71                         -0.2344106              -6.3786
        72                         -0.1753186              -4.7707
        73                         -0.1715394              -4.6678
        74                         -0.1369808              -3.7274
        75                         -0.1333417              -3.6284
        76                         -0.1253644              -3.4113
        77                         -0.1140439              -3.1033
        78                         -0.1127361              -3.0677
        79                         -0.1083413              -2.9481
       ...                                ...                  ...
       136                          0.7313776              19.9018
      -------------------------------------------------------------
                  HL-Gap            0.0033253 Eh            0.0905 eV

Wiberg/Mayer (AO) data.
largest (>0.10) Wiberg bond orders for each atom

     #   Z sym  total        # sym  WBO       # sym  WBO       # sym  WBO
 ---------------------------------------------------------------------------
     1   6 C    3.907 --    26 H    0.987    28 H    0.981    27 H    0.981
                             2 O    0.936
     2   8 O    2.068 --     3 C    0.938     1 C    0.936
     3   6 C    3.823 --     5 C    1.392     4 O    1.378     2 O    0.938
     4   8 O    1.751 --     3 C    1.378     5 C    0.123
     5   6 C    3.698 --     3 C    1.392     6 C    1.089    24 N    0.927
                             4 O    0.123
     6   6 C    3.764 --     8 C    1.430     5 C    1.089     7 O    1.008
                             9 O    0.138
     7   8 O    1.937 --     6 C    1.008    29 H    0.794
     8   6 C    3.820 --     6 C    1.430     9 O    1.389    10 N    0.855
     9   8 O    1.663 --     8 C    1.389     6 C    0.138
    10   7 N    3.416 --    11 C    1.367    30 H    0.888     8 C    0.855
                            24 N    0.147
    11   6 C    3.928 --    24 N    1.388    10 N    1.367    12 C    0.956
    12   6 C    3.944 --    14 C    0.993    13 C    0.981    11 C    0.956
                            15 N    0.946
    13   6 C    3.989 --    31 H    0.982    12 C    0.981    32 H    0.981
                            33 H    0.977
    14   6 C    3.991 --    12 C    0.993    36 H    0.985    35 H    0.982
                            34 H    0.980
    15   7 N    3.235 --    16 C    1.147    12 C    0.946    37 H    0.902
                            17 O    0.142
    16   6 C    3.809 --    17 O    1.506    15 N    1.147    18 C    1.073
    17   8 O    1.781 --    16 C    1.506    15 N    0.142
    18   6 C    3.764 --    19 N    1.504    16 C    1.073    23 O    1.004
    19   7 N    2.839 --    18 C    1.504    20 N    1.191
    20   7 N    2.981 --    21 C    1.623    19 N    1.191
    21   6 C    3.834 --    20 N    1.623    23 O    1.055    22 C    1.028
    22   6 C    3.990 --    21 C    1.028    40 H    0.984    38 H    0.969
                            39 H    0.966
    23   8 O    2.240 --    21 C    1.055    18 C    1.004
    24   7 N    3.489 --    11 C    1.388    25 C    0.939     5 C    0.927
                            10 N    0.147
    25   6 C    3.942 --    41 H    0.979    43 H    0.977    42 H    0.975
                            24 N    0.939
    26   1 H    1.017 --     1 C    0.987
    27   1 H    1.018 --     1 C    0.981
    28   1 H    1.018 --     1 C    0.981
    29   1 H    0.892 --     7 O    0.794
    30   1 H    0.956 --    10 N    0.888
    31   1 H    1.002 --    13 C    0.982
    32   1 H    1.018 --    13 C    0.981
    33   1 H    1.006 --    13 C    0.977
    34   1 H    1.004 --    14 C    0.980
    35   1 H    0.999 --    14 C    0.982
    36   1 H    0.999 --    14 C    0.985
    37   1 H    0.946 --    15 N    0.902
    38   1 H    0.998 --    22 C    0.969
    39   1 H    0.998 --    22 C    0.966
    40   1 H    1.001 --    22 C    0.984
    41   1 H    1.014 --    25 C    0.979
    42   1 H    1.019 --    25 C    0.975
    43   1 H    1.008 --    25 C    0.977
 ---------------------------------------------------------------------------

           -------------------------------------------------
          | TOTAL ENERGY              -83.827512264507 Eh   |
          | GRADIENT NORM               0.000592155947 Eh/α |
          | HOMO-LUMO GAP               0.090486569835 eV   |
           -------------------------------------------------

 * finished run on 2023/06/20 at 14:58:21.005
