   * xtb version 6.5.1 (579679a) compiled by 'ehlert@majestix' on 2022-07-11
          program call               : /lustre/hpc/kemi/ree/PhD/git/ReactivityQM/dep/xtb-6.5.1/bin/xtb --gfn 1 /lustre/hpc/kemi/ree/PhD/git/ReactivityQM/calculations/RaltegravirCLI/reac02prodE07/conf07/RaltegravirCLI_reac02prodE07_conf07_gfn1.xyz --opt --vfukui --chrg -1 --uhf 0 --alpb DMSO

   ID    Z sym.   atoms
    1    6 C      1-4, 6-9, 11, 13, 15-18, 21, 22, 24
    2    9 F      5
    3    7 N      10, 14, 19, 20
    4    8 O      12, 23, 25
    5    1 H      26-47

      * Solvation model:               ALPB
        Solvent                        DMSO
        Solvent mass                       7.8130E+01 g/mol
          :  Hamiltonian                  GFN1-xTB          :
 * total energy  :   -80.1773200 Eh     change       -0.2034938E-08 Eh
 * total energy  :   -80.1859598 Eh     change       -0.8639845E-02 Eh
 * total energy  :   -80.1882438 Eh     change       -0.2283924E-02 Eh
 * total energy  :   -80.1886826 Eh     change       -0.4388752E-03 Eh
 * total energy  :   -80.1891033 Eh     change       -0.4206952E-03 Eh
 * total energy  :   -80.1893558 Eh     change       -0.2524499E-03 Eh
 * total energy  :   -80.1895875 Eh     change       -0.2317598E-03 Eh
 * total energy  :   -80.1897626 Eh     change       -0.1750483E-03 Eh
 * total energy  :   -80.1899049 Eh     change       -0.1423035E-03 Eh
 * total energy  :   -80.1900274 Eh     change       -0.1225082E-03 Eh
 * total energy  :   -80.1945245 Eh     change       -0.3226850E-04 Eh
 * total energy  :   -80.1945368 Eh     change       -0.1234299E-04 Eh
 * total energy  :   -80.1945555 Eh     change       -0.1865108E-04 Eh
 * total energy  :   -80.1945613 Eh     change       -0.5790757E-05 Eh
 * total energy  :   -80.1945708 Eh     change       -0.9546952E-05 Eh
 * total energy  :   -80.1945763 Eh     change       -0.5427717E-05 Eh
 * total energy  :   -80.1945832 Eh     change       -0.6983816E-05 Eh
 * total energy  :   -80.1945839 Eh     change       -0.6724127E-06 Eh
 * total energy  :   -80.1945869 Eh     change       -0.3008550E-05 Eh
   *** GEOMETRY OPTIMIZATION CONVERGED AFTER 103 ITERATIONS ***

 final structure:
================
47
 xtb: 6.5.1 (579679a)
C            3.39925764172815       -1.97348784550274       -0.89013063209762
C            3.20252207044652       -0.64021749763727       -0.11682002892541
C            3.90031195598889       -0.70412957609759        1.22044228182955
C            4.96873377108719        0.08287094108857        1.47970938400920
F            5.59668767583705       -0.07228628971006        2.68547686619765
C            5.46841184367202        1.08479957960847        0.63438658062364
C            4.74174691911019        1.31946240031182       -0.54571189020167
C            3.68097052711847        0.54665914019926       -0.93328265807662
C            2.84142768816662        0.92796102172340       -2.11965739778841
N            1.51576266613763        1.34946139620855       -1.62269014170251
C            0.55959723477835        0.38962963228526       -1.45153805665203
O            0.50326750934758       -0.61414555530308       -2.17466781438775
C           -0.48430968699291        0.66189739065055       -0.43032063009610
N           -1.55545301835811       -0.19753557561357       -0.48936236233411
C           -2.55919055140430       -0.11746503245075        0.31937145141790
C           -3.70325013332977       -1.09751663537586        0.07171725293622
C           -3.25770518626163       -2.14697806273206       -0.96006238162687
C           -4.91658411563814       -0.33619641237792       -0.48068066649800
N           -4.08551786977709       -1.76797216548635        1.31547085206650
N           -2.61741018933171        0.83694092543331        1.30885895674548
C           -3.72178166299212        1.00349456124138        2.25085611010751
C           -1.59315122535340        1.77088629969266        1.45010024116918
O           -1.63823052970433        2.65218418424058        2.32190067611711
C           -0.49814842691657        1.64682557391627        0.53519428280165
O            0.49557982608357        2.56520908378338        0.70556402304161
H            4.44752249807701       -2.09560810147622       -1.16514280869428
H            3.10352294076086       -2.81526848801008       -0.26226762514815
H            2.79262999747429       -1.98503720479434       -1.79663892876631
H            2.10537880974279       -0.54697044097215        0.04670660567375
H            3.54366497525874       -1.42394693893533        1.94754331766475
H            6.33005080224747        1.67550112878697        0.90984563303607
H            5.04543124197438        2.15124753214488       -1.17897898331722
H            2.67969730477335        0.10213095046465       -2.82191805333767
H            3.28565029851515        1.76565770121530       -2.66789108532383
H            1.56981389053281        2.07452882816321       -0.92067554300434
H           -2.37508701578096       -2.67602918931582       -0.60231802519870
H           -3.01939384833348       -1.67030888165386       -1.91073824569599
H           -4.06151885548831       -2.86474343298528       -1.11313549621842
H           -5.32296788491533        0.34759372601881        0.26162251346250
H           -5.69657978804159       -1.04332929437740       -0.75923884587313
H           -4.62993251905310        0.23357206205370       -1.36447379753500
H           -3.36703120150661       -2.42702159164147        1.58609085354297
H           -4.93536408206512       -2.29030471893468        1.15997142678398
H           -4.25492482352256        0.06567105117781        2.37836663770618
H           -3.30858478443395        1.32143659503036        3.20920891895759
H           -4.40157706235345        1.77635696593416        1.88846641940379
H            0.22605237269420        3.15451925999803        1.43345781320505

          :  Hamiltonian                  GFN1-xTB          :
         :: total energy             -80.194586929495 Eh    ::
         :: gradient norm              0.000554293678 Eh/a0 ::
         :: HOMO-LUMO gap              0.332682577656 eV    ::
         :: SCC energy               -81.047850252288 Eh    ::
         :: -> Gsolv                  -0.104329381793 Eh    ::
         :: repulsion energy           0.884636389396 Eh    ::

    * Orbital Energies and Occupations

         #    Occupation            Energy/Eh            Energy/eV
      -------------------------------------------------------------
         1        2.0000           -0.8089841             -22.0136
       ...           ...                  ...                  ...
        56        2.0000           -0.4536156             -12.3435
        57        2.0000           -0.4435023             -12.0683
        58        2.0000           -0.4400228             -11.9736
        59        2.0000           -0.4389670             -11.9449
        60        2.0000           -0.4261212             -11.5953
        61        2.0000           -0.4228771             -11.5071
        62        2.0000           -0.4202046             -11.4343
        63        2.0000           -0.4120157             -11.2115
        64        2.0000           -0.4050883             -11.0230
        65        2.0000           -0.4009425             -10.9102
        66        2.0000           -0.3953616             -10.7583
        67        2.0000           -0.3840123             -10.4495
        68        1.9968           -0.3015978              -8.2069 (HOMO)
        69        0.0032           -0.2893719              -7.8742 (LUMO)
        70                         -0.2514175              -6.8414
        71                         -0.2069307              -5.6309
        72                         -0.1975208              -5.3748
        73                         -0.1292074              -3.5159
        74                         -0.1265114              -3.4426
        75                         -0.1227393              -3.3399
        76                         -0.1158015              -3.1511
        77                         -0.1088914              -2.9631
        78                         -0.0937352              -2.5507
        79                         -0.0907611              -2.4697
       ...                                ...                  ...
       144                          0.7043877              19.1674
      -------------------------------------------------------------
                  HL-Gap            0.0122259 Eh            0.3327 eV

Wiberg/Mayer (AO) data.
largest (>0.10) Wiberg bond orders for each atom

     #   Z sym  total        # sym  WBO       # sym  WBO       # sym  WBO
 ---------------------------------------------------------------------------
     1   6 C    3.983 --    26 H    0.990    27 H    0.987    28 H    0.984
                             2 C    0.969
     2   6 C    3.993 --     3 C    1.012     8 C    1.005     1 C    0.969
                            29 H    0.944
     3   6 C    3.907 --     4 C    1.606     2 C    1.012    30 H    0.974
     4   6 C    3.836 --     3 C    1.606     6 C    1.275     5 F    0.871
     5   9 F    0.984 --     4 C    0.871
     6   6 C    3.780 --     7 C    1.329     4 C    1.275    31 H    0.976
     7   6 C    3.994 --     8 C    1.578     6 C    1.329    32 H    0.970
     8   6 C    3.905 --     7 C    1.578     9 C    1.010     2 C    1.005
     9   6 C    3.946 --     8 C    1.010    34 H    0.979    33 H    0.971
                            10 N    0.916
    10   7 N    3.288 --    11 C    1.204     9 C    0.916    35 H    0.906
                            12 O    0.141
    11   6 C    3.892 --    12 O    1.513    10 N    1.204    13 C    1.033
    12   8 O    1.817 --    11 C    1.513    10 N    0.141
    13   6 C    3.930 --    24 C    1.428    14 N    1.176    11 C    1.033
    14   7 N    3.023 --    15 C    1.585    13 C    1.176
    15   6 C    3.912 --    14 N    1.585    20 N    1.155    16 C    0.974
    16   6 C    3.966 --    17 C    0.992    18 C    0.987    19 N    0.978
                            15 C    0.974
    17   6 C    3.995 --    16 C    0.992    38 H    0.986    36 H    0.984
                            37 H    0.983
    18   6 C    3.994 --    16 C    0.987    41 H    0.986    40 H    0.984
                            39 H    0.982
    19   7 N    2.992 --    16 C    0.978    43 H    0.942    42 H    0.942
    20   7 N    3.442 --    15 C    1.155    22 C    1.095    21 C    0.937
                            23 O    0.116
    21   6 C    3.932 --    46 H    0.978    45 H    0.977    44 H    0.971
                            20 N    0.937
    22   6 C    3.877 --    23 O    1.488    24 C    1.154    20 N    1.095
    23   8 O    1.819 --    22 C    1.488    20 N    0.116
    24   6 C    3.876 --    13 C    1.428    22 C    1.154    25 O    1.039
    25   8 O    2.037 --    24 C    1.039    47 H    0.815
    26   1 H    1.016 --     1 C    0.990
    27   1 H    1.011 --     1 C    0.987
    28   1 H    1.015 --     1 C    0.984
    29   1 H    1.016 --     2 C    0.944
    30   1 H    1.003 --     3 C    0.974
    31   1 H    1.004 --     6 C    0.976
    32   1 H    1.006 --     7 C    0.970
    33   1 H    1.023 --     9 C    0.971
    34   1 H    1.013 --     9 C    0.979
    35   1 H    0.967 --    10 N    0.906
    36   1 H    1.012 --    17 C    0.984
    37   1 H    1.015 --    17 C    0.983
    38   1 H    1.005 --    17 C    0.986
    39   1 H    1.005 --    18 C    0.982
    40   1 H    1.001 --    18 C    0.984
    41   1 H    1.004 --    18 C    0.986
    42   1 H    0.958 --    19 N    0.942
    43   1 H    0.957 --    19 N    0.942
    44   1 H    1.031 --    21 C    0.971
    45   1 H    1.012 --    21 C    0.977
    46   1 H    1.005 --    21 C    0.978
    47   1 H    0.862 --    25 O    0.815
 ---------------------------------------------------------------------------

           -------------------------------------------------
          | TOTAL ENERGY              -80.194586929495 Eh   |
          | GRADIENT NORM               0.000554293678 Eh/α |
          | HOMO-LUMO GAP               0.332682577656 eV   |
           -------------------------------------------------

 * finished run on 2023/06/20 at 15:06:00.897
