   * xtb version 6.5.1 (579679a) compiled by 'ehlert@majestix' on 2022-07-11
          program call               : /lustre/hpc/kemi/ree/PhD/git/ReactivityQM/dep/xtb-6.5.1/bin/xtb --gfn 1 /lustre/hpc/kemi/ree/PhD/git/ReactivityQM/calculations/R02methylcation/reac01prodE14/conf16/R02methylcation_reac01prodE14_conf16_gfn1.xyz --opt --vfukui --chrg -2 --uhf 0 --alpb DMSO

   ID    Z sym.   atoms
    1    6 C      1, 3, 5, 7-10, 12, 14, 17, 18, 21, 23, 24
    2    8 O      2, 4, 13, 19, 22, 25
    3    7 N      6, 11, 15, 16, 20
    4    1 H      26-42

      * Solvation model:               ALPB
        Solvent                        DMSO
        Solvent mass                       7.8130E+01 g/mol
          :  Hamiltonian                  GFN1-xTB          :
 * total energy  :   -83.5870811 Eh     change       -0.1736566E-10 Eh
 * total energy  :   -83.6023860 Eh     change       -0.1530498E-01 Eh
 * total energy  :   -83.6080885 Eh     change       -0.5702469E-02 Eh
 * total energy  :   -83.6094386 Eh     change       -0.1350056E-02 Eh
 * total energy  :   -83.6105393 Eh     change       -0.1100681E-02 Eh
 * total energy  :   -83.6111340 Eh     change       -0.5947476E-03 Eh
 * total energy  :   -83.6115491 Eh     change       -0.4150525E-03 Eh
 * total energy  :   -83.6118679 Eh     change       -0.3188246E-03 Eh
 * total energy  :   -83.6121569 Eh     change       -0.2890383E-03 Eh
 * total energy  :   -83.6124289 Eh     change       -0.2720135E-03 Eh
 * total energy  :   -83.6139160 Eh     change       -0.2154041E-04 Eh
 * total energy  :   -83.6139365 Eh     change       -0.2056404E-04 Eh
 * total energy  :   -83.6139571 Eh     change       -0.2062651E-04 Eh
 * total energy  :   -83.6139746 Eh     change       -0.1742356E-04 Eh
 * total energy  :   -83.6139894 Eh     change       -0.1486665E-04 Eh
 * total energy  :   -83.6139994 Eh     change       -0.9960359E-05 Eh
 * total energy  :   -83.6140064 Eh     change       -0.6989365E-05 Eh
 * total energy  :   -83.6140116 Eh     change       -0.5265390E-05 Eh
 * total energy  :   -83.6140136 Eh     change       -0.1907604E-05 Eh
   *** GEOMETRY OPTIMIZATION CONVERGED AFTER 41 ITERATIONS ***

 final structure:
================
42
 xtb: 6.5.1 (579679a)
C           -5.26897058621278        0.67145963037041        2.20875815893678
O           -4.05282547177446        0.40380579841873        1.54910557178808
C           -4.09144529633438        0.56927805384823        0.13868547500038
O           -5.18074434492221        0.91186770227859       -0.36676540383795
C           -2.87672507000640        0.27742324425128       -0.48660054964825
N           -1.82038759399098       -0.06432115175189        0.33042149179627
C           -0.73785861731813       -0.55292221924634       -0.15140578572502
C            0.45466975569638       -0.85256859433337        0.73266002347221
C            0.27115638027835       -0.15997953395313        2.08727062397691
C            0.63072854080373       -2.36818692187481        0.92450552634488
N            1.64225578483958       -0.31210088862840        0.04786667575996
C            2.88985544219039       -0.33532867236873        0.54560003147289
O            3.22364717454934       -0.80673079137212        1.62841431933233
C            3.84405374366139        0.31610491403222       -0.38392383277019
N            3.54026417528231        0.90022272707374       -1.50903396145656
N            4.70741391377311        1.37937622892390       -2.03165761262074
C            5.64508956492745        1.06035018634262       -1.19696618201810
C            7.09189256698811        1.35005265087499       -1.31229138607574
O            5.17084561836734        0.38957309355101       -0.13341226744098
N           -0.60467598975609       -0.89750659704685       -1.51677996503063
C           -1.65359248643066       -0.69701070831097       -2.37926766451057
O           -1.72982120686654       -1.37712893003050       -3.40871431437885
C           -2.57403910088788        0.51027192334534       -2.00094816800807
C           -3.87250960103501        0.35918964415617       -2.85764401579135
O           -1.90125310463810        1.64295387253412       -2.26208781352545
H           -5.10862167466186        0.49982616659105        3.27497377141610
H           -5.59182109349526        1.71080992629962        2.05983155152092
H           -6.07272414578873        0.01004764388940        1.85883082948762
H           -0.67271509982899       -0.48544960551481        2.52421950338472
H            1.08316318842179       -0.41127631376476        2.76618122854929
H            0.23763603078096        0.92137036611867        1.95426910917459
H           -0.27847144825580       -2.78589925002094        1.35471587290012
H            1.46508498141617       -2.57595200883480        1.59234045632074
H            0.82245459682037       -2.84910051555475       -0.03314142217201
H            1.51531659818419        0.05562843881653       -0.88824179001266
H            7.27363279483739        1.95824141927869       -2.19423517668842
H            7.44094654470681        1.87760769475182       -0.42565716818336
H            7.65411681022599        0.42036633912830       -1.39279765405896
H            0.01205383353965       -1.66082363928217       -1.74066082359672
H           -4.43371721134078       -0.53474085358930       -2.58414026288892
H           -3.59076620948499        0.29379782249486       -3.91016907893966
H           -4.50259068724782        1.23740270810757       -2.72487592125960

          :  Hamiltonian                  GFN1-xTB          :
         :: total energy             -83.614013556798 Eh    ::
         :: gradient norm              0.000506849392 Eh/a0 ::
         :: HOMO-LUMO gap              0.162200740514 eV    ::
         :: SCC energy               -84.350258470459 Eh    ::
         :: -> Gsolv                  -0.300002960008 Eh    ::
         :: repulsion energy           0.761877774779 Eh    ::

    * Orbital Energies and Occupations

         #    Occupation            Energy/Eh            Energy/eV
      -------------------------------------------------------------
         1        2.0000           -0.8471609             -23.0524
       ...           ...                  ...                  ...
        56        2.0000           -0.4434682             -12.0674
        57        2.0000           -0.4419015             -12.0248
        58        2.0000           -0.4321106             -11.7583
        59        2.0000           -0.4255093             -11.5787
        60        2.0000           -0.4217208             -11.4756
        61        2.0000           -0.4158004             -11.3145
        62        2.0000           -0.4031012             -10.9689
        63        2.0000           -0.3939688             -10.7204
        64        2.0000           -0.3836201             -10.4388
        65        2.0000           -0.3726438             -10.1402
        66        2.0000           -0.3088734              -8.4049
        67        1.9992           -0.3021973              -8.2232
        68        1.9172           -0.2977986              -8.1035 (HOMO)
        69        0.0836           -0.2918378              -7.9413 (LUMO)
        70                         -0.2435741              -6.6280
        71                         -0.2146408              -5.8407
        72                         -0.1788535              -4.8669
        73                         -0.1748309              -4.7574
        74                         -0.1374799              -3.7410
        75                         -0.1139392              -3.1004
        76                         -0.1071157              -2.9148
        77                         -0.1046627              -2.8480
        78                         -0.0990932              -2.6965
        79                         -0.0801431              -2.1808
       ...                                ...                  ...
       134                          0.7252741              19.7357
      -------------------------------------------------------------
                  HL-Gap            0.0059608 Eh            0.1622 eV

Wiberg/Mayer (AO) data.
largest (>0.10) Wiberg bond orders for each atom

     #   Z sym  total        # sym  WBO       # sym  WBO       # sym  WBO
 ---------------------------------------------------------------------------
     1   6 C    3.924 --    26 H    0.986    27 H    0.980    28 H    0.980
                             2 O    0.958
     2   8 O    2.053 --     1 C    0.958     3 C    0.916
     3   6 C    3.851 --     4 O    1.443     5 C    1.350     2 O    0.916
     4   8 O    1.776 --     3 C    1.443     5 C    0.110
     5   6 C    3.834 --     3 C    1.350     6 N    1.182    23 C    0.911
                             4 O    0.110
     6   7 N    3.052 --     7 C    1.629     5 C    1.182
     7   6 C    3.902 --     6 N    1.629    20 N    1.000     8 C    0.978
     8   6 C    3.925 --     9 C    0.995    10 C    0.982     7 C    0.978
                            11 N    0.905
     9   6 C    3.994 --     8 C    0.995    31 H    0.986    30 H    0.984
                            29 H    0.984
    10   6 C    3.990 --    32 H    0.986    34 H    0.984    33 H    0.983
                             8 C    0.982
    11   7 N    3.347 --    12 C    1.271     8 C    0.905    35 H    0.898
                            13 O    0.177
    12   6 C    3.893 --    13 O    1.546    11 N    1.271    14 C    1.000
    13   8 O    1.853 --    12 C    1.546    11 N    0.177
    14   6 C    3.830 --    15 N    1.583    19 O    1.047    12 C    1.000
    15   7 N    2.965 --    14 C    1.583    16 N    1.189
    16   7 N    2.980 --    17 C    1.618    15 N    1.189
    17   6 C    3.864 --    16 N    1.618    19 O    1.075    18 C    1.029
    18   6 C    3.989 --    17 C    1.029    36 H    0.983    37 H    0.968
                            38 H    0.964
    19   8 O    2.299 --    17 C    1.075    14 C    1.047
    20   7 N    3.340 --    21 C    1.165     7 C    1.000    39 H    0.913
                            22 O    0.115
    21   6 C    3.809 --    22 O    1.563    20 N    1.165    23 C    0.877
    22   8 O    1.831 --    21 C    1.563    20 N    0.115
    23   6 C    3.960 --    25 O    1.124    24 C    0.951     5 C    0.911
                            21 C    0.877
    24   6 C    3.990 --    40 H    0.990    41 H    0.987    42 H    0.987
                            23 C    0.951
    25   8 O    1.393 --    23 C    1.124
    26   1 H    1.021 --     1 C    0.986
    27   1 H    1.022 --     1 C    0.980
    28   1 H    1.023 --     1 C    0.980
    29   1 H    1.022 --     9 C    0.984
    30   1 H    1.015 --     9 C    0.984
    31   1 H    1.013 --     9 C    0.986
    32   1 H    1.007 --    10 C    0.986
    33   1 H    1.012 --    10 C    0.983
    34   1 H    1.006 --    10 C    0.984
    35   1 H    0.968 --    11 N    0.898
    36   1 H    1.000 --    18 C    0.983
    37   1 H    0.998 --    18 C    0.968
    38   1 H    0.998 --    18 C    0.964
    39   1 H    0.966 --    20 N    0.913
    40   1 H    1.018 --    24 C    0.990
    41   1 H    1.026 --    24 C    0.987
    42   1 H    1.036 --    24 C    0.987
 ---------------------------------------------------------------------------

           -------------------------------------------------
          | TOTAL ENERGY              -83.614013556798 Eh   |
          | GRADIENT NORM               0.000506849392 Eh/α |
          | HOMO-LUMO GAP               0.162200740514 eV   |
           -------------------------------------------------

 * finished run on 2023/06/21 at 17:28:47.640
