   * xtb version 6.5.1 (579679a) compiled by 'ehlert@majestix' on 2022-07-11
          program call               : /lustre/hpc/kemi/ree/PhD/git/ReactivityQM/dep/xtb-6.5.1/bin/xtb --gfn 1 /lustre/hpc/kemi/ree/PhD/git/ReactivityQM/calculations/R01/reac02prodN09/conf05/R01_reac02prodN09_conf05_gfn1.xyz --opt --vfukui --chrg 1 --uhf 0 --alpb DMSO

   ID    Z sym.   atoms
    1    6 C      1, 3, 5, 7-10, 13, 15, 16
    2    8 O      2, 4, 14, 17
    3    7 N      6, 11, 12
    4    1 H      18-33

      * Solvation model:               ALPB
        Solvent                        DMSO
        Solvent mass                       7.8130E+01 g/mol
          :  Hamiltonian                  GFN1-xTB          :
 * total energy  :   -57.7921271 Eh     change       -0.1122658E-10 Eh
 * total energy  :   -57.8036940 Eh     change       -0.1156691E-01 Eh
 * total energy  :   -57.8089014 Eh     change       -0.5207375E-02 Eh
 * total energy  :   -57.8099907 Eh     change       -0.1089393E-02 Eh
 * total energy  :   -57.8107139 Eh     change       -0.7231759E-03 Eh
 * total energy  :   -57.8111373 Eh     change       -0.4233762E-03 Eh
 * total energy  :   -57.8115866 Eh     change       -0.4492891E-03 Eh
 * total energy  :   -57.8119540 Eh     change       -0.3674068E-03 Eh
 * total energy  :   -57.8122082 Eh     change       -0.2542097E-03 Eh
 * total energy  :   -57.8123854 Eh     change       -0.1771577E-03 Eh
 * total energy  :   -57.8386159 Eh     change       -0.2063251E-04 Eh
 * total energy  :   -57.8386344 Eh     change       -0.1851824E-04 Eh
 * total energy  :   -57.8386598 Eh     change       -0.2545153E-04 Eh
 * total energy  :   -57.8386758 Eh     change       -0.1594475E-04 Eh
 * total energy  :   -57.8386880 Eh     change       -0.1225082E-04 Eh
 * total energy  :   -57.8387031 Eh     change       -0.1504814E-04 Eh
 * total energy  :   -57.8387130 Eh     change       -0.9919024E-05 Eh
 * total energy  :   -57.8387186 Eh     change       -0.5652434E-05 Eh
 * total energy  :   -57.8387235 Eh     change       -0.4835276E-05 Eh
   *** GEOMETRY OPTIMIZATION CONVERGED AFTER 59 ITERATIONS ***

 final structure:
================
33
 xtb: 6.5.1 (579679a)
C            3.46974386054802        2.79637329944615       -0.04662255369742
O            2.33378714132307        1.93633290232704        0.14784203042916
C            2.48124637012836        0.67009757567515       -0.16830154581396
O            3.49280893990765        0.17197060259826       -0.59898494167337
C            1.21555546845972       -0.13319250688351        0.03587893107626
N            0.10479463893333        0.48943918753721        0.00911566968357
C           -1.09535913324586       -0.23746468040551        0.14910642210541
C           -2.36119779537960        0.53465480264733        0.14072130462425
C           -2.28498567147149        2.04232972905892        0.10900220331969
C           -3.62802078127980       -0.04231777509526        0.72202658322452
N           -1.91394289318969       -0.11964383627290       -1.11439318474047
N           -1.02065029804666       -1.52701874334169        0.69489604506591
C            0.15393851489326       -2.22574670461126        0.87311721806573
O            0.18909079112912       -3.22632655144175        1.53957484762404
C            1.33802773696690       -1.64331394147809        0.09773350869248
C            1.24087714605432       -2.16590498941772       -1.35587886446056
O            2.51469078503945       -2.07000990029687        0.71022591719559
H            3.83885969630859        2.69227983312704       -1.06853278206956
H            4.25802111313869        2.52679765373300        0.65929853043979
H            3.11983039989329        3.80978212624178        0.13689576612674
H           -3.11140175803046        2.44196045941649       -0.47618590650619
H           -1.34189697069684        2.37047650853115       -0.32437844740305
H           -2.36041868131320        2.42128250415884        1.12783994724659
H           -4.49008382718919        0.43840646171440        0.26071565434861
H           -3.69443005895602       -1.11421014755355        0.55024171689860
H           -3.65356537862397        0.15143823946253        1.79386096118751
H           -1.53487476858671        0.46118797371155       -1.84831818755459
H           -2.40573085682635       -0.94665451162740       -1.41586071626436
H           -1.81480423025083       -1.87002421747960        1.21248338592639
H            1.32593905371914       -3.25125774388105       -1.34290430877302
H            2.05525399082220       -1.74488584456261       -1.94210245744049
H            0.29003474654680       -1.87813300751297       -1.79537273158442
H            3.28886170927168       -1.75870475752448        0.21356198470221

          :  Hamiltonian                  GFN1-xTB          :
         :: total energy             -57.838723484276 Eh    ::
         :: gradient norm              0.000784532677 Eh/a0 ::
         :: HOMO-LUMO gap              2.760887739617 eV    ::
         :: SCC energy               -58.405449660981 Eh    ::
         :: -> Gsolv                  -0.118742076179 Eh    ::
         :: repulsion energy           0.586024059971 Eh    ::

    * Orbital Energies and Occupations

         #    Occupation            Energy/Eh            Energy/eV
      -------------------------------------------------------------
         1        2.0000           -0.8928559             -24.2958
       ...           ...                  ...                  ...
        35        2.0000           -0.5527540             -15.0412
        36        2.0000           -0.5479649             -14.9109
        37        2.0000           -0.5471729             -14.8893
        38        2.0000           -0.5411784             -14.7262
        39        2.0000           -0.5383928             -14.6504
        40        2.0000           -0.5313504             -14.4588
        41        2.0000           -0.5274630             -14.3530
        42        2.0000           -0.5186114             -14.1121
        43        2.0000           -0.5152158             -14.0197
        44        2.0000           -0.5121934             -13.9375
        45        2.0000           -0.4895099             -13.3202
        46        2.0000           -0.4822617             -13.1230
        47        2.0000           -0.4681535             -12.7391 (HOMO)
        48                         -0.3666927              -9.9782 (LUMO)
        49                         -0.2945580              -8.0153
        50                         -0.2567078              -6.9854
        51                         -0.2025567              -5.5118
        52                         -0.1791637              -4.8753
        53                         -0.1687969              -4.5932
        54                         -0.1586479              -4.3170
        55                         -0.1487778              -4.0484
        56                         -0.1379133              -3.7528
        57                         -0.1258575              -3.4248
        58                         -0.1220511              -3.3212
       ...                                ...                  ...
       100                          0.7169780              19.5100
      -------------------------------------------------------------
                  HL-Gap            0.1014608 Eh            2.7609 eV

Wiberg/Mayer (AO) data.
largest (>0.10) Wiberg bond orders for each atom

     #   Z sym  total        # sym  WBO       # sym  WBO       # sym  WBO
 ---------------------------------------------------------------------------
     1   6 C    3.848 --    20 H    0.985    18 H    0.978    19 H    0.977
                             2 O    0.875
     2   8 O    2.238 --     3 C    1.168     1 C    0.875     4 O    0.148
     3   6 C    3.855 --     4 O    1.667     2 O    1.168     5 C    0.949
     4   8 O    1.965 --     3 C    1.667     2 O    0.148
     5   6 C    3.932 --     6 N    1.798    15 C    0.966     3 C    0.949
     6   7 N    3.052 --     5 C    1.798     7 C    1.026
     7   6 C    3.871 --     6 N    1.026    12 N    1.020     8 C    0.922
                            11 N    0.801
     8   6 C    3.851 --    10 C    1.011     9 C    1.008     7 C    0.922
                            11 N    0.835
     9   6 C    3.978 --     8 C    1.008    22 H    0.978    21 H    0.976
                            23 H    0.973
    10   6 C    3.979 --     8 C    1.011    25 H    0.978    24 H    0.973
                            26 H    0.972
    11   7 N    3.496 --    28 H    0.871    27 H    0.870     8 C    0.835
                             7 C    0.801
    12   7 N    3.289 --    13 C    1.140     7 C    1.020    29 H    0.875
                            14 O    0.140
    13   6 C    3.879 --    14 O    1.706    12 N    1.140    15 C    0.930
    14   8 O    1.970 --    13 C    1.706    12 N    0.140
    15   6 C    3.936 --    17 O    0.991     5 C    0.966    13 C    0.930
                            16 C    0.927
    16   6 C    3.982 --    32 H    0.986    31 H    0.979    30 H    0.977
                            15 C    0.927
    17   8 O    1.910 --    15 C    0.991    33 H    0.827
    18   1 H    1.003 --     1 C    0.978
    19   1 H    1.002 --     1 C    0.977
    20   1 H    1.007 --     1 C    0.985
    21   1 H    0.994 --     9 C    0.976
    22   1 H    1.006 --     9 C    0.978
    23   1 H    0.994 --     9 C    0.973
    24   1 H    0.992 --    10 C    0.973
    25   1 H    0.992 --    10 C    0.978
    26   1 H    0.993 --    10 C    0.972
    27   1 H    0.904 --    11 N    0.870
    28   1 H    0.905 --    11 N    0.871
    29   1 H    0.918 --    12 N    0.875
    30   1 H    0.997 --    16 C    0.977
    31   1 H    1.001 --    16 C    0.979
    32   1 H    0.998 --    16 C    0.986
    33   1 H    0.864 --    17 O    0.827
 ---------------------------------------------------------------------------

           -------------------------------------------------
          | TOTAL ENERGY              -57.838723484276 Eh   |
          | GRADIENT NORM               0.000784532677 Eh/α |
          | HOMO-LUMO GAP               2.760887739617 eV   |
           -------------------------------------------------

 * finished run on 2023/06/20 at 15:09:43.338
