   * xtb version 6.5.1 (579679a) compiled by 'ehlert@majestix' on 2022-07-11
          program call               : /lustre/hpc/kemi/ree/PhD/git/ReactivityQM/dep/xtb-6.5.1/bin/xtb --gfn 1 /lustre/hpc/kemi/ree/PhD/git/ReactivityQM/calculations/RaltegravirCLI/reac01/conf05/RaltegravirCLI_reac01_conf05_gfn1.xyz --opt --vfukui --chrg 0 --uhf 0 --alpb DMSO

   ID    Z sym.   atoms
    1    6 C      1, 2, 5, 6
    2    7 N      3, 4
    3    8 O      7, 9
    4   17 Cl     8
    5    1 H      10-12

      * Solvation model:               ALPB
        Solvent                        DMSO
        Solvent mass                       7.8130E+01 g/mol
          :  Hamiltonian                  GFN1-xTB          :
 * total energy  :   -30.0919858 Eh     change       -0.1314504E-11 Eh
 * total energy  :   -30.0948494 Eh     change       -0.2863632E-02 Eh
 * total energy  :   -30.0960911 Eh     change       -0.1241628E-02 Eh
 * total energy  :   -30.0962643 Eh     change       -0.1732699E-03 Eh
 * total energy  :   -30.0963180 Eh     change       -0.5361219E-04 Eh
 * total energy  :   -30.0963522 Eh     change       -0.3426875E-04 Eh
 * total energy  :   -30.0963612 Eh     change       -0.8951807E-05 Eh
 * total energy  :   -30.0963733 Eh     change       -0.1211150E-04 Eh
 * total energy  :   -30.0963817 Eh     change       -0.8436600E-05 Eh
 * total energy  :   -30.0964121 Eh     change       -0.3038195E-04 Eh
 * total energy  :   -30.0964973 Eh     change       -0.2848007E-04 Eh
 * total energy  :   -30.0965169 Eh     change       -0.1962368E-04 Eh
 * total energy  :   -30.0965257 Eh     change       -0.8786355E-05 Eh
 * total energy  :   -30.0965331 Eh     change       -0.7412927E-05 Eh
 * total energy  :   -30.0965437 Eh     change       -0.1056548E-04 Eh
 * total energy  :   -30.0965504 Eh     change       -0.6686101E-05 Eh
 * total energy  :   -30.0965560 Eh     change       -0.5592196E-05 Eh
 * total energy  :   -30.0965590 Eh     change       -0.2983832E-05 Eh
 * total energy  :   -30.0965603 Eh     change       -0.1286328E-05 Eh
   *** GEOMETRY OPTIMIZATION CONVERGED AFTER 22 ITERATIONS ***

 final structure:
================
12
 xtb: 6.5.1 (579679a)
C           -2.22256791787252        0.33917466563192        0.00794997698494
C           -0.86369982452659       -0.22874755541332       -0.10315240571994
N           -0.53240342055508       -1.44377199710557       -0.43753509540170
N            0.81653465723072       -1.50682073209147       -0.39973218583165
C            1.24066280250929       -0.32602436443150       -0.04442683550082
C            2.63511686747232        0.08554394429825        0.13243916927432
O            3.57020737849975       -0.64385221360768       -0.02880532649585
Cl           2.82332377702503        1.73690810849012        0.59905638056128
O            0.21117542715518        0.52284582063454        0.15568020213423
H           -2.30741731536671        1.22290808739872       -0.62345237624764
H           -2.41303984808548        0.64359976820902        1.03716328389914
H           -2.95789158348594       -0.40176453201302       -0.29518578765638

          :  Hamiltonian                  GFN1-xTB          :
         :: total energy             -30.096560262529 Eh    ::
         :: gradient norm              0.000318825630 Eh/a0 ::
         :: HOMO-LUMO gap              3.242809375342 eV    ::
         :: SCC energy               -30.331683978807 Eh    ::
         :: -> Gsolv                  -0.018865405072 Eh    ::
         :: repulsion energy           0.240228953349 Eh    ::

    * Orbital Energies and Occupations

         #    Occupation            Energy/Eh            Energy/eV
      -------------------------------------------------------------
         1        2.0000           -0.9450722             -25.7167
       ...           ...                  ...                  ...
        12        2.0000           -0.6195698             -16.8594
        13        2.0000           -0.5993772             -16.3099
        14        2.0000           -0.5906365             -16.0720
        15        2.0000           -0.5528449             -15.0437
        16        2.0000           -0.5521796             -15.0256
        17        2.0000           -0.5405707             -14.7097
        18        2.0000           -0.5193917             -14.1334
        19        2.0000           -0.4976042             -13.5405
        20        2.0000           -0.4943369             -13.4516
        21        2.0000           -0.4885133             -13.2931
        22        2.0000           -0.4832902             -13.1510
        23        2.0000           -0.4678260             -12.7302
        24        2.0000           -0.4637563             -12.6195 (HOMO)
        25                         -0.3445853              -9.3766 (LUMO)
        26                         -0.2689220              -7.3177
        27                         -0.2308443              -6.2816
        28                         -0.2088378              -5.6828
        29                         -0.1468240              -3.9953
        30                         -0.0786957              -2.1414
        31                         -0.0782188              -2.1284
        32                         -0.0716634              -1.9501
        33                         -0.0715402              -1.9467
        34                         -0.0682855              -1.8581
        35                         -0.0367030              -0.9987
       ...                                ...                  ...
        47                          0.7404832              20.1496
      -------------------------------------------------------------
                  HL-Gap            0.1191711 Eh            3.2428 eV

Wiberg/Mayer (AO) data.
largest (>0.10) Wiberg bond orders for each atom

     #   Z sym  total        # sym  WBO       # sym  WBO       # sym  WBO
 ---------------------------------------------------------------------------
     1   6 C    3.983 --     2 C    1.035    12 H    0.982    10 H    0.961
                            11 H    0.958
     2   6 C    3.865 --     3 N    1.570     9 O    1.094     1 C    1.035
     3   7 N    2.986 --     2 C    1.570     4 N    1.236
     4   7 N    3.010 --     5 C    1.577     3 N    1.236
     5   6 C    3.880 --     4 N    1.577     9 O    1.050     6 C    1.039
     6   6 C    3.890 --     7 O    1.760     5 C    1.039     8 Cl   1.021
     7   8 O    2.030 --     6 C    1.760     8 Cl   0.153
     8  17 Cl   1.231 --     6 C    1.021     7 O    0.153
     9   8 O    2.327 --     2 C    1.094     5 C    1.050
    10   1 H    0.994 --     1 C    0.961
    11   1 H    0.994 --     1 C    0.958
    12   1 H    0.997 --     1 C    0.982
 ---------------------------------------------------------------------------

           -------------------------------------------------
          | TOTAL ENERGY              -30.096560262529 Eh   |
          | GRADIENT NORM               0.000318825630 Eh/α |
          | HOMO-LUMO GAP               3.242809375342 eV   |
           -------------------------------------------------

 * finished run on 2023/06/20 at 14:51:35.020
