   * xtb version 6.5.1 (579679a) compiled by 'ehlert@majestix' on 2022-07-11
          program call               : /lustre/hpc/kemi/ree/PhD/git/ReactivityQM/dep/xtb-6.5.1/bin/xtb --gfn 1 /lustre/hpc/kemi/ree/PhD/git/ReactivityQM/calculations/R01/reac02prodN06/conf19/R01_reac02prodN06_conf19_gfn1.xyz --opt --vfukui --chrg 1 --uhf 0 --alpb DMSO

   ID    Z sym.   atoms
    1    6 C      1, 3, 5, 6, 8-11, 14, 16
    2    8 O      2, 4, 15, 17
    3    7 N      7, 12, 13
    4    1 H      18-33

      * Solvation model:               ALPB
        Solvent                        DMSO
        Solvent mass                       7.8130E+01 g/mol
          :  Hamiltonian                  GFN1-xTB          :
 * total energy  :   -57.7816356 Eh     change       -0.2742695E-11 Eh
 * total energy  :   -57.7977346 Eh     change       -0.1609896E-01 Eh
 * total energy  :   -57.8033226 Eh     change       -0.5587992E-02 Eh
 * total energy  :   -57.8050828 Eh     change       -0.1760245E-02 Eh
 * total energy  :   -57.8069580 Eh     change       -0.1875199E-02 Eh
 * total energy  :   -57.8080616 Eh     change       -0.1103574E-02 Eh
 * total energy  :   -57.8089682 Eh     change       -0.9065934E-03 Eh
 * total energy  :   -57.8097556 Eh     change       -0.7874157E-03 Eh
 * total energy  :   -57.8103345 Eh     change       -0.5788911E-03 Eh
 * total energy  :   -57.8107012 Eh     change       -0.3667326E-03 Eh
 * total energy  :   -57.8143401 Eh     change       -0.2996217E-04 Eh
 * total energy  :   -57.8143606 Eh     change       -0.2049503E-04 Eh
 * total energy  :   -57.8143773 Eh     change       -0.1671015E-04 Eh
 * total energy  :   -57.8143842 Eh     change       -0.6879591E-05 Eh
 * total energy  :   -57.8143958 Eh     change       -0.1168700E-04 Eh
 * total energy  :   -57.8144003 Eh     change       -0.4422428E-05 Eh
 * total energy  :   -57.8144113 Eh     change       -0.1099420E-04 Eh
 * total energy  :   -57.8144174 Eh     change       -0.6154052E-05 Eh
 * total energy  :   -57.8144208 Eh     change       -0.3398181E-05 Eh
   *** GEOMETRY OPTIMIZATION CONVERGED AFTER 51 ITERATIONS ***

 final structure:
================
33
 xtb: 6.5.1 (579679a)
C            4.07747602797941        1.72658344136532        0.04661601258906
O            3.20357213850468        0.59673087542248       -0.19355002652441
C            1.94406526734667        0.70160386578409        0.05410554919125
O            1.31940914076621        1.60565374550158        0.50471355459950
C            1.19527178754995       -0.70045564647320       -0.35221704494857
C            1.94317856031606       -1.35122907815879       -1.51546312836079
N           -0.11620775440292       -0.29883769516125       -0.72654430856982
C           -1.06294768362893       -0.23711378887115        0.12815098670670
C           -2.42492150932048        0.28192806665257       -0.27179891824350
C           -3.49336089383048       -0.79402204459683       -0.03740721221743
C           -2.72813267141275        1.55097270553673        0.54896225815607
N           -2.38511823597040        0.58779701863339       -1.68993997372837
N           -0.91005731768595       -0.62758967870527        1.45335947853781
C            0.20041313252383       -1.23390541193668        1.93928820413223
O            0.34133829314024       -1.66492150062642        3.06279355239811
C            1.29046206529498       -1.36816906621082        0.93214561272891
O            2.34243911079176       -2.00621796076005        1.28319172776513
H            4.29217466683731        2.19585101804672       -0.91322473496473
H            3.59406923301232        2.43184685557130        0.72209440964664
H            4.98663178746607        1.32035673838217        0.48562489020236
H            1.38334346914169       -2.22891200508030       -1.83343379962949
H            2.93991447195475       -1.64950459743930       -1.20066804742844
H            2.01087374403555       -0.65001675986778       -2.34359694642754
H           -3.52346854063360       -1.09136884876737        1.00879863837097
H           -4.46822543528820       -0.39780649845410       -0.31654705075217
H           -3.27628052743669       -1.66651992925668       -0.65239965774320
H           -2.80550941248024        1.31512918181483        1.60854922394463
H           -3.67245487705172        1.97534100265293        0.21358267295525
H           -1.93666807987273        2.28437072022972        0.40317762270435
H           -3.25635269851498        1.01660955620400       -1.97032117156891
H           -1.62563535698030        1.22770528934816       -1.88462135942152
H           -1.67966224109422       -0.52437320621049        2.10184020811661
H            2.30037233894344       -2.32751436457132        2.21268177778673

          :  Hamiltonian                  GFN1-xTB          :
         :: total energy             -57.814420816468 Eh    ::
         :: gradient norm              0.000388216998 Eh/a0 ::
         :: HOMO-LUMO gap              0.190991727648 eV    ::
         :: SCC energy               -58.394401751396 Eh    ::
         :: -> Gsolv                  -0.094471016480 Eh    ::
         :: repulsion energy           0.599603084853 Eh    ::

    * Orbital Energies and Occupations

         #    Occupation            Energy/Eh            Energy/eV
      -------------------------------------------------------------
         1        2.0000           -0.9123764             -24.8270
       ...           ...                  ...                  ...
        35        2.0000           -0.5515785             -15.0092
        36        2.0000           -0.5479163             -14.9096
        37        2.0000           -0.5387947             -14.6614
        38        2.0000           -0.5380382             -14.6408
        39        2.0000           -0.5296737             -14.4132
        40        2.0000           -0.5257544             -14.3065
        41        2.0000           -0.5236501             -14.2492
        42        2.0000           -0.5159508             -14.0397
        43        2.0000           -0.5081655             -13.8279
        44        2.0000           -0.5009653             -13.6320
        45        2.0000           -0.4902377             -13.3400
        46        2.0000           -0.4856603             -13.2155
        47        1.9515           -0.4287029             -11.6656 (HOMO)
        48        0.0485           -0.4216840             -11.4746 (LUMO)
        49                         -0.3288450              -8.9483
        50                         -0.3036457              -8.2626
        51                         -0.2624699              -7.1422
        52                         -0.1648233              -4.4851
        53                         -0.1562582              -4.2520
        54                         -0.1523499              -4.1457
        55                         -0.1504263              -4.0933
        56                         -0.1339001              -3.6436
        57                         -0.1272290              -3.4621
        58                         -0.1052487              -2.8640
       ...                                ...                  ...
       100                          0.7501299              20.4121
      -------------------------------------------------------------
                  HL-Gap            0.0070188 Eh            0.1910 eV

Wiberg/Mayer (AO) data.
largest (>0.10) Wiberg bond orders for each atom

     #   Z sym  total        # sym  WBO       # sym  WBO       # sym  WBO
 ---------------------------------------------------------------------------
     1   6 C    3.813 --    19 H    0.981    20 H    0.977    18 H    0.975
                             2 O    0.834
     2   8 O    2.269 --     3 C    1.226     1 C    0.834     4 O    0.150
     3   6 C    3.850 --     4 O    1.744     2 O    1.226     5 C    0.692
     4   8 O    2.067 --     3 C    1.744     2 O    0.150
     5   6 C    3.955 --    16 C    1.102     7 N    1.026     6 C    0.960
                             3 C    0.692
     6   6 C    3.968 --    23 H    0.982    22 H    0.981    21 H    0.975
                             5 C    0.960
     7   7 N    3.026 --     8 C    1.693     5 C    1.026
     8   6 C    3.900 --     7 N    1.693    13 N    1.084     9 C    0.982
     9   6 C    3.960 --    12 N    0.997     8 C    0.982    10 C    0.980
                            11 C    0.963
    10   6 C    3.989 --    26 H    0.984    24 H    0.983    25 H    0.981
                             9 C    0.980
    11   6 C    3.983 --    29 H    0.984    27 H    0.981    28 H    0.981
                             9 C    0.963
    12   7 N    2.933 --     9 C    0.997    30 H    0.935    31 H    0.934
    13   7 N    3.469 --    14 C    1.202     8 C    1.084    32 H    0.868
                            15 O    0.167
    14   6 C    3.918 --    15 O    1.628    13 N    1.202    16 C    0.980
    15   8 O    1.961 --    14 C    1.628    13 N    0.167
    16   6 C    3.774 --    17 O    1.343     5 C    1.102    14 C    0.980
    17   8 O    2.260 --    16 C    1.343    33 H    0.746
    18   1 H    0.999 --     1 C    0.975
    19   1 H    0.998 --     1 C    0.981
    20   1 H    1.001 --     1 C    0.977
    21   1 H    0.996 --     6 C    0.975
    22   1 H    1.001 --     6 C    0.981
    23   1 H    0.997 --     6 C    0.982
    24   1 H    0.998 --    10 C    0.983
    25   1 H    0.997 --    10 C    0.981
    26   1 H    1.003 --    10 C    0.984
    27   1 H    0.997 --    11 C    0.981
    28   1 H    0.999 --    11 C    0.981
    29   1 H    1.001 --    11 C    0.984
    30   1 H    0.949 --    12 N    0.935
    31   1 H    0.959 --    12 N    0.934
    32   1 H    0.915 --    13 N    0.868
    33   1 H    0.790 --    17 O    0.746
 ---------------------------------------------------------------------------

           -------------------------------------------------
          | TOTAL ENERGY              -57.814420816468 Eh   |
          | GRADIENT NORM               0.000388216998 Eh/α |
          | HOMO-LUMO GAP               0.190991727648 eV   |
           -------------------------------------------------

 * finished run on 2023/06/20 at 15:06:59.822
