   * xtb version 6.5.1 (579679a) compiled by 'ehlert@majestix' on 2022-07-11
          program call               : /lustre/hpc/kemi/ree/PhD/git/ReactivityQM/dep/xtb-6.5.1/bin/xtb --gfn 1 /lustre/hpc/kemi/ree/PhD/git/ReactivityQM/calculations/R03/reac02prodN10/conf03/R03_reac02prodN10_conf03_gfn1.xyz --opt --vfukui --chrg 1 --uhf 0 --alpb DMSO

   ID    Z sym.   atoms
    1    6 C      1, 3, 5, 6, 8, 11-16, 18, 20, 23, 24
    2    8 O      2, 4, 7, 9, 19, 25
    3    7 N      10, 17, 21, 22, 26
    4    1 H      27-46

      * Solvation model:               ALPB
        Solvent                        DMSO
        Solvent mass                       7.8130E+01 g/mol
          :  Hamiltonian                  GFN1-xTB          :
 * total energy  :   -86.2701180 Eh     change       -0.1335820E-10 Eh
 * total energy  :   -86.2884707 Eh     change       -0.1835272E-01 Eh
 * total energy  :   -86.2963894 Eh     change       -0.7918634E-02 Eh
 * total energy  :   -86.2977692 Eh     change       -0.1379824E-02 Eh
 * total energy  :   -86.2987077 Eh     change       -0.9384887E-03 Eh
 * total energy  :   -86.2991588 Eh     change       -0.4511321E-03 Eh
 * total energy  :   -86.2995482 Eh     change       -0.3893979E-03 Eh
 * total energy  :   -86.2998766 Eh     change       -0.3284116E-03 Eh
 * total energy  :   -86.3002007 Eh     change       -0.3240995E-03 Eh
 * total energy  :   -86.3005186 Eh     change       -0.3178695E-03 Eh
 * total energy  :   -86.3091098 Eh     change       -0.1351654E-04 Eh
 * total energy  :   -86.3091247 Eh     change       -0.1483578E-04 Eh
 * total energy  :   -86.3091397 Eh     change       -0.1505405E-04 Eh
 * total energy  :   -86.3091522 Eh     change       -0.1251492E-04 Eh
 * total energy  :   -86.3091613 Eh     change       -0.9057426E-05 Eh
 * total energy  :   -86.3091681 Eh     change       -0.6810763E-05 Eh
 * total energy  :   -86.3091741 Eh     change       -0.5957774E-05 Eh
 * total energy  :   -86.3091797 Eh     change       -0.5603953E-05 Eh
 * total energy  :   -86.3091818 Eh     change       -0.2090512E-05 Eh
   *** GEOMETRY OPTIMIZATION CONVERGED AFTER 94 ITERATIONS ***

 final structure:
================
46
 xtb: 6.5.1 (579679a)
C           -5.46613961560926        1.93479861496587        2.04972672681822
O           -4.29303072966093        1.22252042307996        1.61369265163040
C           -4.28209709852240        0.77911042035516        0.38628269738600
O           -5.18172635673880        0.92027688931352       -0.41897101585249
C           -3.01967390967760        0.05290336902984        0.01225913713854
C           -2.89684264659804       -0.47381678663533       -1.29859968119615
O           -3.80787287880299       -0.34193890665264       -2.19412637224094
C           -1.70775499060294       -1.29560763144136       -1.64421557382380
O           -1.59948913492191       -1.91122993766647       -2.68279631675444
N           -0.77146324651049       -1.35399273184713       -0.64217229486934
C            0.32439732431114       -2.28850479122556       -0.89639119426208
C           -0.84439344245361       -0.63957068172568        0.59263202074502
C           -0.36946497984287       -1.48765139217036        1.77605366990774
C            0.12071584816484        0.74800091904363        0.49000154402212
C           -0.40485023214606        1.61366506905624       -0.64294274149606
C            0.03266908301738        1.48061291334759        1.82412106864286
N            1.45962997665698        0.32143461386940        0.30267170297570
C            2.12648471894693        0.20757724247734       -0.89899733118741
O            1.61455813468509        0.31923332856434       -1.98916017981604
C            3.55044625850220       -0.07489162668084       -0.65533482259822
N            4.11420746090125       -0.19408246543207        0.51281521979810
N            5.42711221973806       -0.43761995998217        0.29047321430729
C            5.59128522463173       -0.45297892868130       -1.00289534604889
C            6.84544377226741       -0.68250451169119       -1.75000357230039
O            4.44048833048309       -0.22977969067756       -1.64974134294527
N           -2.06866004220013       -0.07457575787095        0.89557922054706
H           -5.29888718425997        2.18163185369314        3.09541596375989
H           -6.34434183630697        1.29735113963114        1.93506328240531
H           -5.58503145267408        2.83904672662666        1.45094610699234
H           -4.59599781905735        0.17361580685885       -1.84330783508620
H           -0.03094269526739       -3.30333563771585       -0.71146185287324
H            0.61902661769185       -2.19195344969311       -1.94179992451257
H            1.16215672094363       -2.06894109111587       -0.24530554048672
H            0.71160553061664       -1.59013632203176        1.79440441808383
H           -0.82352632853057       -2.47387792899389        1.69543281423290
H           -0.70454798169069       -1.02383331441944        2.70042557331455
H           -0.64385057144150        1.03672163265136       -1.53407410370842
H           -1.29816341436808        2.13969145041909       -0.31263923630326
H            0.35699467651128        2.34591575102116       -0.90672072476499
H           -1.00442353755354        1.69243361130385        2.07461635968689
H            0.48592420875035        0.90648409385679        2.62890609655230
H            0.57561647279154        2.42063292664597        1.72666528129129
H            2.02021964102952        0.17798412435461        1.13300105462641
H            7.04460635970965        0.16270110926060       -2.40907601238692
H            6.74952903994578       -1.57571399296580       -2.36789027730999
H            7.67005450513466       -0.80780749211056       -1.05221853204068

          :  Hamiltonian                  GFN1-xTB          :
         :: total energy             -86.309181764941 Eh    ::
         :: gradient norm              0.000183903306 Eh/a0 ::
         :: HOMO-LUMO gap              1.167415837855 eV    ::
         :: SCC energy               -87.130249525887 Eh    ::
         :: -> Gsolv                  -0.106085406317 Eh    ::
         :: repulsion energy           0.853197294923 Eh    ::

    * Orbital Energies and Occupations

         #    Occupation            Energy/Eh            Energy/eV
      -------------------------------------------------------------
         1        2.0000           -0.8880467             -24.1650
       ...           ...                  ...                  ...
        58        2.0000           -0.5314948             -14.4627
        59        2.0000           -0.5304230             -14.4335
        60        2.0000           -0.5293336             -14.4039
        61        2.0000           -0.5238156             -14.2537
        62        2.0000           -0.5225479             -14.2193
        63        2.0000           -0.5097406             -13.8707
        64        2.0000           -0.5026150             -13.6768
        65        2.0000           -0.4972785             -13.5316
        66        2.0000           -0.4909973             -13.3607
        67        2.0000           -0.4871276             -13.2554
        68        2.0000           -0.4760401             -12.9537
        69        2.0000           -0.4702441             -12.7960
        70        2.0000           -0.4687199             -12.7545 (HOMO)
        71                         -0.4258182             -11.5871 (LUMO)
        72                         -0.3598925              -9.7932
        73                         -0.3381620              -9.2019
        74                         -0.2793022              -7.6002
        75                         -0.2718032              -7.3961
        76                         -0.2284050              -6.2152
        77                         -0.2218997              -6.0382
        78                         -0.1670489              -4.5456
        79                         -0.1551462              -4.2217
        80                         -0.1518905              -4.1332
        81                         -0.1484448              -4.0394
       ...                                ...                  ...
       144                          0.7114996              19.3609
      -------------------------------------------------------------
                  HL-Gap            0.0429017 Eh            1.1674 eV

Wiberg/Mayer (AO) data.
largest (>0.10) Wiberg bond orders for each atom

     #   Z sym  total        # sym  WBO       # sym  WBO       # sym  WBO
 ---------------------------------------------------------------------------
     1   6 C    3.839 --    27 H    0.984    28 H    0.977    29 H    0.977
                             2 O    0.867
     2   8 O    2.254 --     3 C    1.193     1 C    0.867     4 O    0.144
     3   6 C    3.857 --     4 O    1.618     2 O    1.193     5 C    0.969
     4   8 O    1.980 --     3 C    1.618     2 O    0.144
     5   6 C    3.964 --    26 N    1.523     6 C    1.219     3 C    0.969
     6   6 C    3.854 --     7 O    1.324     5 C    1.219     8 C    0.999
     7   8 O    2.229 --     6 C    1.324    30 H    0.710
     8   6 C    3.922 --     9 O    1.621    10 N    1.178     6 C    0.999
     9   8 O    1.942 --     8 C    1.621    10 N    0.182
    10   7 N    3.490 --     8 C    1.178    12 C    0.997    11 C    0.928
                             9 O    0.182
    11   6 C    3.909 --    33 H    0.978    32 H    0.969    31 H    0.961
                            10 N    0.928
    12   6 C    3.912 --    26 N    1.131    10 N    0.997    13 C    0.954
                            14 C    0.678
    13   6 C    3.967 --    34 H    0.979    36 H    0.978    35 H    0.974
                            12 C    0.954
    14   6 C    3.899 --    17 N    1.030    15 C    1.008    16 C    0.999
                            12 C    0.678
    15   6 C    3.984 --    14 C    1.008    38 H    0.983    37 H    0.970
                            39 H    0.964
    16   6 C    3.979 --    14 C    0.999    40 H    0.978    41 H    0.977
                            42 H    0.968
    17   7 N    3.375 --    18 C    1.138    14 C    1.030    43 H    0.882
                            19 O    0.133
    18   6 C    3.903 --    19 O    1.645    17 N    1.138    20 C    1.014
    19   8 O    1.955 --    18 C    1.645    17 N    0.133
    20   6 C    3.880 --    21 N    1.580    25 O    1.067    18 C    1.014
    21   7 N    3.026 --    20 C    1.580    22 N    1.227
    22   7 N    2.981 --    23 C    1.574    21 N    1.227
    23   6 C    3.858 --    22 N    1.574    25 O    1.091    24 C    1.035
    24   6 C    3.982 --    23 C    1.035    46 H    0.981    44 H    0.960
                            45 H    0.958
    25   8 O    2.341 --    23 C    1.091    20 C    1.067
    26   7 N    3.040 --     5 C    1.523    12 C    1.131
    27   1 H    1.006 --     1 C    0.984
    28   1 H    1.001 --     1 C    0.977
    29   1 H    1.000 --     1 C    0.977
    30   1 H    0.814 --     7 O    0.710
    31   1 H    0.994 --    11 C    0.961
    32   1 H    1.005 --    11 C    0.969
    33   1 H    1.002 --    11 C    0.978
    34   1 H    0.997 --    13 C    0.979
    35   1 H    0.992 --    13 C    0.974
    36   1 H    0.999 --    13 C    0.978
    37   1 H    1.011 --    15 C    0.970
    38   1 H    1.000 --    15 C    0.983
    39   1 H    0.996 --    15 C    0.964
    40   1 H    1.006 --    16 C    0.978
    41   1 H    0.994 --    16 C    0.977
    42   1 H    0.990 --    16 C    0.968
    43   1 H    0.946 --    17 N    0.882
    44   1 H    0.994 --    24 C    0.960
    45   1 H    0.994 --    24 C    0.958
    46   1 H    0.997 --    24 C    0.981
 ---------------------------------------------------------------------------

           -------------------------------------------------
          | TOTAL ENERGY              -86.309181764941 Eh   |
          | GRADIENT NORM               0.000183903306 Eh/α |
          | HOMO-LUMO GAP               1.167415837855 eV   |
           -------------------------------------------------

 * finished run on 2023/06/20 at 15:45:22.201
