   * xtb version 6.5.1 (579679a) compiled by 'ehlert@majestix' on 2022-07-11
          program call               : /lustre/hpc/kemi/ree/PhD/git/ReactivityQM/dep/xtb-6.5.1/bin/xtb --gfn 1 /lustre/hpc/kemi/ree/PhD/git/ReactivityQM/calculations/R01/reac02prodN04/conf05/R01_reac02prodN04_conf05_gfn1.xyz --opt --vfukui --chrg 1 --uhf 0 --alpb DMSO

   ID    Z sym.   atoms
    1    6 C      1, 3, 5, 6, 8, 11-14, 17
    2    8 O      2, 4, 7, 9
    3    7 N      10, 15, 16
    4    1 H      18-33

      * Solvation model:               ALPB
        Solvent                        DMSO
        Solvent mass                       7.8130E+01 g/mol
          :  Hamiltonian                  GFN1-xTB          :
 * total energy  :   -57.8322467 Eh     change       -0.2029310E-10 Eh
 * total energy  :   -57.8481247 Eh     change       -0.1587807E-01 Eh
 * total energy  :   -57.8533272 Eh     change       -0.5202451E-02 Eh
 * total energy  :   -57.8542541 Eh     change       -0.9269215E-03 Eh
 * total energy  :   -57.8546159 Eh     change       -0.3618068E-03 Eh
 * total energy  :   -57.8548258 Eh     change       -0.2098634E-03 Eh
 * total energy  :   -57.8551426 Eh     change       -0.3168412E-03 Eh
 * total energy  :   -57.8554792 Eh     change       -0.3365418E-03 Eh
 * total energy  :   -57.8559349 Eh     change       -0.4557314E-03 Eh
 * total energy  :   -57.8562357 Eh     change       -0.3008196E-03 Eh
 * total energy  :   -57.8579331 Eh     change       -0.6403965E-05 Eh
 * total energy  :   -57.8579379 Eh     change       -0.4774286E-05 Eh
 * total energy  :   -57.8579460 Eh     change       -0.8129962E-05 Eh
 * total energy  :   -57.8579556 Eh     change       -0.9565132E-05 Eh
 * total energy  :   -57.8579616 Eh     change       -0.6021219E-05 Eh
 * total energy  :   -57.8579676 Eh     change       -0.6019739E-05 Eh
 * total energy  :   -57.8579686 Eh     change       -0.9426529E-06 Eh
 * total energy  :   -57.8579716 Eh     change       -0.3012259E-05 Eh
 * total energy  :   -57.8579738 Eh     change       -0.2211592E-05 Eh
   *** GEOMETRY OPTIMIZATION CONVERGED AFTER 42 ITERATIONS ***

 final structure:
================
33
 xtb: 6.5.1 (579679a)
C            4.30448487149411        1.24113347489020        0.91127458122667
O            3.02032396879559        0.83774326957312        0.39849961847606
C            2.80546117032465       -0.45863757042877        0.26083865327625
O            3.58928805429240       -1.32596307615425        0.53019481735901
C            1.43785566437038       -0.73404048633820       -0.34033889374296
C            1.32662289147247       -1.51455136683142       -1.44909021285791
O            2.37669897573527       -2.08175366145020       -2.03132368919175
C            0.02285708641602       -1.72433107104105       -2.07280056379953
O           -0.17418131629332       -2.41755726942840       -3.04257005755541
N           -0.99705172795165       -1.01553189148092       -1.44803696937846
C           -0.88730126546727       -0.25062586795280       -0.35038501378413
C           -2.15860042601163        0.41902563949332        0.15281688216713
C           -2.80096137749537       -0.50000010397270        1.20518021902025
C           -3.15427138914976        0.65419996790522       -0.99649344641135
N           -1.81526964106192        1.69814700285872        0.75318342383976
N            0.30158150314969       -0.15671261968334        0.22727677882477
C            0.49292911654309        0.52078985978298        1.51899946157009
H            5.06820909126340        1.08059503611659        0.14725684204331
H            4.21684594206537        2.29903538095157        1.14928286067196
H            4.54409049071647        0.66149219210451        1.80505670000602
H            2.10245885754058       -2.58693796304113       -2.81721059003288
H           -1.90127892486997       -1.11519082388346       -1.89050447917939
H           -2.99606339084158       -1.48008115360225        0.77325733934430
H           -3.74346875620282       -0.05991694844223        1.52592942600825
H           -2.15511976483982       -0.61686497241088        2.07320025754173
H           -3.61144478765744       -0.27605346030106       -1.33030859076447
H           -2.66511040032699        1.14555171744868       -1.83535685850337
H           -3.94576530462177        1.30434408271550       -0.62791046875180
H           -2.60743675809235        2.03486039122594        1.28329243228274
H           -1.62033420258121        2.37094305214044        0.02376913459220
H           -0.42031425434541        0.46555300474127        2.09801538995460
H            0.74960308482714        1.56226006143697        1.33949524690829
H            1.29466291880510        0.01907517305765        2.05551076883915

          :  Hamiltonian                  GFN1-xTB          :
         :: total energy             -57.857973811891 Eh    ::
         :: gradient norm              0.000914957140 Eh/a0 ::
         :: HOMO-LUMO gap              2.325636570412 eV    ::
         :: SCC energy               -58.442021317852 Eh    ::
         :: -> Gsolv                  -0.103231998850 Eh    ::
         :: repulsion energy           0.603688281537 Eh    ::

    * Orbital Energies and Occupations

         #    Occupation            Energy/Eh            Energy/eV
      -------------------------------------------------------------
         1        2.0000           -0.8905920             -24.2342
       ...           ...                  ...                  ...
        35        2.0000           -0.5618708             -15.2893
        36        2.0000           -0.5440631             -14.8047
        37        2.0000           -0.5401847             -14.6992
        38        2.0000           -0.5364856             -14.5985
        39        2.0000           -0.5322504             -14.4833
        40        2.0000           -0.5297716             -14.4158
        41        2.0000           -0.5279668             -14.3667
        42        2.0000           -0.5231862             -14.2366
        43        2.0000           -0.5199421             -14.1483
        44        2.0000           -0.5161054             -14.0439
        45        2.0000           -0.4982653             -13.5585
        46        2.0000           -0.4777911             -13.0014
        47        2.0000           -0.4422281             -12.0336 (HOMO)
        48                         -0.3567625              -9.7080 (LUMO)
        49                         -0.3524864              -9.5916
        50                         -0.2908391              -7.9141
        51                         -0.2214182              -6.0251
        52                         -0.1622359              -4.4147
        53                         -0.1559961              -4.2449
        54                         -0.1530228              -4.1640
        55                         -0.1462658              -3.9801
        56                         -0.1326077              -3.6084
        57                         -0.1239097              -3.3718
        58                         -0.1103025              -3.0015
       ...                                ...                  ...
       100                          0.7169795              19.5100
      -------------------------------------------------------------
                  HL-Gap            0.0854656 Eh            2.3256 eV

Wiberg/Mayer (AO) data.
largest (>0.10) Wiberg bond orders for each atom

     #   Z sym  total        # sym  WBO       # sym  WBO       # sym  WBO
 ---------------------------------------------------------------------------
     1   6 C    3.845 --    19 H    0.984    20 H    0.980    18 H    0.978
                             2 O    0.870
     2   8 O    2.220 --     3 C    1.143     1 C    0.870     4 O    0.148
     3   6 C    3.862 --     4 O    1.707     2 O    1.143     5 C    0.943
     4   8 O    1.966 --     3 C    1.707     2 O    0.148
     5   6 C    3.925 --     6 C    1.547    16 N    1.087     3 C    0.943
     6   6 C    3.929 --     5 C    1.547     7 O    1.132     8 C    1.043
     7   8 O    2.102 --     6 C    1.132    21 H    0.794
     8   6 C    3.903 --     9 O    1.653    10 N    1.077     6 C    1.043
     9   8 O    1.961 --     8 C    1.653    10 N    0.118
    10   7 N    3.490 --    11 C    1.275     8 C    1.077    22 H    0.863
                             9 O    0.118
    11   6 C    3.883 --    16 N    1.395    10 N    1.275    12 C    0.973
    12   6 C    3.954 --    15 N    0.994    14 C    0.984    11 C    0.973
                            13 C    0.966
    13   6 C    3.985 --    23 H    0.984    25 H    0.978    24 H    0.977
                            12 C    0.966
    14   6 C    3.988 --    12 C    0.984    27 H    0.983    28 H    0.977
                            26 H    0.976
    15   7 N    2.975 --    12 C    0.994    30 H    0.933    29 H    0.928
    16   7 N    3.584 --    11 C    1.395     5 C    1.087    17 C    0.904
    17   6 C    3.890 --    33 H    0.977    31 H    0.972    32 H    0.968
                            16 N    0.904
    18   1 H    1.002 --     1 C    0.978
    19   1 H    1.006 --     1 C    0.984
    20   1 H    1.003 --     1 C    0.980
    21   1 H    0.823 --     7 O    0.794
    22   1 H    0.916 --    10 N    0.863
    23   1 H    0.998 --    13 C    0.984
    24   1 H    0.994 --    13 C    0.977
    25   1 H    0.999 --    13 C    0.978
    26   1 H    0.996 --    14 C    0.976
    27   1 H    0.996 --    14 C    0.983
    28   1 H    0.997 --    14 C    0.977
    29   1 H    0.941 --    15 N    0.928
    30   1 H    0.946 --    15 N    0.933
    31   1 H    1.019 --    17 C    0.972
    32   1 H    1.011 --    17 C    0.968
    33   1 H    0.996 --    17 C    0.977
 ---------------------------------------------------------------------------

           -------------------------------------------------
          | TOTAL ENERGY              -57.857973811891 Eh   |
          | GRADIENT NORM               0.000914957140 Eh/α |
          | HOMO-LUMO GAP               2.325636570412 eV   |
           -------------------------------------------------

 * finished run on 2023/06/20 at 15:05:21.845
