   * xtb version 6.5.1 (579679a) compiled by 'ehlert@majestix' on 2022-07-11
          program call               : /lustre/hpc/kemi/ree/PhD/git/ReactivityQM/dep/xtb-6.5.1/bin/xtb --gfn 1 /lustre/hpc/kemi/ree/PhD/git/ReactivityQM/calculations/RaltegravirCLI/reac01prodE03/conf09/RaltegravirCLI_reac01prodE03_conf09_gfn1.xyz --opt --vfukui --chrg -1 --uhf 0 --alpb DMSO

   ID    Z sym.   atoms
    1    6 C      1, 2, 4, 5, 10
    2    8 O      3, 6
    3   17 Cl     7
    4    7 N      8, 9
    5    1 H      11-16

      * Solvation model:               ALPB
        Solvent                        DMSO
        Solvent mass                       7.8130E+01 g/mol
          :  Hamiltonian                  GFN1-xTB          :
 * total energy  :   -34.0916068 Eh     change       -0.9460166E-10 Eh
 * total energy  :   -34.1025769 Eh     change       -0.1097005E-01 Eh
 * total energy  :   -34.1083442 Eh     change       -0.5767323E-02 Eh
 * total energy  :   -34.1093804 Eh     change       -0.1036185E-02 Eh
 * total energy  :   -34.1106857 Eh     change       -0.1305339E-02 Eh
 * total energy  :   -34.1110268 Eh     change       -0.3410647E-03 Eh
 * total energy  :   -34.1112298 Eh     change       -0.2029913E-03 Eh
 * total energy  :   -34.1112702 Eh     change       -0.4040486E-04 Eh
 * total energy  :   -34.1112787 Eh     change       -0.8506648E-05 Eh
 * total energy  :   -34.1112824 Eh     change       -0.3750025E-05 Eh
   *** GEOMETRY OPTIMIZATION CONVERGED AFTER 10 ITERATIONS ***

 final structure:
================
16
 xtb: 6.5.1 (579679a)
C           -1.74269551612800       -1.32902822968231       -0.34963052777145
C           -0.44917071065444       -0.63611512606698       -0.13044041603976
O            0.73406302884906       -1.30823699284404       -0.16016206971375
C            1.71882407818276       -0.26937813017172        0.07830370553120
C            3.01074153455452       -0.59331651498551        0.13919979651521
O            3.75279990833634       -1.57167739013855        0.03089252232506
Cl           4.01461416262631        1.13737005002922        0.50181571355580
N            1.05005328556542        0.96851137390860        0.22997647906810
N           -0.23208293830559        0.63664652329973        0.08251003424422
C           -1.22737072080952        1.67730291406664        0.17964151226527
H           -1.65831875996000       -2.36519714677496       -0.02491219634849
H           -2.53522050351946       -0.84007471758043        0.21407814403447
H           -2.02317907812870       -1.32358163289260       -1.40588686342064
H           -0.70946277036625        2.63106989602867        0.25256181143638
H           -1.84101877022511        1.52136586390025        1.06628959561520
H           -1.86257623001757        1.66434025990392       -0.70423724129671

          :  Hamiltonian                  GFN1-xTB          :
         :: total energy             -34.111282425184 Eh    ::
         :: gradient norm              0.000780492167 Eh/a0 ::
         :: HOMO-LUMO gap              1.338596923280 eV    ::
         :: SCC energy               -34.385525083078 Eh    ::
         :: -> Gsolv                  -0.116193784357 Eh    ::
         :: repulsion energy           0.281515936440 Eh    ::

    * Orbital Energies and Occupations

         #    Occupation            Energy/Eh            Energy/eV
      -------------------------------------------------------------
         1        2.0000           -0.8279663             -22.5301
       ...           ...                  ...                  ...
        16        2.0000           -0.5280219             -14.3682
        17        2.0000           -0.5227433             -14.2246
        18        2.0000           -0.5154055             -14.0249
        19        2.0000           -0.5099673             -13.8769
        20        2.0000           -0.5032363             -13.6938
        21        2.0000           -0.4874702             -13.2647
        22        2.0000           -0.4695963             -12.7784
        23        2.0000           -0.4394364             -11.9577
        24        2.0000           -0.4386055             -11.9351
        25        2.0000           -0.4194469             -11.4137
        26        2.0000           -0.4111924             -11.1891
        27        2.0000           -0.3959824             -10.7752
        28        2.0000           -0.2869490              -7.8083 (HOMO)
        29                         -0.2377565              -6.4697 (LUMO)
        30                         -0.1948504              -5.3021
        31                         -0.1452442              -3.9523
        32                         -0.1303938              -3.5482
        33                         -0.1264597              -3.4411
        34                         -0.0840048              -2.2859
        35                         -0.0756306              -2.0580
        36                         -0.0613664              -1.6699
        37                         -0.0528158              -1.4372
        38                          0.0290131               0.7895
        39                          0.0360012               0.9796
       ...                                ...                  ...
        57                          0.8563932              23.3036
      -------------------------------------------------------------
                  HL-Gap            0.0491925 Eh            1.3386 eV

Wiberg/Mayer (AO) data.
largest (>0.10) Wiberg bond orders for each atom

     #   Z sym  total        # sym  WBO       # sym  WBO       # sym  WBO
 ---------------------------------------------------------------------------
     1   6 C    3.991 --     2 C    1.025    12 H    0.980    11 H    0.978
                            13 H    0.965
     2   6 C    3.875 --     9 N    1.415     3 O    1.042     1 C    1.025
                             8 N    0.295
     3   8 O    2.131 --     2 C    1.042     4 C    0.854
     4   6 C    3.770 --     5 C    1.610     8 N    1.073     3 O    0.854
                             6 O    0.171
     5   6 C    3.842 --     4 C    1.610     6 O    1.553     7 Cl   0.503
     6   8 O    1.899 --     5 C    1.553     4 C    0.171     7 Cl   0.116
     7  17 Cl   0.657 --     5 C    0.503     6 O    0.116
     8   7 N    2.741 --     9 N    1.160     4 C    1.073     2 C    0.295
     9   7 N    3.644 --     2 C    1.415     8 N    1.160    10 C    0.947
    10   6 C    3.948 --    14 H    0.984    16 H    0.982    15 H    0.979
                             9 N    0.947
    11   1 H    1.001 --     1 C    0.978
    12   1 H    1.001 --     1 C    0.980
    13   1 H    1.002 --     1 C    0.965
    14   1 H    1.011 --    10 C    0.984
    15   1 H    1.002 --    10 C    0.979
    16   1 H    1.002 --    10 C    0.982
 ---------------------------------------------------------------------------

           -------------------------------------------------
          | TOTAL ENERGY              -34.111282425184 Eh   |
          | GRADIENT NORM               0.000780492167 Eh/α |
          | HOMO-LUMO GAP               1.338596923280 eV   |
           -------------------------------------------------

 * finished run on 2023/06/20 at 14:52:59.948
