                         Program Version 5.0.1 -  RELEASE  -
|  1> # ORCA input file
|  2> ! SP r2SCAN-3c CPCM
|  3>
|  4> %maxcore 1875.0
|  5> %pal nprocs 4 end
|  6> %cpcm smd true SMDsolvent "DMSO" end
|  7>
|  8> *xyz -2 1
|  9> C      -5.659512    1.748320    1.871885
| 10> O      -4.532607    0.951482    1.583804
| 11> C      -3.527526    1.591260    0.854381
| 12> O      -3.691864    2.792273    0.552302
| 13> C      -2.401980    0.795842    0.538171
| 14> C      -2.223558   -0.633827    0.869215
| 15> O      -3.111167   -1.332209    1.457404
| 16> C      -1.011128   -1.175310    0.430369
| 17> O      -0.600561   -2.494887    0.646139
| 18> C      -1.458188   -3.498190    0.127283
| 19> N      -0.012701   -0.403482   -0.193342
| 20> C      -0.327859    0.906763   -0.525504
| 21> C       0.765274    1.662806   -1.259407
| 22> C       0.632642    3.168425   -1.007981
| 23> C       0.683756    1.365719   -2.761203
| 24> N       2.074709    1.187153   -0.779214
| 25> C       2.135330    0.853649    0.595041
| 26> O       1.622310    1.584455    1.471478
| 27> C       2.931275   -0.297330    0.890044
| 28> N       3.220678   -0.804100    2.088201
| 29> N       4.000478   -1.908264    1.864634
| 30> C       4.148856   -2.026189    0.587839
| 31> C       4.929799   -3.062042   -0.132210
| 32> O       3.506498   -1.057993   -0.110997
| 33> N      -1.406668    1.484631   -0.152265
| 34> H      -6.143156    2.107162    0.954179
| 35> H      -5.392042    2.621836    2.481118
| 36> H      -6.365654    1.128840    2.427550
| 37> H      -1.626215   -3.363653   -0.948884
| 38> H      -0.964033   -4.458396    0.290236
| 39> H      -2.429494   -3.501842    0.640305
| 40> H       0.614917   -0.903539   -0.801924
| 41> H       1.397839    3.707673   -1.564215
| 42> H       0.749730    3.381801    0.055103
| 43> H      -0.352041    3.508532   -1.329694
| 44> H      -0.264331    1.724787   -3.160299
| 45> H       1.497162    1.859068   -3.291320
| 46> H       0.752379    0.293353   -2.939208
| 47> H       2.456435    0.461408   -1.369777
| 48> H       4.278054   -3.665763   -0.763944
| 49> H       5.676100   -2.593276   -0.773222
| 50> H       5.428061   -3.706949    0.587931
| 51> **                         ****END OF INPUT****

CARTESIAN COORDINATES (ANGSTROEM)
---------------------------------
  C     -5.659512    1.748320    1.871885
  O     -4.532607    0.951482    1.583804
  C     -3.527526    1.591260    0.854381
  O     -3.691864    2.792273    0.552302
  C     -2.401980    0.795842    0.538171
  C     -2.223558   -0.633827    0.869215
  O     -3.111167   -1.332209    1.457404
  C     -1.011128   -1.175310    0.430369
  O     -0.600561   -2.494887    0.646139
  C     -1.458188   -3.498190    0.127283
  N     -0.012701   -0.403482   -0.193342
  C     -0.327859    0.906763   -0.525504
  C      0.765274    1.662806   -1.259407
  C      0.632642    3.168425   -1.007981
  C      0.683756    1.365719   -2.761203
  N      2.074709    1.187153   -0.779214
  C      2.135330    0.853649    0.595041
  O      1.622310    1.584455    1.471478
  C      2.931275   -0.297330    0.890044
  N      3.220678   -0.804100    2.088201
  N      4.000478   -1.908264    1.864634
  C      4.148856   -2.026189    0.587839
  C      4.929799   -3.062042   -0.132210
  O      3.506498   -1.057993   -0.110997
  N     -1.406668    1.484631   -0.152265
  H     -6.143156    2.107162    0.954179
  H     -5.392042    2.621836    2.481118
  H     -6.365654    1.128840    2.427550
  H     -1.626215   -3.363653   -0.948884
  H     -0.964033   -4.458396    0.290236
  H     -2.429494   -3.501842    0.640305
  H      0.614917   -0.903539   -0.801924
  H      1.397839    3.707673   -1.564215
  H      0.749730    3.381801    0.055103
  H     -0.352041    3.508532   -1.329694
  H     -0.264331    1.724787   -3.160299
  H      1.497162    1.859068   -3.291320
  H      0.752379    0.293353   -2.939208
  H      2.456435    0.461408   -1.369777
  H      4.278054   -3.665763   -0.763944
  H      5.676100   -2.593276   -0.773222
  H      5.428061   -3.706949    0.587931

 Total Charge           Charge          ....   -2
 Multiplicity           Mult            ....    1
 Number of Electrons    NEL             ....  186
 Basis Dimension        Dim             ....  615

ORBITAL ENERGIES
----------------

  NO   OCC          E(Eh)            E(eV)
   0   2.0000     -19.018183      -517.5111
   1   2.0000     -18.950609      -515.6723
   2   2.0000     -18.938299      -515.3373
   3   2.0000     -18.879380      -513.7340
   4   2.0000     -18.868147      -513.4284
   5   2.0000     -18.836477      -512.5666
   6   2.0000     -14.173388      -385.6775
   7   2.0000     -14.167037      -385.5047
   8   2.0000     -14.153601      -385.1391
   9   2.0000     -14.147457      -384.9719
  10   2.0000     -14.119401      -384.2084
  11   2.0000     -10.108049      -275.0540
  12   2.0000     -10.092257      -274.6243
  13   2.0000     -10.090672      -274.5811
  14   2.0000     -10.088448      -274.5206
  15   2.0000     -10.064383      -273.8658
  16   2.0000     -10.062440      -273.8129
  17   2.0000     -10.059659      -273.7373
  18   2.0000     -10.049862      -273.4707
  19   2.0000     -10.047909      -273.4175
  20   2.0000     -10.039214      -273.1809
  21   2.0000     -10.030821      -272.9525
  22   2.0000     -10.010798      -272.4077
  23   2.0000     -10.005343      -272.2592
  24   2.0000      -9.996984      -272.0318
  25   2.0000      -1.097997       -29.8780
  26   2.0000      -1.000318       -27.2200
  27   2.0000      -0.992476       -27.0066
  28   2.0000      -0.955726       -26.0066
  29   2.0000      -0.929503       -25.2931
  30   2.0000      -0.917290       -24.9607
  31   2.0000      -0.905334       -24.6354
  32   2.0000      -0.891186       -24.2504
  33   2.0000      -0.856101       -23.2957
  34   2.0000      -0.823896       -22.4194
  35   2.0000      -0.788405       -21.4536
  36   2.0000      -0.734042       -19.9743
  37   2.0000      -0.687979       -18.7209
  38   2.0000      -0.684672       -18.6309
  39   2.0000      -0.661710       -18.0060
  40   2.0000      -0.642967       -17.4960
  41   2.0000      -0.629414       -17.1272
  42   2.0000      -0.626195       -17.0396
  43   2.0000      -0.596870       -16.2417
  44   2.0000      -0.572065       -15.5667
  45   2.0000      -0.559784       -15.2325
  46   2.0000      -0.534325       -14.5397
  47   2.0000      -0.512821       -13.9546
  48   2.0000      -0.495547       -13.4845
  49   2.0000      -0.483632       -13.1603
  50   2.0000      -0.469662       -12.7801
  51   2.0000      -0.462172       -12.5763
  52   2.0000      -0.450572       -12.2607
  53   2.0000      -0.443480       -12.0677
  54   2.0000      -0.425335       -11.5739
  55   2.0000      -0.418520       -11.3885
  56   2.0000      -0.408120       -11.1055
  57   2.0000      -0.404010       -10.9937
  58   2.0000      -0.400207       -10.8902
  59   2.0000      -0.395868       -10.7721
  60   2.0000      -0.380651       -10.3580
  61   2.0000      -0.380001       -10.3404
  62   2.0000      -0.378225       -10.2920
  63   2.0000      -0.372814       -10.1448
  64   2.0000      -0.370526       -10.0825
  65   2.0000      -0.364413        -9.9162
  66   2.0000      -0.356667        -9.7054
  67   2.0000      -0.347133        -9.4460
  68   2.0000      -0.339934        -9.2501
  69   2.0000      -0.338664        -9.2155
  70   2.0000      -0.336860        -9.1664
  71   2.0000      -0.322252        -8.7689
  72   2.0000      -0.316502        -8.6125
  73   2.0000      -0.309565        -8.4237
  74   2.0000      -0.305360        -8.3093
  75   2.0000      -0.301293        -8.1986
  76   2.0000      -0.299268        -8.1435
  77   2.0000      -0.288629        -7.8540
  78   2.0000      -0.280551        -7.6342
  79   2.0000      -0.275315        -7.4917
  80   2.0000      -0.273254        -7.4356
  81   2.0000      -0.252819        -6.8795
  82   2.0000      -0.234713        -6.3869
  83   2.0000      -0.226035        -6.1507
  84   2.0000      -0.224195        -6.1007
  85   2.0000      -0.219786        -5.9807
  86   2.0000      -0.217785        -5.9262
  87   2.0000      -0.206464        -5.6182
  88   2.0000      -0.193962        -5.2780
  89   2.0000      -0.185646        -5.0517
  90   2.0000      -0.140968        -3.8359
  91   2.0000      -0.139367        -3.7924
  92   2.0000      -0.075905        -2.0655
  93   0.0000      -0.057049        -1.5524
  94   0.0000       0.007920         0.2155
  95   0.0000       0.015445         0.4203
  96   0.0000       0.053999         1.4694
  97   0.0000       0.055549         1.5116

MULLIKEN ATOMIC CHARGES
-----------------------
   0 C :   -0.344393
   1 O :   -0.158455
   2 C :    0.057309
   3 O :   -0.471224
   4 C :   -0.056592
   5 C :   -0.228278
   6 O :   -0.436906
   7 C :   -0.196197
   8 O :   -0.181535
   9 C :   -0.352355
  10 N :   -0.005375
  11 C :    0.083801
  12 C :    0.286812
  13 C :   -0.689098
  14 C :   -0.562906
  15 N :   -0.361314
  16 C :   -0.334198
  17 O :   -0.404378
  18 C :    0.324495
  19 N :   -0.266554
  20 N :   -0.281097
  21 C :    0.325079
  22 C :   -0.652648
  23 O :   -0.099929
  24 N :   -0.156041
  25 H :    0.149965
  26 H :    0.149588
  27 H :    0.150628
  28 H :    0.141902
  29 H :    0.149600
  30 H :    0.178843
  31 H :    0.291139
  32 H :    0.166911
  33 H :    0.192117
  34 H :    0.171867
  35 H :    0.182400
  36 H :    0.176077
  37 H :    0.177310
  38 H :    0.319642
  39 H :    0.186368
  40 H :    0.183920
  41 H :    0.193700
Sum of atomic charges:   -2.0000000

LOEWDIN ATOMIC CHARGES
----------------------
   0 C :   -0.072957
   1 O :   -0.646979
   2 C :    0.354824
   3 O :   -0.561579
   4 C :    0.092708
   5 C :    0.192759
   6 O :   -0.678229
   7 C :    0.292672
   8 O :   -0.664903
   9 C :   -0.069203
  10 N :   -0.567625
  11 C :    0.304284
  12 C :    0.087430
  13 C :   -0.370907
  14 C :   -0.359944
  15 N :   -0.664646
  16 C :    0.319043
  17 O :   -0.544769
  18 C :    0.357887
  19 N :   -0.427339
  20 N :   -0.428870
  21 C :    0.332070
  22 C :   -0.331875
  23 O :   -0.449876
  24 N :   -0.607437
  25 H :    0.164079
  26 H :    0.163427
  27 H :    0.168817
  28 H :    0.159175
  29 H :    0.169779
  30 H :    0.174478
  31 H :    0.288083
  32 H :    0.156700
  33 H :    0.178478
  34 H :    0.165856
  35 H :    0.169047
  36 H :    0.165561
  37 H :    0.165695
  38 H :    0.280721
  39 H :    0.180152
  40 H :    0.179734
  41 H :    0.183681

  Mayer bond orders larger than 0.100000
B(  0-C ,  1-O ) :   0.8659 B(  0-C , 25-H ) :   0.9677 B(  0-C , 26-H ) :   0.9678
B(  0-C , 27-H ) :   0.9732 B(  1-O ,  2-C ) :   1.0467 B(  2-C ,  3-O ) :   1.8293
B(  2-C ,  4-C ) :   1.2801 B(  2-C , 24-N ) :   0.1193 B(  4-C ,  5-C ) :   0.7471
B(  4-C ,  6-O ) :  -0.1656 B(  4-C , 24-N ) :   0.8749 B(  5-C ,  6-O ) :   1.9529
B(  5-C ,  7-C ) :   1.2446 B(  7-C ,  8-O ) :   1.1533 B(  7-C , 10-N ) :   1.0047
B(  8-O ,  9-C ) :   0.8433 B(  9-C , 28-H ) :   0.9624 B(  9-C , 29-H ) :   0.9700
B(  9-C , 30-H ) :   0.9630 B( 10-N , 11-C ) :   0.9946 B( 10-N , 16-C ) :   0.1417
B( 10-N , 31-H ) :   0.8567 B( 11-C , 12-C ) :   0.7504 B( 11-C , 17-O ) :   0.1135
B( 11-C , 24-N ) :   1.8517 B( 12-C , 13-C ) :   0.8616 B( 12-C , 14-C ) :   0.9247
B( 12-C , 15-N ) :   0.9004 B( 13-C , 32-H ) :   0.9743 B( 13-C , 33-H ) :   0.9847
B( 13-C , 34-H ) :   0.9755 B( 14-C , 35-H ) :   0.9775 B( 14-C , 36-H ) :   0.9664
B( 14-C , 37-H ) :   0.9638 B( 15-N , 16-C ) :   0.9728 B( 15-N , 38-H ) :   0.8766
B( 16-C , 17-O ) :   1.9859 B( 16-C , 18-C ) :   0.8759 B( 17-O , 18-C ) :  -0.1499
B( 18-C , 19-N ) :   1.5531 B( 18-C , 23-O ) :   1.0262 B( 19-N , 20-N ) :   1.3197
B( 20-N , 21-C ) :   1.7110 B( 21-C , 22-C ) :   0.8138 B( 21-C , 23-O ) :   1.0329
B( 22-C , 39-H ) :   0.9492 B( 22-C , 40-H ) :   0.9523 B( 22-C , 41-H ) :   0.9987

Dispersion correction           -0.019665764
FINAL SINGLE POINT ENERGY     -1268.789258345583

DIPOLE MOMENT
-------------
                                X             Y             Z
Electronic contribution:      4.27515      -0.73251       9.27890
Nuclear contribution   :     -0.52396      -2.05252     -14.88234
                        -----------------------------------------
Total Dipole Moment    :      3.75119      -2.78504      -5.60344
                        -----------------------------------------
Magnitude (a.u.)       :      7.29564
Magnitude (Debye)      :     18.54404

Rotational constants in cm-1:     0.012240     0.004689     0.003956
Rotational constants in MHz :   366.946049   140.582677   118.595228

                             ****ORCA TERMINATED NORMALLY****
TOTAL RUN TIME: 0 days 0 hours 2 minutes 0 seconds 21 msec
