   * xtb version 6.5.1 (579679a) compiled by 'ehlert@majestix' on 2022-07-11
          program call               : /lustre/hpc/kemi/ree/PhD/git/ReactivityQM/dep/xtb-6.5.1/bin/xtb --gfn 1 /lustre/hpc/kemi/ree/PhD/git/ReactivityQM/calculations/R02oxygendeprot/reac01prodE13/conf17/R02oxygendeprot_reac01prodE13_conf17_gfn1.xyz --opt --vfukui --chrg -2 --uhf 0 --alpb DMSO

   ID    Z sym.   atoms
    1    6 C      1, 3, 5, 6, 8, 10, 12-15, 17, 19, 22, 23
    2    8 O      2, 4, 7, 9, 18, 24
    3    7 N      11, 16, 20, 21, 25
    4    1 H      26-42

      * Solvation model:               ALPB
        Solvent                        DMSO
        Solvent mass                       7.8130E+01 g/mol
          :  Hamiltonian                  GFN1-xTB          :
 * total energy  :   -83.5670012 Eh     change       -0.2517140E-08 Eh
 * total energy  :   -83.5801005 Eh     change       -0.1309929E-01 Eh
 * total energy  :   -83.5850865 Eh     change       -0.4986022E-02 Eh
 * total energy  :   -83.5860141 Eh     change       -0.9276187E-03 Eh
 * total energy  :   -83.5870328 Eh     change       -0.1018638E-02 Eh
 * total energy  :   -83.5876754 Eh     change       -0.6425799E-03 Eh
 * total energy  :   -83.5882224 Eh     change       -0.5470850E-03 Eh
 * total energy  :   -83.5885866 Eh     change       -0.3641735E-03 Eh
 * total energy  :   -83.5887449 Eh     change       -0.1582983E-03 Eh
 * total energy  :   -83.5888550 Eh     change       -0.1100852E-03 Eh
 * total energy  :   -83.5960070 Eh     change       -0.1294496E-04 Eh
 * total energy  :   -83.5960319 Eh     change       -0.2491804E-04 Eh
 * total energy  :   -83.5960431 Eh     change       -0.1120668E-04 Eh
 * total energy  :   -83.5960505 Eh     change       -0.7347276E-05 Eh
 * total energy  :   -83.5960580 Eh     change       -0.7565050E-05 Eh
 * total energy  :   -83.5960628 Eh     change       -0.4785775E-05 Eh
 * total energy  :   -83.5960678 Eh     change       -0.5004149E-05 Eh
 * total energy  :   -83.5960732 Eh     change       -0.5366328E-05 Eh
 * total energy  :   -83.5960769 Eh     change       -0.3728518E-05 Eh
   *** GEOMETRY OPTIMIZATION CONVERGED AFTER 90 ITERATIONS ***

 final structure:
================
42
 xtb: 6.5.1 (579679a)
C           -5.65951150008762        1.74831984422843        1.87188473986749
O           -4.53260673931098        0.95148202197442        1.58380388253939
C           -3.52752583355753        1.59126004240290        0.85438090775171
O           -3.69186355824912        2.79227294949444        0.55230218389842
C           -2.40198004191656        0.79584188385098        0.53817051651912
C           -2.22355762075889       -0.63382673182138        0.86921523402410
O           -3.11116702393806       -1.33220911381135        1.45740435141975
C           -1.01112810308941       -1.17530992021585        0.43036906057074
O           -0.60056132619649       -2.49488682838178        0.64613914734527
C           -1.45818817515232       -3.49818980843731        0.12728307343951
N           -0.01270141221916       -0.40348156080172       -0.19334236757911
C           -0.32785876974258        0.90676282245105       -0.52550426336439
C            0.76527393828844        1.66280600951213       -1.25940650312985
C            0.63264212354587        3.16842513092307       -1.00798138747392
C            0.68375597596214        1.36571925122978       -2.76120341133552
N            2.07470906185387        1.18715333394318       -0.77921350744257
C            2.13532995160149        0.85364923864093        0.59504108355159
O            1.62231018167256        1.58445459271637        1.47147811883028
C            2.93127526304129       -0.29732985538657        0.89004380392235
N            3.22067753663658       -0.80410013396116        2.08820094805757
N            4.00047827243720       -1.90826423592776        1.86463437636494
C            4.14885622344753       -2.02618870963308        0.58783919418201
C            4.92979938184609       -3.06204206842572       -0.13221042633293
O            3.50649828576937       -1.05799280081490       -0.11099689524983
N           -1.40666818221163        1.48463099697290       -0.15226461820935
H           -6.14315628029012        2.10716237846241        0.95417880642363
H           -5.39204231375521        2.62183649624074        2.48111750539868
H           -6.36565380350032        1.12884043013234        2.42754991448608
H           -1.62621543090946       -3.36365299177508       -0.94888378254127
H           -0.96403254787520       -4.45839603745551        0.29023605611717
H           -2.42949419587469       -3.50184159528876        0.64030499464285
H            0.61491722205221       -0.90353929396302       -0.80192415299598
H            1.39783886197268        3.70767283223998       -1.56421500277870
H            0.74973048111375        3.38180133830848        0.05510260135917
H           -0.35204085154221        3.50853223855362       -1.32969441858175
H           -0.26433068708839        1.72478652112535       -3.16029945181004
H            1.49716184361799        1.85906845024508       -3.29132012245800
H            0.75237891561140        0.29335320099557       -2.93920775671788
H            2.45643513049062        0.46140758795196       -1.36977726394661
H            4.27805433828844       -3.66576287298701       -0.76394366080442
H            5.67610025314236       -2.59327582231620       -0.77322192123796
H            5.42806115487073       -3.70694921120485        0.58793141327309

          :  Hamiltonian                  GFN1-xTB          :
         :: total energy             -83.596076924157 Eh    ::
         :: gradient norm              0.000667377014 Eh/a0 ::
         :: HOMO-LUMO gap              0.240214975089 eV    ::
         :: SCC energy               -84.319035630565 Eh    ::
         :: -> Gsolv                  -0.303291612100 Eh    ::
         :: repulsion energy           0.749556195723 Eh    ::

    * Orbital Energies and Occupations

         #    Occupation            Energy/Eh            Energy/eV
      -------------------------------------------------------------
         1        2.0000           -0.8026007             -21.8399
       ...           ...                  ...                  ...
        56        2.0000           -0.4322950             -11.7633
        57        2.0000           -0.4293021             -11.6819
        58        2.0000           -0.4264505             -11.6043
        59        2.0000           -0.4058473             -11.0437
        60        2.0000           -0.4051580             -11.0249
        61        2.0000           -0.4024962             -10.9525
        62        2.0000           -0.3977955             -10.8246
        63        2.0000           -0.3932590             -10.7011
        64        2.0000           -0.3881682             -10.5626
        65        2.0000           -0.3780358             -10.2869
        66        2.0000           -0.3388427              -9.2204
        67        2.0000           -0.3330487              -9.0627
        68        1.9810           -0.2713126              -7.3828 (HOMO)
        69        0.0190           -0.2624849              -7.1426 (LUMO)
        70                         -0.2091865              -5.6923
        71                         -0.1994610              -5.4276
        72                         -0.1640689              -4.4645
        73                         -0.1393307              -3.7914
        74                         -0.1227813              -3.3410
        75                         -0.1067064              -2.9036
        76                         -0.1063003              -2.8926
        77                         -0.1028948              -2.7999
        78                         -0.0959834              -2.6118
        79                         -0.0714264              -1.9436
       ...                                ...                  ...
       134                          0.7129155              19.3994
      -------------------------------------------------------------
                  HL-Gap            0.0088277 Eh            0.2402 eV

Wiberg/Mayer (AO) data.
largest (>0.10) Wiberg bond orders for each atom

     #   Z sym  total        # sym  WBO       # sym  WBO       # sym  WBO
 ---------------------------------------------------------------------------
     1   6 C    3.922 --    28 H    0.987    27 H    0.980    26 H    0.980
                             2 O    0.953
     2   8 O    2.079 --     3 C    0.956     1 C    0.953
     3   6 C    3.800 --     4 O    1.455     5 C    1.275     2 O    0.956
     4   8 O    1.711 --     3 C    1.455
     5   6 C    3.821 --     3 C    1.275    25 N    1.132     6 C    1.074
     6   6 C    3.944 --     7 O    1.377     8 C    1.347     5 C    1.074
     7   8 O    1.670 --     6 C    1.377     8 C    0.119
     8   6 C    3.774 --     6 C    1.347    11 N    1.023     9 O    0.944
                             7 O    0.119
     9   8 O    2.029 --     8 C    0.944    10 C    0.939
    10   6 C    3.912 --    30 H    0.986    29 H    0.983    31 H    0.978
                             9 O    0.939
    11   7 N    3.355 --    12 C    1.084     8 C    1.023    32 H    0.913
    12   6 C    3.934 --    25 N    1.642    11 N    1.084    13 C    0.971
    13   6 C    3.955 --    14 C    0.996    15 C    0.989    12 C    0.971
                            16 N    0.936
    14   6 C    3.996 --    13 C    0.996    33 H    0.988    35 H    0.986
                            34 H    0.981
    15   6 C    3.993 --    13 C    0.989    37 H    0.986    36 H    0.985
                            38 H    0.984
    16   7 N    3.140 --    17 C    1.051    13 C    0.936    39 H    0.929
    17   6 C    3.880 --    18 O    1.446    19 C    1.149    16 N    1.051
    18   8 O    1.767 --    17 C    1.446
    19   6 C    3.795 --    20 N    1.418    17 C    1.149    24 O    0.973
    20   7 N    2.832 --    19 C    1.418    21 N    1.181
    21   7 N    2.981 --    22 C    1.635    20 N    1.181
    22   6 C    3.853 --    21 N    1.635    24 O    1.042    23 C    1.024
    23   6 C    3.994 --    22 C    1.024    42 H    0.986    41 H    0.972
                            40 H    0.970
    24   8 O    2.217 --    22 C    1.042    19 C    0.973
    25   7 N    3.008 --    12 C    1.642     5 C    1.132
    26   1 H    1.021 --     1 C    0.980
    27   1 H    1.021 --     1 C    0.980
    28   1 H    1.020 --     1 C    0.987
    29   1 H    1.014 --    10 C    0.983
    30   1 H    1.020 --    10 C    0.986
    31   1 H    1.040 --    10 C    0.978
    32   1 H    0.968 --    11 N    0.913
    33   1 H    1.010 --    14 C    0.988
    34   1 H    1.028 --    14 C    0.981
    35   1 H    1.020 --    14 C    0.986
    36   1 H    1.007 --    15 C    0.985
    37   1 H    1.003 --    15 C    0.986
    38   1 H    1.004 --    15 C    0.984
    39   1 H    0.969 --    16 N    0.929
    40   1 H    1.000 --    23 C    0.970
    41   1 H    1.001 --    23 C    0.972
    42   1 H    1.004 --    23 C    0.986
 ---------------------------------------------------------------------------

           -------------------------------------------------
          | TOTAL ENERGY              -83.596076924157 Eh   |
          | GRADIENT NORM               0.000667377014 Eh/α |
          | HOMO-LUMO GAP               0.240214975089 eV   |
           -------------------------------------------------

 * finished run on 2023/06/21 at 17:14:34.787
