                         Program Version 5.0.1 -  RELEASE  -
|  1> # ORCA input file
|  2> ! SP r2SCAN-3c CPCM
|  3>
|  4> %maxcore 1875.0
|  5> %pal nprocs 4 end
|  6> %cpcm smd true SMDsolvent "DMSO" end
|  7>
|  8> *xyz -1 1
|  9> C      -2.817404   -1.829352   -0.298847
| 10> O      -1.951472   -0.845359   -0.830977
| 11> C      -0.994538   -0.360267    0.111503
| 12> O      -1.487864    0.664446    0.941359
| 13> C      -1.677189    1.932214    0.321949
| 14> C       0.334334   -0.366791   -0.284081
| 15> N       0.926564   -1.189076   -1.170807
| 16> N       2.289176   -0.984872   -1.031608
| 17> C       2.462432   -0.101940   -0.115136
| 18> C       3.752571    0.444229    0.385408
| 19> O       1.285497    0.351690    0.422701
| 20> H      -3.431787   -1.422700    0.516046
| 21> H      -2.256826   -2.692197    0.087588
| 22> H      -3.476085   -2.163536   -1.103711
| 23> H      -2.359887    1.859980   -0.535363
| 24> H      -0.722649    2.355873   -0.020009
| 25> H      -2.115362    2.599189    1.068538
| 26> H       4.576223   -0.081407   -0.093233
| 27> H       3.829126    0.320654    1.466212
| 28> H       3.835140    1.509222    0.162471
| 29> **                         ****END OF INPUT****

CARTESIAN COORDINATES (ANGSTROEM)
---------------------------------
  C     -2.817404   -1.829352   -0.298847
  O     -1.951472   -0.845359   -0.830977
  C     -0.994538   -0.360267    0.111503
  O     -1.487864    0.664446    0.941359
  C     -1.677189    1.932214    0.321949
  C      0.334334   -0.366791   -0.284081
  N      0.926564   -1.189076   -1.170807
  N      2.289176   -0.984872   -1.031608
  C      2.462432   -0.101940   -0.115136
  C      3.752571    0.444229    0.385408
  O      1.285497    0.351690    0.422701
  H     -3.431787   -1.422700    0.516046
  H     -2.256826   -2.692197    0.087588
  H     -3.476085   -2.163536   -1.103711
  H     -2.359887    1.859980   -0.535363
  H     -0.722649    2.355873   -0.020009
  H     -2.115362    2.599189    1.068538
  H      4.576223   -0.081407   -0.093233
  H      3.829126    0.320654    1.466212
  H      3.835140    1.509222    0.162471

 Total Charge           Charge          ....   -1
 Multiplicity           Mult            ....    1
 Number of Electrons    NEL             ....   84
 Basis Dimension        Dim             ....  279

ORBITAL ENERGIES
----------------

  NO   OCC          E(Eh)            E(eV)
   0   2.0000     -18.991449      -516.7836
   1   2.0000     -18.936999      -515.3019
   2   2.0000     -18.936411      -515.2859
   3   2.0000     -14.150380      -385.0514
   4   2.0000     -14.118742      -384.1905
   5   2.0000     -10.085882      -274.4508
   6   2.0000     -10.076644      -274.1994
   7   2.0000     -10.054539      -273.5979
   8   2.0000     -10.049436      -273.4591
   9   2.0000     -10.048417      -273.4313
  10   2.0000     -10.025477      -272.8071
  11   2.0000      -1.068477       -29.0747
  12   2.0000      -0.992257       -27.0007
  13   2.0000      -0.944589       -25.7036
  14   2.0000      -0.900323       -24.4990
  15   2.0000      -0.771732       -20.9999
  16   2.0000      -0.685551       -18.6548
  17   2.0000      -0.656161       -17.8551
  18   2.0000      -0.627622       -17.0785
  19   2.0000      -0.596461       -16.2305
  20   2.0000      -0.539921       -14.6920
  21   2.0000      -0.508700       -13.8424
  22   2.0000      -0.454553       -12.3690
  23   2.0000      -0.439434       -11.9576
  24   2.0000      -0.430023       -11.7015
  25   2.0000      -0.406142       -11.0517
  26   2.0000      -0.402905       -10.9636
  27   2.0000      -0.383017       -10.4224
  28   2.0000      -0.377176       -10.2635
  29   2.0000      -0.371316       -10.1040
  30   2.0000      -0.363121        -9.8810
  31   2.0000      -0.358508        -9.7555
  32   2.0000      -0.351491        -9.5646
  33   2.0000      -0.295719        -8.0469
  34   2.0000      -0.288425        -7.8484
  35   2.0000      -0.281596        -7.6626
  36   2.0000      -0.263105        -7.1595
  37   2.0000      -0.227334        -6.1861
  38   2.0000      -0.222430        -6.0526
  39   2.0000      -0.213233        -5.8024
  40   2.0000      -0.209127        -5.6906
  41   2.0000      -0.103105        -2.8056
  42   0.0000       0.016797         0.4571
  43   0.0000       0.044025         1.1980
  44   0.0000       0.079519         2.1638
  45   0.0000       0.097363         2.6494
  46   0.0000       0.111137         3.0242

MULLIKEN ATOMIC CHARGES
-----------------------
   0 C :   -0.353822
   1 O :   -0.224903
   2 C :   -0.411676
   3 O :   -0.213805
   4 C :   -0.345461
   5 C :    0.213148
   6 N :   -0.340826
   7 N :   -0.276769
   8 C :    0.284672
   9 C :   -0.659834
  10 O :   -0.105684
  11 H :    0.149165
  12 H :    0.146938
  13 H :    0.149558
  14 H :    0.150092
  15 H :    0.149875
  16 H :    0.151433
  17 H :    0.186969
  18 H :    0.175163
  19 H :    0.175769
Sum of atomic charges:   -1.0000000

LOEWDIN ATOMIC CHARGES
----------------------
   0 C :   -0.084318
   1 O :   -0.704658
   2 C :    0.216193
   3 O :   -0.701003
   4 C :   -0.084338
   5 C :    0.347860
   6 N :   -0.510910
   7 N :   -0.479736
   8 C :    0.301520
   9 C :   -0.340741
  10 O :   -0.455725
  11 H :    0.156859
  12 H :    0.157786
  13 H :    0.167425
  14 H :    0.159929
  15 H :    0.159279
  16 H :    0.169581
  17 H :    0.179346
  18 H :    0.172979
  19 H :    0.172675

  Mayer bond orders larger than 0.100000
B(  0-C ,  1-O ) :   0.8747 B(  0-C , 11-H ) :   0.9734 B(  0-C , 12-H ) :   0.9708
B(  0-C , 13-H ) :   0.9715 B(  1-O ,  2-C ) :   0.9379 B(  2-C ,  3-O ) :   1.0845
B(  2-C ,  5-C ) :   1.2668 B(  2-C ,  6-N ) :   0.1331 B(  3-O ,  4-C ) :   0.8558
B(  4-C , 14-H ) :   0.9686 B(  4-C , 15-H ) :   0.9693 B(  4-C , 16-H ) :   0.9721
B(  5-C ,  6-N ) :   1.5360 B(  5-C , 10-O ) :   1.0435 B(  6-N ,  7-N ) :   1.3117
B(  7-N ,  8-C ) :   1.8062 B(  8-C ,  9-C ) :   0.8123 B(  8-C , 10-O ) :   1.0142
B(  9-C , 17-H ) :   1.0017 B(  9-C , 18-H ) :   0.9605 B(  9-C , 19-H ) :   0.9493

Dispersion correction           -0.006144350
FINAL SINGLE POINT ENERGY      -569.145974821418

DIPOLE MOMENT
-------------
                                X             Y             Z
Electronic contribution:      3.00231      -1.76249      -1.16276
Nuclear contribution   :     -3.15045       3.69198       2.49281
                        -----------------------------------------
Total Dipole Moment    :     -0.14814       1.92948       1.33006
                        -----------------------------------------
Magnitude (a.u.)       :      2.34817
Magnitude (Debye)      :      5.96857

Rotational constants in cm-1:     0.070234     0.023677     0.018889
Rotational constants in MHz :  2105.555512   709.826802   566.280882

                             ****ORCA TERMINATED NORMALLY****
TOTAL RUN TIME: 0 days 0 hours 0 minutes 34 seconds 381 msec
