   * xtb version 6.5.1 (579679a) compiled by 'ehlert@majestix' on 2022-07-11
          program call               : /lustre/hpc/kemi/ree/PhD/git/ReactivityQM/dep/xtb-6.5.1/bin/xtb --gfn 1 /lustre/hpc/kemi/ree/PhD/git/ReactivityQM/calculations/R01/reac01prodE02/conf10/R01_reac01prodE02_conf10_gfn1.xyz --opt --vfukui --chrg -1 --uhf 0 --alpb DMSO

   ID    Z sym.   atoms
    1    6 C      1, 3, 5, 6, 9, 10
    2    8 O      2, 4, 11
    3    7 N      7, 8
    4    1 H      12-20

      * Solvation model:               ALPB
        Solvent                        DMSO
        Solvent mass                       7.8130E+01 g/mol
          :  Hamiltonian                  GFN1-xTB          :
 * total energy  :   -38.2751594 Eh     change       -0.3026912E-11 Eh
 * total energy  :   -38.2865494 Eh     change       -0.1138995E-01 Eh
 * total energy  :   -38.2901080 Eh     change       -0.3558650E-02 Eh
 * total energy  :   -38.2906347 Eh     change       -0.5266782E-03 Eh
 * total energy  :   -38.2908769 Eh     change       -0.2422299E-03 Eh
 * total energy  :   -38.2910418 Eh     change       -0.1648943E-03 Eh
 * total energy  :   -38.2914371 Eh     change       -0.3952684E-03 Eh
 * total energy  :   -38.2914746 Eh     change       -0.3747298E-04 Eh
 * total energy  :   -38.2921941 Eh     change       -0.7195684E-03 Eh
 * total energy  :   -38.2926731 Eh     change       -0.4789673E-03 Eh
 * total energy  :   -38.3033121 Eh     change       -0.2187344E-04 Eh
 * total energy  :   -38.3033331 Eh     change       -0.2104520E-04 Eh
 * total energy  :   -38.3033603 Eh     change       -0.2721569E-04 Eh
 * total energy  :   -38.3033747 Eh     change       -0.1436387E-04 Eh
 * total energy  :   -38.3034037 Eh     change       -0.2896471E-04 Eh
 * total energy  :   -38.3034157 Eh     change       -0.1201482E-04 Eh
 * total energy  :   -38.3034205 Eh     change       -0.4850821E-05 Eh
 * total energy  :   -38.3034284 Eh     change       -0.7861020E-05 Eh
 * total energy  :   -38.3034315 Eh     change       -0.3103173E-05 Eh
   *** GEOMETRY OPTIMIZATION CONVERGED AFTER 51 ITERATIONS ***

 final structure:
================
20
 xtb: 6.5.1 (579679a)
C           -2.81740366472943       -1.82935178478878       -0.29884709111899
O           -1.95147178630636       -0.84535941049825       -0.83097703292185
C           -0.99453817185770       -0.36026675267095        0.11150295420693
O           -1.48786396569839        0.66444618484625        0.94135883601057
C           -1.67718906467067        1.93221425170955        0.32194895367153
C            0.33433449819869       -0.36679050404227       -0.28408088138839
N            0.92656447472529       -1.18907632636344       -1.17080714107421
N            2.28917559378359       -0.98487189648530       -1.03160849534960
C            2.46243239250831       -0.10194040907536       -0.11513647611052
C            3.75257115713851        0.44422856855088        0.38540819870797
O            1.28549688885361        0.35169036375464        0.42270061341066
H           -3.43178702496509       -1.42269983415124        0.51604628536756
H           -2.25682617805000       -2.69219657261225        0.08758787673251
H           -3.47608485442074       -2.16353632798602       -1.10371143736808
H           -2.35988712596909        1.85997964164803       -0.53536263912279
H           -0.72264934895314        2.35587300055767       -0.02000869006495
H           -2.11536214711081        2.59918910148528        1.06853758678965
H            4.57622250777290       -0.08140731413665       -0.09323276004380
H            3.82912619240614        0.32065437775155        1.46621194666190
H            3.83513962734945        1.50922164250688        0.16247139300356

          :  Hamiltonian                  GFN1-xTB          :
         :: total energy             -38.303431503796 Eh    ::
         :: gradient norm              0.000927560573 Eh/a0 ::
         :: HOMO-LUMO gap              2.789098357862 eV    ::
         :: SCC energy               -38.606453983310 Eh    ::
         :: -> Gsolv                  -0.102234452264 Eh    ::
         :: repulsion energy           0.311113532996 Eh    ::

    * Orbital Energies and Occupations

         #    Occupation            Energy/Eh            Energy/eV
      -------------------------------------------------------------
         1        2.0000           -0.7742384             -21.0681
       ...           ...                  ...                  ...
        19        2.0000           -0.5102494             -13.8846
        20        2.0000           -0.5067142             -13.7884
        21        2.0000           -0.4932324             -13.4215
        22        2.0000           -0.4753758             -12.9356
        23        2.0000           -0.4694209             -12.7736
        24        2.0000           -0.4605230             -12.5315
        25        2.0000           -0.4216904             -11.4748
        26        2.0000           -0.4208367             -11.4516
        27        2.0000           -0.4180405             -11.3755
        28        2.0000           -0.3980319             -10.8310
        29        2.0000           -0.3878352             -10.5535
        30        2.0000           -0.3719827             -10.1222
        31        2.0000           -0.2905342              -7.9058 (HOMO)
        32                         -0.1880368              -5.1167 (LUMO)
        33                         -0.1512947              -4.1169
        34                         -0.1168876              -3.1807
        35                         -0.1063790              -2.8947
        36                         -0.1046100              -2.8466
        37                         -0.0503144              -1.3691
        38                         -0.0493313              -1.3424
        39                         -0.0488735              -1.3299
        40                         -0.0471308              -1.2825
        41                         -0.0445908              -1.2134
        42                         -0.0405771              -1.1042
       ...                                ...                  ...
        62                          0.6451048              17.5542
      -------------------------------------------------------------
                  HL-Gap            0.1024975 Eh            2.7891 eV

Wiberg/Mayer (AO) data.
largest (>0.10) Wiberg bond orders for each atom

     #   Z sym  total        # sym  WBO       # sym  WBO       # sym  WBO
 ---------------------------------------------------------------------------
     1   6 C    3.936 --    14 H    0.985    12 H    0.982    13 H    0.981
                             2 O    0.960
     2   8 O    1.991 --     1 C    0.960     3 C    0.897
     3   6 C    3.573 --     6 C    1.416     4 O    0.925     2 O    0.897
                             7 N    0.154
     4   8 O    1.992 --     5 C    0.945     3 C    0.925
     5   6 C    3.937 --    17 H    0.986    15 H    0.983    16 H    0.982
                             4 O    0.945
     6   6 C    3.860 --     3 C    1.416     7 N    1.334    11 O    0.969
     7   7 N    2.820 --     6 C    1.334     8 N    1.145     3 C    0.154
                             9 C    0.103
     8   7 N    2.984 --     9 C    1.678     7 N    1.145
     9   6 C    3.887 --     8 N    1.678    10 C    1.018    11 O    1.005
                             7 N    0.103
    10   6 C    3.996 --     9 C    1.018    18 H    0.987    19 H    0.976
                            20 H    0.974
    11   8 O    2.192 --     9 C    1.005     6 C    0.969
    12   1 H    1.024 --     1 C    0.982
    13   1 H    1.027 --     1 C    0.981
    14   1 H    1.023 --     1 C    0.985
    15   1 H    1.019 --     5 C    0.983
    16   1 H    1.020 --     5 C    0.982
    17   1 H    1.022 --     5 C    0.986
    18   1 H    1.007 --    10 C    0.987
    19   1 H    1.006 --    10 C    0.976
    20   1 H    1.007 --    10 C    0.974
 ---------------------------------------------------------------------------

           -------------------------------------------------
          | TOTAL ENERGY              -38.303431503796 Eh   |
          | GRADIENT NORM               0.000927560573 Eh/α |
          | HOMO-LUMO GAP               2.789098357862 eV   |
           -------------------------------------------------

 * finished run on 2023/06/20 at 14:52:59.906
