   * xtb version 6.5.1 (579679a) compiled by 'ehlert@majestix' on 2022-07-11
          program call               : /lustre/hpc/kemi/ree/PhD/git/ReactivityQM/dep/xtb-6.5.1/bin/xtb --gfn 1 /lustre/hpc/kemi/ree/PhD/git/ReactivityQM/calculations/R02deprot/reac01prodN17/conf15/R02deprot_reac01prodN17_conf15_gfn1.xyz --opt --vfukui --chrg 0 --uhf 0 --alpb DMSO

   ID    Z sym.   atoms
    1    6 C      1, 2, 5, 6, 9-12, 14, 15, 18-20, 22
    2    7 N      3, 4, 8, 13, 24
    3    8 O      7, 16, 17, 21, 23, 25
    4    1 H      26-42

      * Solvation model:               ALPB
        Solvent                        DMSO
        Solvent mass                       7.8130E+01 g/mol
          :  Hamiltonian                  GFN1-xTB          :
 * total energy  :   -82.9059926 Eh     change       -0.1509193E-10 Eh
 * total energy  :   -82.9193471 Eh     change       -0.1335444E-01 Eh
 * total energy  :   -82.9244434 Eh     change       -0.5096300E-02 Eh
 * total energy  :   -82.9256150 Eh     change       -0.1171637E-02 Eh
 * total energy  :   -82.9267082 Eh     change       -0.1093180E-02 Eh
 * total energy  :   -82.9275076 Eh     change       -0.7994724E-03 Eh
 * total energy  :   -82.9282702 Eh     change       -0.7625185E-03 Eh
 * total energy  :   -82.9289485 Eh     change       -0.6782927E-03 Eh
 * total energy  :   -82.9294437 Eh     change       -0.4951987E-03 Eh
 * total energy  :   -82.9297621 Eh     change       -0.3184279E-03 Eh
 * total energy  :   -82.9318645 Eh     change       -0.7291321E-05 Eh
 * total energy  :   -82.9318738 Eh     change       -0.9263553E-05 Eh
 * total energy  :   -82.9318800 Eh     change       -0.6229140E-05 Eh
 * total energy  :   -82.9318874 Eh     change       -0.7448266E-05 Eh
 * total energy  :   -82.9318956 Eh     change       -0.8139008E-05 Eh
 * total energy  :   -82.9319038 Eh     change       -0.8183581E-05 Eh
 * total energy  :   -82.9319106 Eh     change       -0.6817458E-05 Eh
 * total energy  :   -82.9319158 Eh     change       -0.5184393E-05 Eh
 * total energy  :   -82.9319187 Eh     change       -0.2941221E-05 Eh
   *** GEOMETRY OPTIMIZATION CONVERGED AFTER 40 ITERATIONS ***

 final structure:
================
42
 xtb: 6.5.1 (579679a)
C            5.03671772785248       -2.73911262942669       -0.12044326234199
C            3.79401049239339       -2.43181547108222        0.62083886784860
N            3.18596468759853       -3.17076074914973        1.49525746924801
N            2.08589470817767       -2.47342652464374        1.90173934984906
C            2.09079612116638       -1.35187540709618        1.25050339135648
C            1.10371466769777       -0.24089789561331        1.35005292321767
O            0.11867074667317       -0.34055038727724        2.07115732367920
N            1.45167940430202        0.81343567454608        0.59891521063118
C            0.70729782162205        2.06831955657083        0.42792299756486
C            0.11277623836526        2.54113858621627        1.76086306674889
C            1.70485982884087        3.10289245853983       -0.09894728537085
C           -0.42895584447301        1.86180121772421       -0.57285691638501
N           -1.06023250844984        0.70788801611070       -0.52518231944650
C           -2.11387747549338        0.54885833432060       -1.38468906594864
C           -2.84507192025203       -0.66727308603117       -1.37138362692567
O           -3.74531791168555       -1.05347107870134       -2.05670081932589
O           -2.35120293093295       -1.66969414505937       -0.33211575274826
C           -2.85785489328902       -3.00317349898538       -0.58904686581907
C           -2.48581235687398       -1.25608837921751        1.05907220433685
C           -2.47699713789164        1.55594133477238       -2.27573899527857
O           -3.48659946256623        1.46470090570517       -3.13699937484642
C           -1.70924852887934        2.82753662489241       -2.27205814802800
O           -1.98710214230906        3.75026929191551       -3.03981824815761
N           -0.69825777817898        2.88999897353341       -1.36627502449243
O            3.15350630849630       -1.26733079263758        0.42007233115288
H            5.44637528214507       -3.68462988325779        0.22749925685528
H            4.82627406324637       -2.80477307642015       -1.18841166218280
H            5.76631837349431       -1.94370026760104        0.03057037318294
H            2.27849453459592        0.71859842589756        0.03060167009771
H           -0.28678511272335        3.54660856189117        1.63265378052469
H            0.88262632627010        2.55971989118605        2.53075787684751
H           -0.69403432215316        1.88403243737616        2.07877040202329
H            2.50960120312623        3.24721604588353        0.61970364606208
H            1.19394905899184        4.05110583420752       -0.26117897289268
H            2.12771209459307        2.77156522844733       -1.04642155546190
H           -2.59912590184827       -3.24955688348555       -1.61623001127188
H           -2.35873457467195       -3.67091240233914        0.10804800889029
H           -3.93837571953076       -3.02284992067596       -0.44641862262892
H           -2.07473634836446       -0.25088474712377        1.13076543263853
H           -1.88598977622212       -1.94459157877430        1.65080833190515
H           -3.53501509708652       -1.28869238352945        1.35105734793951
H           -3.95790994578625        0.61443578839872       -3.09410573304810

          :  Hamiltonian                  GFN1-xTB          :
         :: total energy             -82.931918713367 Eh    ::
         :: gradient norm              0.000657470981 Eh/a0 ::
         :: HOMO-LUMO gap              1.550922209678 eV    ::
         :: SCC energy               -83.708204000945 Eh    ::
         :: -> Gsolv                  -0.070332169071 Eh    ::
         :: repulsion energy           0.803473899094 Eh    ::

    * Orbital Energies and Occupations

         #    Occupation            Energy/Eh            Energy/eV
      -------------------------------------------------------------
         1        2.0000           -0.9030847             -24.5742
       ...           ...                  ...                  ...
        55        2.0000           -0.5033736             -13.6975
        56        2.0000           -0.4929453             -13.4137
        57        2.0000           -0.4890210             -13.3069
        58        2.0000           -0.4778056             -13.0018
        59        2.0000           -0.4639826             -12.6256
        60        2.0000           -0.4613971             -12.5553
        61        2.0000           -0.4559720             -12.4076
        62        2.0000           -0.4521366             -12.3033
        63        2.0000           -0.4496103             -12.2345
        64        2.0000           -0.4442688             -12.0892
        65        2.0000           -0.4252564             -11.5718
        66        2.0000           -0.3988629             -10.8536
        67        2.0000           -0.3973494             -10.8124 (HOMO)
        68                         -0.3403540              -9.2615 (LUMO)
        69                         -0.3069063              -8.3513
        70                         -0.2559342              -6.9643
        71                         -0.2549135              -6.9366
        72                         -0.2306197              -6.2755
        73                         -0.1964788              -5.3465
        74                         -0.1664589              -4.5296
        75                         -0.1484618              -4.0399
        76                         -0.1420324              -3.8649
        77                         -0.1373894              -3.7386
        78                         -0.1227924              -3.3414
       ...                                ...                  ...
       134                          0.7430845              20.2204
      -------------------------------------------------------------
                  HL-Gap            0.0569953 Eh            1.5509 eV

Wiberg/Mayer (AO) data.
largest (>0.10) Wiberg bond orders for each atom

     #   Z sym  total        # sym  WBO       # sym  WBO       # sym  WBO
 ---------------------------------------------------------------------------
     1   6 C    3.987 --     2 C    1.031    26 H    0.982    28 H    0.965
                            27 H    0.962
     2   6 C    3.869 --     3 N    1.615    25 O    1.070     1 C    1.031
     3   7 N    2.981 --     2 C    1.615     4 N    1.194
     4   7 N    2.997 --     5 C    1.626     3 N    1.194
     5   6 C    3.870 --     4 N    1.626    25 O    1.047     6 C    0.987
     6   6 C    3.920 --     7 O    1.553     8 N    1.292     5 C    0.987
     7   8 O    1.896 --     6 C    1.553     8 N    0.180
     8   7 N    3.376 --     6 C    1.292     9 C    0.915    29 H    0.897
                             7 O    0.180
     9   6 C    3.928 --    11 C    0.999    10 C    0.984    12 C    0.960
                             8 N    0.915
    10   6 C    3.990 --    30 H    0.985    31 H    0.985     9 C    0.984
                            32 H    0.980
    11   6 C    3.993 --     9 C    0.999    33 H    0.987    35 H    0.984
                            34 H    0.981
    12   6 C    3.951 --    13 N    1.452    24 N    1.375     9 C    0.960
    13   7 N    2.999 --    12 C    1.452    14 C    1.178
    14   6 C    3.957 --    20 C    1.354    15 C    1.182    13 N    1.178
    15   6 C    3.796 --    16 O    1.720    14 C    1.182    17 O    0.714
    16   8 O    2.055 --    15 C    1.720
    17   8 O    2.485 --    18 C    0.837    19 C    0.812    15 C    0.714
    18   6 C    3.810 --    38 H    0.980    37 H    0.979    36 H    0.977
                            17 O    0.837
    19   6 C    3.786 --    41 H    0.984    40 H    0.977    39 H    0.958
                            17 O    0.812
    20   6 C    3.887 --    14 C    1.354    21 O    1.138    22 C    1.030
    21   8 O    2.123 --    20 C    1.138    42 H    0.802
    22   6 C    3.929 --    23 O    1.539    24 N    1.231    20 C    1.030
    23   8 O    1.837 --    22 C    1.539    24 N    0.132
    24   7 N    2.994 --    12 C    1.375    22 C    1.231    23 O    0.132
    25   8 O    2.314 --     2 C    1.070     5 C    1.047
    26   1 H    0.998 --     1 C    0.982
    27   1 H    0.997 --     1 C    0.962
    28   1 H    0.997 --     1 C    0.965
    29   1 H    0.943 --     8 N    0.897
    30   1 H    1.003 --    10 C    0.985
    31   1 H    1.001 --    10 C    0.985
    32   1 H    1.018 --    10 C    0.980
    33   1 H    1.001 --    11 C    0.987
    34   1 H    1.017 --    11 C    0.981
    35   1 H    1.003 --    11 C    0.984
    36   1 H    1.000 --    18 C    0.977
    37   1 H    0.998 --    18 C    0.979
    38   1 H    1.000 --    18 C    0.980
    39   1 H    1.037 --    19 C    0.958
    40   1 H    1.011 --    19 C    0.977
    41   1 H    0.996 --    19 C    0.984
    42   1 H    0.852 --    21 O    0.802
 ---------------------------------------------------------------------------

           -------------------------------------------------
          | TOTAL ENERGY              -82.931918713367 Eh   |
          | GRADIENT NORM               0.000657470981 Eh/α |
          | HOMO-LUMO GAP               1.550922209678 eV   |
           -------------------------------------------------

 * finished run on 2023/06/20 at 18:28:23.740
