   * xtb version 6.5.1 (579679a) compiled by 'ehlert@majestix' on 2022-07-11
          program call               : /lustre/hpc/kemi/ree/PhD/git/ReactivityQM/dep/xtb-6.5.1/bin/xtb --gfn 1 /lustre/hpc/kemi/ree/PhD/git/ReactivityQM/calculations/R03/reac02prodE13/conf07/R03_reac02prodE13_conf07_gfn1.xyz --opt --vfukui --chrg -1 --uhf 0 --alpb DMSO

   ID    Z sym.   atoms
    1    6 C      1, 3, 5, 6, 8, 10, 12-16, 18, 20, 23, 24
    2    8 O      2, 4, 7, 9, 19, 25
    3    7 N      11, 17, 21, 22, 26
    4    1 H      27-46

      * Solvation model:               ALPB
        Solvent                        DMSO
        Solvent mass                       7.8130E+01 g/mol
          :  Hamiltonian                  GFN1-xTB          :
 * total energy  :   -86.9979186 Eh     change       -0.1790568E-10 Eh
 * total energy  :   -87.0127694 Eh     change       -0.1485076E-01 Eh
 * total energy  :   -87.0186963 Eh     change       -0.5926936E-02 Eh
 * total energy  :   -87.0199060 Eh     change       -0.1209634E-02 Eh
 * total energy  :   -87.0206512 Eh     change       -0.7452277E-03 Eh
 * total energy  :   -87.0210037 Eh     change       -0.3525365E-03 Eh
 * total energy  :   -87.0213196 Eh     change       -0.3158669E-03 Eh
 * total energy  :   -87.0216347 Eh     change       -0.3150605E-03 Eh
 * total energy  :   -87.0219096 Eh     change       -0.2749246E-03 Eh
 * total energy  :   -87.0220876 Eh     change       -0.1780156E-03 Eh
 * total energy  :   -87.0288697 Eh     change       -0.2686460E-04 Eh
 * total energy  :   -87.0288938 Eh     change       -0.2404091E-04 Eh
 * total energy  :   -87.0289239 Eh     change       -0.3012102E-04 Eh
 * total energy  :   -87.0289472 Eh     change       -0.2336420E-04 Eh
 * total energy  :   -87.0289624 Eh     change       -0.1517839E-04 Eh
 * total energy  :   -87.0289676 Eh     change       -0.5203730E-05 Eh
 * total energy  :   -87.0289768 Eh     change       -0.9128756E-05 Eh
 * total energy  :   -87.0289833 Eh     change       -0.6560946E-05 Eh
 * total energy  :   -87.0289883 Eh     change       -0.4988788E-05 Eh
   *** GEOMETRY OPTIMIZATION CONVERGED AFTER 97 ITERATIONS ***

 final structure:
================
46
 xtb: 6.5.1 (579679a)
C           -6.09514701063316       -1.34580620158318        1.49680181809607
O           -4.92558945097120       -1.08918040982811        0.73620920361740
C           -3.77541380771303       -0.82423231249278        1.50072579997875
O           -3.87076330595427       -0.83115391827351        2.73797992614566
C           -2.63064325945874       -0.54003712016767        0.73892293907453
C           -2.46490748557480       -0.64322622568511       -0.70248052126169
O           -3.41899549201262       -1.25170227256541       -1.48990356996651
C           -1.30233276494597       -0.26453697511887       -1.27115741388281
O           -0.95135369162543       -0.48461433653097       -2.60244975139957
C           -1.75206740322705        0.14869185204278       -3.58951052398416
N           -0.25619492037080        0.38737722511105       -0.51376018865677
C           -0.25091936380552        1.84743118230268       -0.76465874602103
C           -0.39189963311480        0.08282630059052        0.89526530658640
C            0.86787912336410        0.18604006333244        1.74580405249392
C            0.95013295256839       -1.04219994081909        2.66695920449858
C            0.83833871149200        1.47171124828830        2.58854297880492
N            2.02318722381894        0.19492631533911        0.84357892256127
C            3.29561862675045        0.28033017741645        1.24290161028673
O            3.68133178894604        0.39052375128074        2.40084512972848
C            4.26912298150889        0.21813127145864        0.11511838094004
N            5.56406958444834        0.24763298397672        0.19821887473203
N            6.04367477396934        0.13678054378228       -1.07476807395007
C            5.01221895505706        0.04610040001298       -1.85448379497788
C            5.00561787841141       -0.09397991546045       -3.32735884935443
O            3.85903043138010        0.09070880970684       -1.16627081048619
N           -1.46719863645210       -0.30011652003708        1.46036525716947
H           -5.97355358749905       -2.24280998372399        2.11565027949016
H           -6.91316393419917       -1.49969165989022        0.79324589187239
H           -6.33211285421650       -0.49791871167828        2.15016053046100
H           -4.23901614052535       -1.37598462675948       -0.98124388631969
H           -2.75675991805068       -0.28984077578892       -3.63663514618405
H           -1.25140755866044       -0.00170231061489       -4.54827036089870
H           -1.84548897382951        1.22556026226767       -3.40098430369992
H           -0.11452069544803        2.00716223702826       -1.83294307583902
H            0.58553926255367        2.29914623932285       -0.23346450855243
H           -1.18799274340514        2.31401739364314       -0.44255294340322
H            0.03396524823329       -1.10299256127645        3.25400415150218
H            1.80283735296570       -0.96592237202427        3.33968721443564
H            1.04618841903406       -1.94869185713688        2.07009477088035
H           -0.09634776615445        1.50510496962975        3.14737344769536
H            0.89513498700218        2.34827488140390        1.94587313921100
H            1.67247131422470        1.49609290368570        3.28845578542462
H            1.81771101588951        0.09543423907141       -0.14465617153645
H            4.52870212979764        0.77309743910994       -3.78405224882677
H            4.44347419328293       -0.98154734110158       -3.61687086902616
H            6.02754044314556       -0.17521534122967       -3.68896485744555

          :  Hamiltonian                  GFN1-xTB          :
         :: total energy             -87.028988306312 Eh    ::
         :: gradient norm              0.000574412720 Eh/a0 ::
         :: HOMO-LUMO gap              0.320678407142 eV    ::
         :: SCC energy               -87.821095700729 Eh    ::
         :: -> Gsolv                  -0.109858149585 Eh    ::
         :: repulsion energy           0.820903575871 Eh    ::

    * Orbital Energies and Occupations

         #    Occupation            Energy/Eh            Energy/eV
      -------------------------------------------------------------
         1        2.0000           -0.8580314             -23.3482
       ...           ...                  ...                  ...
        59        2.0000           -0.4633529             -12.6085
        60        2.0000           -0.4544166             -12.3653
        61        2.0000           -0.4521508             -12.3036
        62        2.0000           -0.4498469             -12.2410
        63        2.0000           -0.4434035             -12.0656
        64        2.0000           -0.4410504             -12.0016
        65        2.0000           -0.4323809             -11.7657
        66        2.0000           -0.4298016             -11.6955
        67        2.0000           -0.4061613             -11.0522
        68        2.0000           -0.4023494             -10.9485
        69        2.0000           -0.3813057             -10.3759
        70        2.0000           -0.3784819             -10.2990
        71        1.9960           -0.3104843              -8.4487 (HOMO)
        72        0.0040           -0.2986996              -8.1280 (LUMO)
        73                         -0.2510410              -6.8312
        74                         -0.2247955              -6.1170
        75                         -0.1958081              -5.3282
        76                         -0.1869072              -5.0860
        77                         -0.1405133              -3.8236
        78                         -0.1217877              -3.3140
        79                         -0.1105320              -3.0077
        80                         -0.1103651              -3.0032
        81                         -0.1051905              -2.8624
        82                         -0.1037361              -2.8228
       ...                                ...                  ...
       144                          0.7303398              19.8736
      -------------------------------------------------------------
                  HL-Gap            0.0117847 Eh            0.3207 eV

Wiberg/Mayer (AO) data.
largest (>0.10) Wiberg bond orders for each atom

     #   Z sym  total        # sym  WBO       # sym  WBO       # sym  WBO
 ---------------------------------------------------------------------------
     1   6 C    3.907 --    28 H    0.987    27 H    0.981    29 H    0.981
                             2 O    0.934
     2   8 O    2.097 --     1 C    0.934     3 C    0.933
     3   6 C    3.866 --     4 O    1.479     5 C    1.302     2 O    0.933
     4   8 O    1.786 --     3 C    1.479     5 C    0.110
     5   6 C    3.857 --     3 C    1.302    26 N    1.118     6 C    1.101
                             4 O    0.110
     6   6 C    3.901 --     8 C    1.646     5 C    1.101     7 O    1.005
     7   8 O    1.987 --     6 C    1.005    30 H    0.824
     8   6 C    3.836 --     6 C    1.646    11 N    0.960     9 O    0.951
     9   8 O    2.023 --     8 C    0.951    10 C    0.935
    10   6 C    3.916 --    32 H    0.986    33 H    0.982    31 H    0.980
                             9 O    0.935
    11   7 N    3.099 --    13 C    0.964     8 C    0.960    12 C    0.944
    12   6 C    3.970 --    34 H    0.985    36 H    0.985    35 H    0.984
                            11 N    0.944
    13   6 C    3.941 --    26 N    1.725    14 C    0.974    11 N    0.964
    14   6 C    3.924 --    15 C    0.986    16 C    0.982    13 C    0.974
                            17 N    0.916
    15   6 C    3.993 --    39 H    0.987    14 C    0.986    38 H    0.984
                            37 H    0.983
    16   6 C    3.993 --    40 H    0.986    41 H    0.983    42 H    0.982
                            14 C    0.982
    17   7 N    3.387 --    18 C    1.303    14 C    0.916    43 H    0.883
                            19 O    0.186
    18   6 C    3.923 --    19 O    1.555    17 N    1.303    20 C    0.984
    19   8 O    1.876 --    18 C    1.555    17 N    0.186
    20   6 C    3.866 --    21 N    1.625    25 O    1.048    18 C    0.984
    21   7 N    2.992 --    20 C    1.625    22 N    1.192
    22   7 N    2.980 --    23 C    1.617    21 N    1.192
    23   6 C    3.871 --    22 N    1.617    25 O    1.073    24 C    1.030
    24   6 C    3.988 --    23 C    1.030    46 H    0.983    45 H    0.966
                            44 H    0.963
    25   8 O    2.315 --    23 C    1.073    20 C    1.048
    26   7 N    3.058 --    13 C    1.725     5 C    1.118
    27   1 H    1.018 --     1 C    0.981
    28   1 H    1.017 --     1 C    0.987
    29   1 H    1.019 --     1 C    0.981
    30   1 H    0.886 --     7 O    0.824
    31   1 H    1.026 --    10 C    0.980
    32   1 H    1.019 --    10 C    0.986
    33   1 H    1.016 --    10 C    0.982
    34   1 H    1.017 --    12 C    0.985
    35   1 H    1.017 --    12 C    0.984
    36   1 H    1.011 --    12 C    0.985
    37   1 H    1.021 --    15 C    0.983
    38   1 H    1.012 --    15 C    0.984
    39   1 H    1.009 --    15 C    0.987
    40   1 H    1.010 --    16 C    0.986
    41   1 H    1.010 --    16 C    0.983
    42   1 H    1.013 --    16 C    0.982
    43   1 H    0.966 --    17 N    0.883
    44   1 H    0.997 --    24 C    0.963
    45   1 H    0.998 --    24 C    0.966
    46   1 H    0.999 --    24 C    0.983
 ---------------------------------------------------------------------------

           -------------------------------------------------
          | TOTAL ENERGY              -87.028988306312 Eh   |
          | GRADIENT NORM               0.000574412720 Eh/α |
          | HOMO-LUMO GAP               0.320678407142 eV   |
           -------------------------------------------------

 * finished run on 2023/06/20 at 15:34:28.898
