   * xtb version 6.5.1 (579679a) compiled by 'ehlert@majestix' on 2022-07-11
          program call               : /lustre/hpc/kemi/ree/PhD/git/ReactivityQM/dep/xtb-6.5.1/bin/xtb --gfn 1 /lustre/hpc/kemi/ree/PhD/git/ReactivityQM/calculations/RaltegravirCLI/reac02prodN10/conf06/RaltegravirCLI_reac02prodN10_conf06_gfn1.xyz --opt --vfukui --chrg 1 --uhf 0 --alpb DMSO

   ID    Z sym.   atoms
    1    6 C      1-5, 7, 9, 11-14, 17, 18, 20, 22-24
    2    7 N      6, 10, 15, 16
    3    8 O      8, 19, 21
    4    9 F      25
    5    1 H      26-47

      * Solvation model:               ALPB
        Solvent                        DMSO
        Solvent mass                       7.8130E+01 g/mol
          :  Hamiltonian                  GFN1-xTB          :
 * total energy  :   -79.4675600 Eh     change       -0.8242296E-12 Eh
 * total energy  :   -79.4764516 Eh     change       -0.8891588E-02 Eh
 * total energy  :   -79.4786382 Eh     change       -0.2186554E-02 Eh
 * total energy  :   -79.4789580 Eh     change       -0.3198086E-03 Eh
 * total energy  :   -79.4791917 Eh     change       -0.2336845E-03 Eh
 * total energy  :   -79.4792831 Eh     change       -0.9146656E-04 Eh
 * total energy  :   -79.4793596 Eh     change       -0.7644540E-04 Eh
 * total energy  :   -79.4794146 Eh     change       -0.5497946E-04 Eh
 * total energy  :   -79.4794590 Eh     change       -0.4444416E-04 Eh
 * total energy  :   -79.4795221 Eh     change       -0.6304393E-04 Eh
 * total energy  :   -79.4853037 Eh     change       -0.1208143E-04 Eh
 * total energy  :   -79.4853117 Eh     change       -0.7921984E-05 Eh
 * total energy  :   -79.4853209 Eh     change       -0.9264575E-05 Eh
 * total energy  :   -79.4853274 Eh     change       -0.6492018E-05 Eh
 * total energy  :   -79.4853356 Eh     change       -0.8164628E-05 Eh
 * total energy  :   -79.4853464 Eh     change       -0.1076193E-04 Eh
 * total energy  :   -79.4853556 Eh     change       -0.9295755E-05 Eh
 * total energy  :   -79.4853611 Eh     change       -0.5462771E-05 Eh
 * total energy  :   -79.4853656 Eh     change       -0.4462824E-05 Eh
   *** GEOMETRY OPTIMIZATION CONVERGED AFTER 81 ITERATIONS ***

 final structure:
================
47
 xtb: 6.5.1 (579679a)
C            4.72226668885363        2.37555896569866       -0.67834236167628
C            4.41283222221829        0.91505659976687       -1.10949657691073
C            3.47869284619438        0.23802416627913       -0.19123883568151
C            3.73459799836255       -0.99529136087482        0.34265859243886
C            2.76831188432259       -1.68540698410181        1.28437058507936
N            1.52465020246879       -0.96157413373054        1.40638647449253
C            0.47680413232545       -1.26423716895583        0.59757083130393
O            0.47881438851559       -2.23410335748581       -0.14177794502925
C           -0.68025621531290       -0.31775876390839        0.69748667175808
N           -1.89850598569079       -0.84119667628793        0.38156091154757
C           -2.97557532316420       -0.11709462505467        0.39609610747090
C           -4.26191503559563       -0.82550623095447       -0.01537612505045
C           -4.00905700826763       -2.34199803257836       -0.07215528130860
C           -4.69779082001102       -0.33082757264086       -1.40133436785069
N           -5.31843018866196       -0.55291487352567        0.95101205291631
N           -2.94274065739920        1.21699897755837        0.71183977576471
C           -4.11305626606331        2.09993066595124        0.71818550729616
C           -1.75200525604240        1.85239448427517        1.01383332259407
O           -1.68810623272351        3.05117386113839        1.27472121968591
C           -0.57743467743441        1.00554487392580        1.00589954068326
O            0.59008073920297        1.62850281454411        1.28708534400326
C            4.94680117877778       -1.64904715851568        0.03063102320565
C            5.88987098657833       -1.09020723393832       -0.82878204040356
C            5.63366601821856        0.14188129856756       -1.36968774988160
F            6.50559127513382        0.69599404720911       -2.17234707796473
H            5.39281258977168        2.82903912085159       -1.40500466971754
H            5.19157272588141        2.37158179725050        0.30243310890450
H            3.79392983063514        2.93876542768874       -0.63617393413801
H            3.89232284203813        1.02184801750940       -2.07843356769670
H            2.56716283914104        0.77336071856871        0.05434370530387
H            2.55015494598265       -2.68963925950495        0.90513865166611
H            3.23072069628524       -1.77522512936607        2.27043635747683
H            1.51974139210158       -0.13585452375557        1.97947146208842
H           -3.25775907238102       -2.57151753214449       -0.82666789755441
H           -4.93731840816673       -2.85239608529201       -0.32265827959285
H           -3.65693336875716       -2.69897305080903        0.89411867206723
H           -5.56053753367896       -0.90390870601402       -1.73796610733020
H           -3.88582349810170       -0.46466891190642       -2.11522047015460
H           -4.97132916426528        0.72160964292018       -1.37248923598419
H           -6.20014692040548       -0.91227354564652        0.61551337886973
H           -5.10538621748147       -0.97740085646383        1.84209997142059
H           -5.01350211260481        1.51910866507550        0.89824505450460
H           -4.17806871965803        2.61827723745650       -0.23873621442780
H           -3.97792693651457        2.83349283534295        1.51296145557355
H            0.38823039629712        2.56236074288612        1.49489002219811
H            5.15594519408977       -2.61401847646282        0.47951011821258
H            6.81403360499951       -1.60746471052279       -1.05576718016854

          :  Hamiltonian                  GFN1-xTB          :
         :: total energy             -79.485365573502 Eh    ::
         :: gradient norm              0.000420386155 Eh/a0 ::
         :: HOMO-LUMO gap              0.160514519504 eV    ::
         :: SCC energy               -80.368006157255 Eh    ::
         :: -> Gsolv                  -0.105741360338 Eh    ::
         :: repulsion energy           0.912749569264 Eh    ::

    * Orbital Energies and Occupations

         #    Occupation            Energy/Eh            Energy/eV
      -------------------------------------------------------------
         1        2.0000           -0.9436598             -25.6783
       ...           ...                  ...                  ...
        55        2.0000           -0.5201042             -14.1528
        56        2.0000           -0.5164792             -14.0541
        57        2.0000           -0.5086890             -13.8421
        58        2.0000           -0.5013829             -13.6433
        59        2.0000           -0.4996947             -13.5974
        60        2.0000           -0.4927197             -13.4076
        61        2.0000           -0.4780465             -13.0083
        62        2.0000           -0.4739011             -12.8955
        63        2.0000           -0.4605859             -12.5332
        64        2.0000           -0.4559553             -12.4072
        65        2.0000           -0.4433625             -12.0645
        66        2.0000           -0.4297816             -11.6950
        67        1.9142           -0.4221970             -11.4886 (HOMO)
        68        0.0859           -0.4162982             -11.3281 (LUMO)
        69                         -0.3249877              -8.8434
        70                         -0.3188277              -8.6757
        71                         -0.2825099              -7.6875
        72                         -0.2469335              -6.7194
        73                         -0.2414244              -6.5695
        74                         -0.1620300              -4.4091
        75                         -0.1572136              -4.2780
        76                         -0.1518324              -4.1316
        77                         -0.1471539              -4.0043
        78                         -0.1391918              -3.7876
       ...                                ...                  ...
       144                          0.7085766              19.2814
      -------------------------------------------------------------
                  HL-Gap            0.0058988 Eh            0.1605 eV

Wiberg/Mayer (AO) data.
largest (>0.10) Wiberg bond orders for each atom

     #   Z sym  total        # sym  WBO       # sym  WBO       # sym  WBO
 ---------------------------------------------------------------------------
     1   6 C    3.955 --    27 H    0.985    28 H    0.983    26 H    0.981
                             2 C    0.906
     2   6 C    3.986 --     3 C    1.081    24 C    1.066     1 C    0.906
                            29 H    0.851
     3   6 C    3.919 --     4 C    1.563     2 C    1.081    30 H    0.957
     4   6 C    3.982 --     3 C    1.563    22 C    1.305     5 C    0.995
     5   6 C    3.953 --     4 C    0.995     6 N    0.969    32 H    0.958
                            31 H    0.955
     6   7 N    3.322 --     7 C    1.226     5 C    0.969    33 H    0.888
                             8 O    0.164
     7   6 C    3.899 --     8 O    1.607     6 N    1.226     9 C    0.986
     8   8 O    1.896 --     7 C    1.607     6 N    0.164
     9   6 C    3.966 --    20 C    1.510    10 N    1.204     7 C    0.986
    10   7 N    3.027 --    11 C    1.555     9 C    1.204
    11   6 C    3.921 --    10 N    1.555    16 N    1.182    12 C    0.974
    12   6 C    3.955 --    13 C    0.984    14 C    0.984    15 N    0.980
                            11 C    0.974
    13   6 C    3.980 --    35 H    0.985    36 H    0.984    12 C    0.984
                            34 H    0.982
    14   6 C    3.992 --    38 H    0.985    12 C    0.984    37 H    0.982
                            39 H    0.982
    15   7 N    2.964 --    12 C    0.980    41 H    0.932    40 H    0.930
    16   7 N    3.517 --    11 C    1.182    18 C    1.131    17 C    0.925
                            19 O    0.132
    17   6 C    3.911 --    44 H    0.976    43 H    0.975    42 H    0.965
                            16 N    0.925
    18   6 C    3.917 --    19 O    1.544    16 N    1.131    20 C    1.093
    19   8 O    1.890 --    18 C    1.544    16 N    0.132
    20   6 C    3.913 --     9 C    1.510    18 C    1.093    21 O    1.062
    21   8 O    2.061 --    20 C    1.062    45 H    0.800
    22   6 C    3.898 --    23 C    1.403     4 C    1.305    46 H    0.965
    23   6 C    3.981 --    24 C    1.469    22 C    1.403    47 H    0.956
    24   6 C    3.803 --    23 C    1.469     2 C    1.066    25 F    1.027
    25   9 F    1.189 --    24 C    1.027
    26   1 H    0.996 --     1 C    0.981
    27   1 H    0.994 --     1 C    0.985
    28   1 H    0.993 --     1 C    0.983
    29   1 H    0.971 --     2 C    0.851
    30   1 H    1.006 --     3 C    0.957
    31   1 H    1.006 --     5 C    0.955
    32   1 H    0.997 --     5 C    0.958
    33   1 H    0.937 --     6 N    0.888
    34   1 H    1.010 --    13 C    0.982
    35   1 H    1.002 --    13 C    0.985
    36   1 H    1.009 --    13 C    0.984
    37   1 H    0.999 --    14 C    0.982
    38   1 H    1.002 --    14 C    0.985
    39   1 H    1.002 --    14 C    0.982
    40   1 H    0.945 --    15 N    0.930
    41   1 H    0.948 --    15 N    0.932
    42   1 H    1.022 --    17 C    0.965
    43   1 H    1.002 --    17 C    0.975
    44   1 H    1.007 --    17 C    0.976
    45   1 H    0.843 --    21 O    0.800
    46   1 H    0.990 --    22 C    0.965
    47   1 H    0.985 --    23 C    0.956
 ---------------------------------------------------------------------------

           -------------------------------------------------
          | TOTAL ENERGY              -79.485365573502 Eh   |
          | GRADIENT NORM               0.000420386155 Eh/α |
          | HOMO-LUMO GAP               0.160514519504 eV   |
           -------------------------------------------------

 * finished run on 2023/06/20 at 15:30:04.314
