   * xtb version 6.5.1 (579679a) compiled by 'ehlert@majestix' on 2022-07-11
          program call               : /lustre/hpc/kemi/ree/PhD/git/ReactivityQM/dep/xtb-6.5.1/bin/xtb --gfn 1 /lustre/hpc/kemi/ree/PhD/git/ReactivityQM/calculations/R02oxygendeprot/reac01prodN13/conf15/R02oxygendeprot_reac01prodN13_conf15_gfn1.xyz --opt --vfukui --chrg 0 --uhf 0 --alpb DMSO

   ID    Z sym.   atoms
    1    6 C      1, 3, 5, 7-10, 12, 14, 17-19, 22, 24
    2    8 O      2, 4, 13, 20, 23, 25
    3    7 N      6, 11, 15, 16, 21
    4    1 H      26-42

      * Solvation model:               ALPB
        Solvent                        DMSO
        Solvent mass                       7.8130E+01 g/mol
          :  Hamiltonian                  GFN1-xTB          :
 * total energy  :   -82.9254487 Eh     change       -0.1485034E-10 Eh
 * total energy  :   -82.9354442 Eh     change       -0.9995547E-02 Eh
 * total energy  :   -82.9394219 Eh     change       -0.3977656E-02 Eh
 * total energy  :   -82.9401095 Eh     change       -0.6875581E-03 Eh
 * total energy  :   -82.9406684 Eh     change       -0.5589689E-03 Eh
 * total energy  :   -82.9410009 Eh     change       -0.3324300E-03 Eh
 * total energy  :   -82.9412664 Eh     change       -0.2655725E-03 Eh
 * total energy  :   -82.9414713 Eh     change       -0.2048620E-03 Eh
 * total energy  :   -82.9416264 Eh     change       -0.1550804E-03 Eh
 * total energy  :   -82.9417246 Eh     change       -0.9824408E-04 Eh
 * total energy  :   -82.9425527 Eh     change       -0.1393933E-04 Eh
 * total energy  :   -82.9425627 Eh     change       -0.9941324E-05 Eh
 * total energy  :   -82.9425773 Eh     change       -0.1457447E-04 Eh
 * total energy  :   -82.9425914 Eh     change       -0.1415873E-04 Eh
 * total energy  :   -82.9426007 Eh     change       -0.9252697E-05 Eh
 * total energy  :   -82.9426088 Eh     change       -0.8101999E-05 Eh
 * total energy  :   -82.9426179 Eh     change       -0.9112599E-05 Eh
 * total energy  :   -82.9426261 Eh     change       -0.8202620E-05 Eh
 * total energy  :   -82.9426309 Eh     change       -0.4855147E-05 Eh
   *** GEOMETRY OPTIMIZATION CONVERGED AFTER 37 ITERATIONS ***

 final structure:
================
42
 xtb: 6.5.1 (579679a)
C            6.20003426502057        2.47052119544343       -0.82672627631924
O            5.27799824559271        1.71240427001790       -0.04278483491393
C            4.30863456982941        1.08639944083378       -0.71173848390724
O            4.20063326278226        1.14367214336586       -1.91995640926797
C            3.37682138446031        0.31617414418005        0.15231288882333
N            2.35106956829575       -0.23333876642159       -0.52792193416518
C            1.44086339377724       -0.94417856097853        0.07735754950400
C            0.31468367971663       -1.54750895216263       -0.74479593914599
C            0.50959541535985       -1.18789385068315       -2.21806399497981
C            0.25798339476916       -3.06971913863118       -0.57566223377418
N           -0.95418441295499       -0.93003673803844       -0.32229676718247
C           -1.60655189252021       -1.17584015018532        0.82863232890250
O           -1.23704502390530       -1.91826592769647        1.72764387766809
C           -2.87306554405345       -0.41363012544529        0.93075404601938
N           -3.72234184973804       -0.45898938954175        1.96870303312936
N           -4.70248543681540        0.33171831063806        1.72986126471777
C           -4.50990771865001        0.95440034464676        0.44722371182088
C           -5.63692768844386        0.56812997776946       -0.51271541435698
C           -4.36795715687623        2.47033172774037        0.60585285166947
O           -3.27234147908441        0.40519803723201       -0.01691331188235
N            1.47325925533471       -1.15676251362089        1.41384244348621
C            2.44286433397196       -0.64484434942098        2.25757424290223
O            2.39139088657193       -0.85979707103004        3.45292347586090
C            3.52920467106369        0.16488876319537        1.57727126704385
O            4.44233866346236        0.63346945435562        2.25275286079642
H            6.92905971946199        2.88915078149833       -0.13558859588451
H            6.69567638122984        1.82515898454158       -1.55639023894367
H            5.67597649519585        3.27112857177103       -1.35459704631105
H            0.53772647798585       -0.10660098502633       -2.34303031045315
H            1.45133525924928       -1.60276938865854       -2.57375970224810
H           -0.30721276553463       -1.59743512526907       -2.80818632227853
H            1.17166594844200       -3.50608352770973       -0.97662706488212
H            0.16196206119110       -3.35264605454892        0.46995746897681
H           -0.59478964717586       -3.46171969007359       -1.12673978859400
H           -1.38026189986482       -0.28939112426789       -0.97244071790285
H           -6.58088830993507        0.94190516114529       -0.12403704718745
H           -5.67985408453103       -0.51519834858017       -0.60122172953776
H           -5.44059390340097        1.00509761350128       -1.48862850831745
H           -3.56795704775450        2.68566664333576        1.31138655998690
H           -5.30411787540148        2.88077816115379        0.97568373059038
H           -4.12836937083251        2.90794952778844       -0.36015691852855
H            0.72607677473432       -1.69149347617032        1.84863398909812

          :  Hamiltonian                  GFN1-xTB          :
         :: total energy             -82.942630944068 Eh    ::
         :: gradient norm              0.000693961990 Eh/a0 ::
         :: HOMO-LUMO gap              0.051293885464 eV    ::
         :: SCC energy               -83.707177684885 Eh    ::
         :: -> Gsolv                  -0.069422446275 Eh    ::
         :: repulsion energy           0.790213314178 Eh    ::

    * Orbital Energies and Occupations

         #    Occupation            Energy/Eh            Energy/eV
      -------------------------------------------------------------
         1        2.0000           -0.8812780             -23.9808
       ...           ...                  ...                  ...
        55        2.0000           -0.5158897             -14.0381
        56        2.0000           -0.5109449             -13.9035
        57        2.0000           -0.5075984             -13.8125
        58        2.0000           -0.5032672             -13.6946
        59        2.0000           -0.4912437             -13.3674
        60        2.0000           -0.4857635             -13.2183
        61        2.0000           -0.4825115             -13.1298
        62        2.0000           -0.4762031             -12.9581
        63        2.0000           -0.4732300             -12.8772
        64        2.0000           -0.4668461             -12.7035
        65        2.0000           -0.4575240             -12.4499
        66        2.0000           -0.4233840             -11.5209
        67        1.4590           -0.4075773             -11.0907 (HOMO)
        68        0.5410           -0.4056923             -11.0395 (LUMO)
        69                         -0.3227462              -8.7824
        70                         -0.3094826              -8.4215
        71                         -0.2849297              -7.7533
        72                         -0.2350125              -6.3950
        73                         -0.2231836              -6.0731
        74                         -0.1572144              -4.2780
        75                         -0.1431549              -3.8954
        76                         -0.1377107              -3.7473
        77                         -0.1341410              -3.6502
        78                         -0.1322205              -3.5979
       ...                                ...                  ...
       134                          0.7471368              20.3306
      -------------------------------------------------------------
                  HL-Gap            0.0018850 Eh            0.0513 eV

Wiberg/Mayer (AO) data.
largest (>0.10) Wiberg bond orders for each atom

     #   Z sym  total        # sym  WBO       # sym  WBO       # sym  WBO
 ---------------------------------------------------------------------------
     1   6 C    3.875 --    26 H    0.986    27 H    0.979    28 H    0.979
                             2 O    0.902
     2   8 O    2.194 --     3 C    1.109     1 C    0.902     4 O    0.132
     3   6 C    3.842 --     4 O    1.635     2 O    1.109     5 C    1.021
     4   8 O    1.879 --     3 C    1.635     2 O    0.132
     5   6 C    3.714 --     6 N    1.305    24 C    1.159     3 C    1.021
     6   7 N    2.984 --     7 C    1.465     5 C    1.305
     7   6 C    3.791 --     6 N    1.465    21 N    1.212     8 C    0.969
     8   6 C    3.925 --     9 C    1.001    10 C    0.984     7 C    0.969
                            11 N    0.909
     9   6 C    3.988 --     8 C    1.001    31 H    0.984    29 H    0.982
                            30 H    0.982
    10   6 C    3.980 --     8 C    0.984    32 H    0.984    34 H    0.982
                            33 H    0.978
    11   7 N    3.341 --    12 C    1.269     8 C    0.909    35 H    0.887
                            13 O    0.187
    12   6 C    3.909 --    13 O    1.553    11 N    1.269    14 C    0.999
    13   8 O    1.892 --    12 C    1.553    11 N    0.187
    14   6 C    3.628 --    15 N    1.316    20 O    1.169    12 C    0.999
    15   7 N    3.000 --    16 N    1.543    14 C    1.316
    16   7 N    2.686 --    15 N    1.543    17 C    1.023
    17   6 C    3.834 --    16 N    1.023    18 C    0.940    19 C    0.939
                            20 O    0.870
    18   6 C    3.938 --    37 H    0.982    36 H    0.982    38 H    0.980
                            17 C    0.940
    19   6 C    3.938 --    39 H    0.982    40 H    0.982    41 H    0.980
                            17 C    0.939
    20   8 O    2.194 --    14 C    1.169    17 C    0.870
    21   7 N    3.432 --     7 C    1.212    22 C    1.112    42 H    0.854
                            23 O    0.110
    22   6 C    3.840 --    23 O    1.650    21 N    1.112    24 C    0.948
    23   8 O    1.868 --    22 C    1.650    21 N    0.110
    24   6 C    3.862 --    25 O    1.616     5 C    1.159    22 C    0.948
    25   8 O    1.791 --    24 C    1.616
    26   1 H    1.011 --     1 C    0.986
    27   1 H    1.007 --     1 C    0.979
    28   1 H    1.007 --     1 C    0.979
    29   1 H    1.005 --     9 C    0.982
    30   1 H    1.005 --     9 C    0.982
    31   1 H    0.998 --     9 C    0.984
    32   1 H    0.999 --    10 C    0.984
    33   1 H    1.007 --    10 C    0.978
    34   1 H    0.998 --    10 C    0.982
    35   1 H    0.930 --    11 N    0.887
    36   1 H    0.997 --    18 C    0.982
    37   1 H    0.996 --    18 C    0.982
    38   1 H    0.996 --    18 C    0.980
    39   1 H    0.997 --    19 C    0.982
    40   1 H    0.997 --    19 C    0.982
    41   1 H    0.996 --    19 C    0.980
    42   1 H    0.933 --    21 N    0.854
 ---------------------------------------------------------------------------

           -------------------------------------------------
          | TOTAL ENERGY              -82.942630944068 Eh   |
          | GRADIENT NORM               0.000693961990 Eh/α |
          | HOMO-LUMO GAP               0.051293885464 eV   |
           -------------------------------------------------

 * finished run on 2023/06/21 at 17:29:08.870
