   * xtb version 6.5.1 (579679a) compiled by 'ehlert@majestix' on 2022-07-11
          program call               : /lustre/hpc/kemi/ree/PhD/git/ReactivityQM/dep/xtb-6.5.1/bin/xtb --gfn 1 /lustre/hpc/kemi/ree/PhD/git/ReactivityQM/calculations/R03/reac02prodN19/conf19/R03_reac02prodN19_conf19_gfn1.xyz --opt --vfukui --chrg 1 --uhf 0 --alpb DMSO

   ID    Z sym.   atoms
    1    6 C      1, 3, 5, 7-10, 12, 14, 17, 18, 21, 22, 24, 25
    2    8 O      2, 4, 13, 19, 23, 26
    3    7 N      6, 11, 15, 16, 20
    4    1 H      27-46

      * Solvation model:               ALPB
        Solvent                        DMSO
        Solvent mass                       7.8130E+01 g/mol
          :  Hamiltonian                  GFN1-xTB          :
 * total energy  :   -86.3247520 Eh     change       -0.1413980E-10 Eh
 * total energy  :   -86.3466711 Eh     change       -0.2191909E-01 Eh
 * total energy  :   -86.3552337 Eh     change       -0.8562577E-02 Eh
 * total energy  :   -86.3574618 Eh     change       -0.2228078E-02 Eh
 * total energy  :   -86.3587955 Eh     change       -0.1333692E-02 Eh
 * total energy  :   -86.3593751 Eh     change       -0.5796139E-03 Eh
 * total energy  :   -86.3598217 Eh     change       -0.4466184E-03 Eh
 * total energy  :   -86.3602402 Eh     change       -0.4184829E-03 Eh
 * total energy  :   -86.3606617 Eh     change       -0.4215401E-03 Eh
 * total energy  :   -86.3610142 Eh     change       -0.3525052E-03 Eh
 * total energy  :   -86.3638254 Eh     change       -0.1678605E-04 Eh
 * total energy  :   -86.3638441 Eh     change       -0.1869217E-04 Eh
 * total energy  :   -86.3638597 Eh     change       -0.1552815E-04 Eh
 * total energy  :   -86.3638750 Eh     change       -0.1529367E-04 Eh
 * total energy  :   -86.3638913 Eh     change       -0.1630996E-04 Eh
 * total energy  :   -86.3639052 Eh     change       -0.1389488E-04 Eh
 * total energy  :   -86.3639142 Eh     change       -0.9079565E-05 Eh
 * total energy  :   -86.3639217 Eh     change       -0.7476884E-05 Eh
 * total energy  :   -86.3639253 Eh     change       -0.3619381E-05 Eh
   *** GEOMETRY OPTIMIZATION CONVERGED AFTER 44 ITERATIONS ***

 final structure:
================
46
 xtb: 6.5.1 (579679a)
C           -4.19387664266585        3.98107999899115        0.61618985212067
O           -3.29433783261096        2.86021976251910        0.61182388169323
C           -3.53241713763741        1.91250921394413       -0.26335861590115
O           -4.45191208253502        1.92412317251601       -1.05820521006356
C           -2.55679515021316        0.78032149365512       -0.20916672732827
N           -1.55640205085038        0.83885949213704        0.67953524664266
C           -0.67102292194276       -0.11469217302322        0.76979839097202
C            0.39889426322926        0.07379376988721        1.83264740113888
C            0.42806577997293        1.54824842147075        2.26325816035385
C            0.10382178182140       -0.81484741758542        3.04667513754462
N            1.71184943470176       -0.26447742053362        1.28863378365815
C            2.05873117940963        0.16008152260664        0.04728507414178
O            1.26532622637448        0.63723174874185       -0.74583909320429
C            3.48651483262345       -0.07895724293888       -0.24038383754329
N            4.37425192881283       -0.54761454368957        0.58527461112075
N            5.54940809351000       -0.60554191572935       -0.09520649754411
C            5.30629390642386       -0.16920362976162       -1.29626455187709
C            6.25538790331393       -0.03307261117211       -2.42234137319635
O            4.02122874009313        0.18036755697899       -1.44713193742850
N           -0.78055445246852       -1.23817540732481       -0.01044413448292
C            0.12602684965397       -2.38793486395922        0.06984792240249
C           -1.74451756425782       -1.34324164943936       -0.95130867021847
O           -1.69683794583440       -2.45521857255066       -1.64831712636609
C           -2.62041362393076       -2.78454638034420       -2.69966919101849
C           -2.68982807797255       -0.29491777967967       -1.07965529776836
O           -3.64939235456437       -0.38469484514453       -1.99296432726568
H           -4.15212628068742        4.48847041104906       -0.34938361762564
H           -3.85822433866653        4.64057021726014        1.41310055119380
H           -5.21148595016503        3.63390193725563        0.80348294310540
H            1.24443784016774        1.69768099492170        2.96697896268634
H           -0.51198278893273        1.81562925668797        2.74132868929174
H            0.57983304501521        2.18714492810256        1.39446769285866
H           -0.87863073439383       -0.56782866937586        3.44572867731933
H            0.12004562422400       -1.86947762927388        2.78390234276545
H            0.85285695220243       -0.63373984755617        3.81546911693601
H            2.43339857707390       -0.54061282874370        1.93697820773401
H            7.21033648315412       -0.47899706363898       -2.15501220754056
H            6.40054744724415        1.02150773881407       -2.65942333683827
H            5.85184350921503       -0.52502893850130       -3.30689095658457
H            0.63947857812145       -2.48515443153922       -0.88617660242875
H            0.84425438083833       -2.24930870466469        0.86672379974321
H           -0.47295612450227       -3.27836811401468        0.25217571858622
H           -2.57194635076262       -2.03976550334175       -3.49452424865223
H           -3.63414045153305       -2.85346840817018       -2.30451514150530
H           -2.29238886322487       -3.75501369730196       -3.07000835199696
H           -4.24064463684554        0.41215765147485       -1.94683010963228

          :  Hamiltonian                  GFN1-xTB          :
         :: total energy             -86.363925335967 Eh    ::
         :: gradient norm              0.000395105133 Eh/a0 ::
         :: HOMO-LUMO gap              2.340157019487 eV    ::
         :: SCC energy               -87.191262049512 Eh    ::
         :: -> Gsolv                  -0.096254048001 Eh    ::
         :: repulsion energy           0.856693195893 Eh    ::

    * Orbital Energies and Occupations

         #    Occupation            Energy/Eh            Energy/eV
      -------------------------------------------------------------
         1        2.0000           -0.8902797             -24.2257
       ...           ...                  ...                  ...
        58        2.0000           -0.5269630             -14.3394
        59        2.0000           -0.5234622             -14.2441
        60        2.0000           -0.5185333             -14.1100
        61        2.0000           -0.5157948             -14.0355
        62        2.0000           -0.5146237             -14.0036
        63        2.0000           -0.5086839             -13.8420
        64        2.0000           -0.4952061             -13.4752
        65        2.0000           -0.4854412             -13.2095
        66        2.0000           -0.4824455             -13.1280
        67        2.0000           -0.4750755             -12.9275
        68        2.0000           -0.4716654             -12.8347
        69        2.0000           -0.4629633             -12.5979
        70        2.0000           -0.4600935             -12.5198 (HOMO)
        71                         -0.3740943             -10.1796 (LUMO)
        72                         -0.3289774              -8.9519
        73                         -0.3264842              -8.8841
        74                         -0.2847548              -7.7486
        75                         -0.2654671              -7.2237
        76                         -0.2134434              -5.8081
        77                         -0.2000549              -5.4438
        78                         -0.1653298              -4.4989
        79                         -0.1540584              -4.1921
        80                         -0.1480992              -4.0300
        81                         -0.1469495              -3.9987
       ...                                ...                  ...
       144                          0.6938968              18.8819
      -------------------------------------------------------------
                  HL-Gap            0.0859992 Eh            2.3402 eV

Wiberg/Mayer (AO) data.
largest (>0.10) Wiberg bond orders for each atom

     #   Z sym  total        # sym  WBO       # sym  WBO       # sym  WBO
 ---------------------------------------------------------------------------
     1   6 C    3.849 --    28 H    0.985    29 H    0.977    27 H    0.977
                             2 O    0.876
     2   8 O    2.243 --     3 C    1.173     1 C    0.876     4 O    0.141
     3   6 C    3.856 --     4 O    1.621     2 O    1.173     5 C    0.987
     4   8 O    1.970 --     3 C    1.621     2 O    0.141
     5   6 C    3.969 --    25 C    1.373     6 N    1.300     3 C    0.987
     6   7 N    3.051 --     7 C    1.498     5 C    1.300
     7   6 C    3.911 --     6 N    1.498    20 N    1.180     8 C    0.980
     8   6 C    3.934 --     9 C    0.985     7 C    0.980    10 C    0.979
                            11 N    0.932
     9   6 C    3.986 --     8 C    0.985    30 H    0.984    31 H    0.983
                            32 H    0.982
    10   6 C    3.985 --    33 H    0.982    34 H    0.980    35 H    0.979
                             8 C    0.979
    11   7 N    3.326 --    12 C    1.224     8 C    0.932    36 H    0.887
                            13 O    0.166
    12   6 C    3.912 --    13 O    1.594    11 N    1.224    14 C    1.003
    13   8 O    1.909 --    12 C    1.594    11 N    0.166
    14   6 C    3.880 --    15 N    1.601    19 O    1.063    12 C    1.003
    15   7 N    3.018 --    14 C    1.601    16 N    1.211
    16   7 N    2.982 --    17 C    1.594    15 N    1.211
    17   6 C    3.867 --    16 N    1.594    19 O    1.086    18 C    1.033
    18   6 C    3.985 --    17 C    1.033    37 H    0.982    39 H    0.965
                            38 H    0.959
    19   8 O    2.333 --    17 C    1.086    14 C    1.063
    20   7 N    3.582 --    22 C    1.266     7 C    1.180    21 C    0.913
    21   6 C    3.895 --    41 H    0.974    42 H    0.970    40 H    0.967
                            20 N    0.913
    22   6 C    3.895 --    20 N    1.266    25 C    1.214    23 O    1.162
    23   8 O    2.249 --    22 C    1.162    24 C    0.861
    24   6 C    3.829 --    45 H    0.981    43 H    0.976    44 H    0.976
                            23 O    0.861
    25   6 C    3.933 --     5 C    1.373    22 C    1.214    26 O    1.133
    26   8 O    2.095 --    25 C    1.133    46 H    0.744
    27   1 H    1.002 --     1 C    0.977
    28   1 H    1.007 --     1 C    0.985
    29   1 H    1.002 --     1 C    0.977
    30   1 H    0.999 --     9 C    0.984
    31   1 H    1.007 --     9 C    0.983
    32   1 H    1.004 --     9 C    0.982
    33   1 H    0.998 --    10 C    0.982
    34   1 H    0.998 --    10 C    0.980
    35   1 H    0.994 --    10 C    0.979
    36   1 H    0.937 --    11 N    0.887
    37   1 H    0.997 --    18 C    0.982
    38   1 H    0.996 --    18 C    0.959
    39   1 H    0.996 --    18 C    0.965
    40   1 H    0.996 --    21 C    0.967
    41   1 H    1.006 --    21 C    0.974
    42   1 H    0.996 --    21 C    0.970
    43   1 H    1.006 --    24 C    0.976
    44   1 H    1.006 --    24 C    0.976
    45   1 H    1.005 --    24 C    0.981
    46   1 H    0.828 --    26 O    0.744
 ---------------------------------------------------------------------------

           -------------------------------------------------
          | TOTAL ENERGY              -86.363925335967 Eh   |
          | GRADIENT NORM               0.000395105133 Eh/α |
          | HOMO-LUMO GAP               2.340157019487 eV   |
           -------------------------------------------------

 * finished run on 2023/06/20 at 15:56:19.931
