   * xtb version 6.5.1 (579679a) compiled by 'ehlert@majestix' on 2022-07-11
          program call               : /lustre/hpc/kemi/ree/PhD/git/ReactivityQM/dep/xtb-6.5.1/bin/xtb --gfn 1 /lustre/hpc/kemi/ree/PhD/git/ReactivityQM/calculations/R02methylcation/reac01prodN01/conf08/R02methylcation_reac01prodN01_conf08_gfn1.xyz --opt --vfukui --chrg 0 --uhf 0 --alpb DMSO

   ID    Z sym.   atoms
    1    6 C      1, 3, 5, 7-10, 12, 14, 17, 18, 20, 22, 24
    2    8 O      2, 4, 13, 19, 23, 25
    3    7 N      6, 11, 15, 16, 21
    4    1 H      26-42

      * Solvation model:               ALPB
        Solvent                        DMSO
        Solvent mass                       7.8130E+01 g/mol
          :  Hamiltonian                  GFN1-xTB          :
 * total energy  :   -82.8789072 Eh     change       -0.2089706E-09 Eh
 * total energy  :   -82.8964672 Eh     change       -0.1756004E-01 Eh
 * total energy  :   -82.9051633 Eh     change       -0.8696085E-02 Eh
 * total energy  :   -82.9077187 Eh     change       -0.2555404E-02 Eh
 * total energy  :   -82.9093799 Eh     change       -0.1661241E-02 Eh
 * total energy  :   -82.9102571 Eh     change       -0.8771699E-03 Eh
 * total energy  :   -82.9109788 Eh     change       -0.7216991E-03 Eh
 * total energy  :   -82.9115856 Eh     change       -0.6068190E-03 Eh
 * total energy  :   -82.9120397 Eh     change       -0.4540474E-03 Eh
 * total energy  :   -82.9123251 Eh     change       -0.2854043E-03 Eh
 * total energy  :   -82.9144434 Eh     change       -0.7847657E-05 Eh
 * total energy  :   -82.9144520 Eh     change       -0.8585902E-05 Eh
 * total energy  :   -82.9144600 Eh     change       -0.8017921E-05 Eh
 * total energy  :   -82.9144671 Eh     change       -0.7061145E-05 Eh
 * total energy  :   -82.9144730 Eh     change       -0.5968857E-05 Eh
 * total energy  :   -82.9144788 Eh     change       -0.5771399E-05 Eh
 * total energy  :   -82.9144844 Eh     change       -0.5640877E-05 Eh
 * total energy  :   -82.9144895 Eh     change       -0.5036268E-05 Eh
 * total energy  :   -82.9144937 Eh     change       -0.4211440E-05 Eh
   *** GEOMETRY OPTIMIZATION CONVERGED AFTER 53 ITERATIONS ***

 final structure:
================
42
 xtb: 6.5.1 (579679a)
C           -6.62403878991849       -1.57173940015324       -0.02681781279767
O           -5.45532778196422       -1.05344216379120        0.59472322724104
C           -4.49197803244306       -0.60114536582017       -0.24401737401755
O           -4.64598976002416       -0.65181412766749       -1.45835570841814
C           -3.30967588852061       -0.06511041891352        0.41772096815139
N           -2.36355291944651        0.39876372593264       -0.47793551662302
C           -1.27172580195305        0.91560226342462       -0.05945907446479
C           -0.27458319684498        1.49861308841423       -1.03782548782490
C           -0.47076612666625        3.01560346340978       -1.12575911014485
C           -0.43155136872404        0.84348527678157       -2.41153332524113
N            1.09490186667865        1.27645087764043       -0.53317348216855
C            1.60047745328723        0.06657074939762       -0.28275649638964
O            1.02958738154587       -1.00450729638350       -0.37164761858688
C            3.02573327138120        0.16540284176291        0.16365039676356
N            3.74049869308439        1.20758595830062        0.37066806252901
N            4.98829280657753        0.81555135502860        0.76964942453499
C            5.03321192340296       -0.46099875966422        0.80395260306484
C            6.15257258120308       -1.34419362036669        1.16501273377529
O            3.78697514838535       -0.97618520647003        0.42171790488095
C            3.34725953418504       -2.36635663665755        0.29252765231757
N           -0.98954165922957        1.05246906654027        1.28429697255753
C           -1.81901696783314        0.60592753622681        2.28282656990053
O           -1.47964246941484        0.73224545832776        3.45589705421718
C           -3.12503063351785       -0.00847709680110        1.82509390521085
O           -3.92411755504870       -0.40955606831645        2.68909214962328
H           -7.10869028835569       -0.80453512264543       -0.63891634735324
H           -6.37621621332075       -2.42633908034047       -0.66408078710310
H           -7.29671497560946       -1.88776528842703        0.76984812207323
H           -0.34267786061248        3.46758172390957       -0.14353669517324
H           -1.47538865420110        3.23190835233549       -1.48680208256796
H            0.25301938206464        3.44982646994943       -1.81286664185867
H           -0.25899369096962       -0.22894976060406       -2.33990170188673
H           -1.44779391912732        1.01149391887502       -2.76743198546004
H            0.27619859597816        1.27502793367621       -3.11601422503138
H            1.70507464215216        2.07310010103082       -0.46173147879985
H            7.01339660992576       -0.72615645453167        1.41394213273323
H            5.89043950247043       -1.96537639401872        2.02199140111146
H            6.40578928692179       -1.99981212509911        0.33162004895112
H            2.54858257741639       -2.52563767262710        1.01480278002777
H            4.21218115235648       -2.98664922688441        0.50259984399236
H            2.99437552216955       -2.50035766445398       -0.72777122251500
H           -0.11555437744159        1.46189578967307        1.56330622076366

          :  Hamiltonian                  GFN1-xTB          :
         :: total energy             -82.914493694355 Eh    ::
         :: gradient norm              0.000194496514 Eh/a0 ::
         :: HOMO-LUMO gap              0.290504046824 eV    ::
         :: SCC energy               -83.698198205653 Eh    ::
         :: -> Gsolv                  -0.131314556146 Eh    ::
         :: repulsion energy           0.809858951215 Eh    ::

    * Orbital Energies and Occupations

         #    Occupation            Energy/Eh            Energy/eV
      -------------------------------------------------------------
         1        2.0000           -0.9641379             -26.2355
       ...           ...                  ...                  ...
        55        2.0000           -0.5062072             -13.7746
        56        2.0000           -0.5040292             -13.7153
        57        2.0000           -0.4958889             -13.4938
        58        2.0000           -0.4898548             -13.3296
        59        2.0000           -0.4846997             -13.1894
        60        2.0000           -0.4710632             -12.8183
        61        2.0000           -0.4673296             -12.7167
        62        2.0000           -0.4614970             -12.5580
        63        2.0000           -0.4452703             -12.1164
        64        2.0000           -0.4398082             -11.9678
        65        2.0000           -0.4224082             -11.4943
        66        2.0000           -0.3838275             -10.4445
        67        1.9928           -0.3708721             -10.0919 (HOMO)
        68        0.0072           -0.3601963              -9.8014 (LUMO)
        69                         -0.3101204              -8.4388
        70                         -0.2745155              -7.4699
        71                         -0.2451957              -6.6721
        72                         -0.2392071              -6.5092
        73                         -0.2012525              -5.4764
        74                         -0.1880920              -5.1182
        75                         -0.1736134              -4.7243
        76                         -0.1362183              -3.7067
        77                         -0.1231217              -3.3503
        78                         -0.1227368              -3.3398
       ...                                ...                  ...
       134                          0.7527744              20.4840
      -------------------------------------------------------------
                  HL-Gap            0.0106758 Eh            0.2905 eV

Wiberg/Mayer (AO) data.
largest (>0.10) Wiberg bond orders for each atom

     #   Z sym  total        # sym  WBO       # sym  WBO       # sym  WBO
 ---------------------------------------------------------------------------
     1   6 C    3.897 --    28 H    0.987    26 H    0.980    27 H    0.980
                             2 O    0.923
     2   8 O    2.163 --     3 C    1.053     1 C    0.923     4 O    0.111
     3   6 C    3.850 --     4 O    1.579     5 C    1.108     2 O    1.053
     4   8 O    1.852 --     3 C    1.579     2 O    0.111
     5   6 C    3.907 --    24 C    1.268     6 N    1.156     3 C    1.108
                            25 O    0.128
     6   7 N    3.031 --     7 C    1.634     5 C    1.156
     7   6 C    3.931 --     6 N    1.634    21 N    1.092     8 C    0.972
     8   6 C    3.913 --    10 C    0.990     9 C    0.988     7 C    0.972
                            11 N    0.897
     9   6 C    3.989 --     8 C    0.988    29 H    0.984    31 H    0.983
                            30 H    0.982
    10   6 C    3.989 --     8 C    0.990    34 H    0.987    32 H    0.981
                            33 H    0.981
    11   7 N    3.390 --    12 C    1.304     8 C    0.897    35 H    0.891
                            13 O    0.195
    12   6 C    3.928 --    13 O    1.579    11 N    1.304    14 C    0.969
    13   8 O    1.927 --    12 C    1.579    11 N    0.195
    14   6 C    3.789 --    15 N    1.697    12 C    0.969    19 O    0.883
    15   7 N    3.035 --    14 C    1.697    16 N    1.147
    16   7 N    3.025 --    17 C    1.698    15 N    1.147
    17   6 C    3.799 --    16 N    1.698    18 C    1.043    19 O    0.874
    18   6 C    3.970 --    17 C    1.043    36 H    0.970    37 H    0.951
                            38 H    0.951
    19   8 O    2.651 --    14 C    0.883    17 C    0.874    20 C    0.748
    20   6 C    3.726 --    40 H    0.975    39 H    0.968    41 H    0.968
                            19 O    0.748
    21   7 N    3.421 --    22 C    1.155     7 C    1.092    42 H    0.898
                            23 O    0.135
    22   6 C    3.875 --    23 O    1.583    21 N    1.155    24 C    0.966
    23   8 O    1.862 --    22 C    1.583    21 N    0.135
    24   6 C    3.941 --    25 O    1.525     5 C    1.268    22 C    0.966
    25   8 O    1.826 --    24 C    1.525     5 C    0.128
    26   1 H    1.013 --     1 C    0.980
    27   1 H    1.013 --     1 C    0.980
    28   1 H    1.015 --     1 C    0.987
    29   1 H    0.999 --     9 C    0.984
    30   1 H    1.001 --     9 C    0.982
    31   1 H    0.997 --     9 C    0.983
    32   1 H    1.010 --    10 C    0.981
    33   1 H    1.013 --    10 C    0.981
    34   1 H    1.001 --    10 C    0.987
    35   1 H    0.937 --    11 N    0.891
    36   1 H    0.989 --    18 C    0.970
    37   1 H    0.988 --    18 C    0.951
    38   1 H    0.988 --    18 C    0.951
    39   1 H    0.999 --    20 C    0.968
    40   1 H    0.991 --    20 C    0.975
    41   1 H    1.000 --    20 C    0.968
    42   1 H    0.948 --    21 N    0.898
 ---------------------------------------------------------------------------

           -------------------------------------------------
          | TOTAL ENERGY              -82.914493694355 Eh   |
          | GRADIENT NORM               0.000194496514 Eh/α |
          | HOMO-LUMO GAP               0.290504046824 eV   |
           -------------------------------------------------

 * finished run on 2023/06/21 at 17:29:33.682
