   * xtb version 6.5.1 (579679a) compiled by 'ehlert@majestix' on 2022-07-11
          program call               : /lustre/hpc/kemi/ree/PhD/git/ReactivityQM/dep/xtb-6.5.1/bin/xtb --gfn 1 /lustre/hpc/kemi/ree/PhD/git/ReactivityQM/calculations/R02oxygendeprot/reac01prodN01/conf04/R02oxygendeprot_reac01prodN01_conf04_gfn1.xyz --opt --vfukui --chrg 0 --uhf 0 --alpb DMSO

   ID    Z sym.   atoms
    1    6 C      1, 3, 5, 7-10, 12, 14, 17, 18, 20, 22, 24
    2    8 O      2, 4, 13, 19, 23, 25
    3    7 N      6, 11, 15, 16, 21
    4    1 H      26-42

      * Solvation model:               ALPB
        Solvent                        DMSO
        Solvent mass                       7.8130E+01 g/mol
          :  Hamiltonian                  GFN1-xTB          :
 * total energy  :   -82.8802506 Eh     change       -0.5414336E-11 Eh
 * total energy  :   -82.8976475 Eh     change       -0.1739688E-01 Eh
 * total energy  :   -82.9058979 Eh     change       -0.8250415E-02 Eh
 * total energy  :   -82.9080695 Eh     change       -0.2171588E-02 Eh
 * total energy  :   -82.9095354 Eh     change       -0.1465941E-02 Eh
 * total energy  :   -82.9102825 Eh     change       -0.7470224E-03 Eh
 * total energy  :   -82.9109067 Eh     change       -0.6241987E-03 Eh
 * total energy  :   -82.9114263 Eh     change       -0.5196054E-03 Eh
 * total energy  :   -82.9117825 Eh     change       -0.3562570E-03 Eh
 * total energy  :   -82.9120216 Eh     change       -0.2391219E-03 Eh
 * total energy  :   -82.9141140 Eh     change        0.2804453E-06 Eh
 * total energy  :   -82.9141186 Eh     change       -0.4627227E-05 Eh
 * total energy  :   -82.9141260 Eh     change       -0.7416644E-05 Eh
 * total energy  :   -82.9141308 Eh     change       -0.4764403E-05 Eh
 * total energy  :   -82.9141368 Eh     change       -0.6001797E-05 Eh
 * total energy  :   -82.9141421 Eh     change       -0.5269587E-05 Eh
 * total energy  :   -82.9141487 Eh     change       -0.6633773E-05 Eh
 * total energy  :   -82.9141551 Eh     change       -0.6386831E-05 Eh
 * total energy  :   -82.9141576 Eh     change       -0.2514772E-05 Eh
   *** GEOMETRY OPTIMIZATION CONVERGED AFTER 44 ITERATIONS ***

 final structure:
================
42
 xtb: 6.5.1 (579679a)
C            7.04502532741192        1.66866390007933       -0.64819595842875
O            5.91835827961455        1.43347243283564        0.18633808382165
C            4.85647713334375        0.83960246041085       -0.40965668770547
O            4.89199847091900        0.54044603558402       -1.59708814764434
C            3.72118785500324        0.59558926175291        0.47035431624800
N            2.67746090240949       -0.04098356800263       -0.17547368197774
C            1.60547744743268       -0.33980390005871        0.45342143508791
C            0.47457943890523       -1.06410675768513       -0.24226486147177
C            0.35417679049169       -2.49076888102932        0.30830011747918
C            0.70175735443996       -1.06745757014804       -1.75511476813597
N           -0.76682160144285       -0.31485005089298        0.06256408655228
C           -1.97867175248686       -0.69869268130842       -0.33240186291716
O           -2.27456403759500       -1.68783126728953       -0.97865448393078
C           -3.02513410521573        0.27092977572285        0.12648364915883
N           -2.88789093609219        1.37072224126213        0.76414069307090
N           -4.12318873935955        1.92483922426286        0.96099263043503
C           -5.00795765078603        1.16269985300580        0.44353211414119
C           -6.46886124028406        1.32630183513372        0.39740147852055
O           -4.37891090075002        0.05028030086241       -0.13052875308493
C           -4.95931519488450       -1.10106603422756       -0.82309379381479
N            1.43774752271970       -0.05443166498330        1.79643292000468
C            2.38440638008326        0.58760995510939        2.55900135833376
O            2.15679936720086        0.81496740033097        3.74291978834288
C            3.66383808981344        0.96258338688637        1.84113536486268
O            4.55071099942592        1.54995659425418        2.48408951690777
H            6.77696432903032        2.32176540430629       -1.48442237489564
H            7.80439401424442        2.14922973906678       -0.03235634010174
H            7.43301194808247        0.72634075132155       -1.04739390584826
H            1.30168161927456       -3.00910113199071        0.16527507949729
H            0.12004815720130       -2.46345110996222        1.37073512014460
H           -0.42905510710861       -3.03763614891449       -0.21124895667143
H           -0.09132499708647       -1.61776803190486       -2.25578539592575
H            0.72245752987093       -0.04515422044115       -2.12993072475465
H            1.65992624568833       -1.53999332403407       -1.96914933141917
H           -0.68732647964734        0.55165675340670        0.57490697555616
H           -6.73156615621554        2.24867490286397        0.91272780354926
H           -6.96277224583114        0.48484926918258        0.88357194816214
H           -6.81493194020273        1.37532574136998       -0.63537781016617
H           -4.56247672154101       -1.10526788818165       -1.83603616341544
H           -4.66082201757817       -1.99297319676415       -0.27664278973720
H           -6.03529594415661       -0.96250311365493       -0.81111124643233
H            0.58840156565773       -0.32266867753745        2.26090755860642

          :  Hamiltonian                  GFN1-xTB          :
         :: total energy             -82.914157619395 Eh    ::
         :: gradient norm              0.000396134401 Eh/a0 ::
         :: HOMO-LUMO gap              0.321521799842 eV    ::
         :: SCC energy               -83.698461535785 Eh    ::
         :: -> Gsolv                  -0.131229518445 Eh    ::
         :: repulsion energy           0.809962295874 Eh    ::

    * Orbital Energies and Occupations

         #    Occupation            Energy/Eh            Energy/eV
      -------------------------------------------------------------
         1        2.0000           -0.9650586             -26.2606
       ...           ...                  ...                  ...
        55        2.0000           -0.5059196             -13.7668
        56        2.0000           -0.5032571             -13.6943
        57        2.0000           -0.4981240             -13.5546
        58        2.0000           -0.4905986             -13.3499
        59        2.0000           -0.4822666             -13.1231
        60        2.0000           -0.4695662             -12.7775
        61        2.0000           -0.4679095             -12.7325
        62        2.0000           -0.4624462             -12.5838
        63        2.0000           -0.4468406             -12.1592
        64        2.0000           -0.4405227             -11.9872
        65        2.0000           -0.4242221             -11.5437
        66        2.0000           -0.3848318             -10.4718
        67        1.9960           -0.3723185             -10.1313 (HOMO)
        68        0.0040           -0.3605028              -9.8098 (LUMO)
        69                         -0.3108145              -8.4577
        70                         -0.2755534              -7.4982
        71                         -0.2479054              -6.7458
        72                         -0.2396178              -6.5203
        73                         -0.2022782              -5.5043
        74                         -0.1876888              -5.1073
        75                         -0.1737355              -4.7276
        76                         -0.1271814              -3.4608
        77                         -0.1248245              -3.3966
        78                         -0.1231878              -3.3521
       ...                                ...                  ...
       134                          0.7532743              20.4976
      -------------------------------------------------------------
                  HL-Gap            0.0118157 Eh            0.3215 eV

Wiberg/Mayer (AO) data.
largest (>0.10) Wiberg bond orders for each atom

     #   Z sym  total        # sym  WBO       # sym  WBO       # sym  WBO
 ---------------------------------------------------------------------------
     1   6 C    3.897 --    27 H    0.987    26 H    0.980    28 H    0.980
                             2 O    0.923
     2   8 O    2.164 --     3 C    1.054     1 C    0.923     4 O    0.111
     3   6 C    3.851 --     4 O    1.579     5 C    1.108     2 O    1.054
     4   8 O    1.853 --     3 C    1.579     2 O    0.111
     5   6 C    3.911 --    24 C    1.269     6 N    1.157     3 C    1.108
                            25 O    0.129
     6   7 N    3.033 --     7 C    1.637     5 C    1.157
     7   6 C    3.932 --     6 N    1.637    21 N    1.085     8 C    0.979
     8   6 C    3.910 --    10 C    0.993     9 C    0.983     7 C    0.979
                            11 N    0.889
     9   6 C    3.987 --    30 H    0.984    29 H    0.984     8 C    0.983
                            31 H    0.980
    10   6 C    3.990 --     8 C    0.993    33 H    0.985    32 H    0.984
                            34 H    0.982
    11   7 N    3.396 --    12 C    1.318    35 H    0.891     8 C    0.889
                            13 O    0.197
    12   6 C    3.928 --    13 O    1.572    11 N    1.318    14 C    0.965
    13   8 O    1.934 --    12 C    1.572    11 N    0.197
    14   6 C    3.795 --    15 N    1.705    12 C    0.965    19 O    0.885
    15   7 N    3.041 --    14 C    1.705    16 N    1.145
    16   7 N    3.024 --    17 C    1.699    15 N    1.145
    17   6 C    3.802 --    16 N    1.699    18 C    1.043    19 O    0.875
    18   6 C    3.970 --    17 C    1.043    36 H    0.970    37 H    0.951
                            38 H    0.951
    19   8 O    2.654 --    14 C    0.885    17 C    0.875    20 C    0.747
    20   6 C    3.725 --    41 H    0.975    40 H    0.968    39 H    0.968
                            19 O    0.747
    21   7 N    3.416 --    22 C    1.152     7 C    1.085    42 H    0.898
                            23 O    0.135
    22   6 C    3.875 --    23 O    1.587    21 N    1.152    24 C    0.965
    23   8 O    1.867 --    22 C    1.587    21 N    0.135
    24   6 C    3.942 --    25 O    1.527     5 C    1.269    22 C    0.965
    25   8 O    1.831 --    24 C    1.527     5 C    0.129
    26   1 H    1.014 --     1 C    0.980
    27   1 H    1.015 --     1 C    0.987
    28   1 H    1.013 --     1 C    0.980
    29   1 H    1.002 --     9 C    0.984
    30   1 H    1.001 --     9 C    0.984
    31   1 H    1.007 --     9 C    0.980
    32   1 H    1.006 --    10 C    0.984
    33   1 H    1.007 --    10 C    0.985
    34   1 H    1.012 --    10 C    0.982
    35   1 H    0.942 --    11 N    0.891
    36   1 H    0.989 --    18 C    0.970
    37   1 H    0.988 --    18 C    0.951
    38   1 H    0.988 --    18 C    0.951
    39   1 H    1.000 --    20 C    0.968
    40   1 H    0.999 --    20 C    0.968
    41   1 H    0.991 --    20 C    0.975
    42   1 H    0.944 --    21 N    0.898
 ---------------------------------------------------------------------------

           -------------------------------------------------
          | TOTAL ENERGY              -82.914157619395 Eh   |
          | GRADIENT NORM               0.000396134401 Eh/α |
          | HOMO-LUMO GAP               0.321521799842 eV   |
           -------------------------------------------------

 * finished run on 2023/06/21 at 17:17:13.961
