   * xtb version 6.5.1 (579679a) compiled by 'ehlert@majestix' on 2022-07-11
          program call               : /lustre/hpc/kemi/ree/PhD/git/ReactivityQM/dep/xtb-6.5.1/bin/xtb --gfn 1 /lustre/hpc/kemi/ree/PhD/git/ReactivityQM/calculations/R01/reac02prodN01/conf01/R01_reac02prodN01_conf01_gfn1.xyz --opt --vfukui --chrg 1 --uhf 0 --alpb DMSO

   ID    Z sym.   atoms
    1    6 C      1, 3, 5, 6, 8-11, 14, 16
    2    8 O      2, 4, 15, 17
    3    7 N      7, 12, 13
    4    1 H      18-33

      * Solvation model:               ALPB
        Solvent                        DMSO
        Solvent mass                       7.8130E+01 g/mol
          :  Hamiltonian                  GFN1-xTB          :
 * total energy  :   -57.8142268 Eh     change       -0.1067235E-10 Eh
 * total energy  :   -57.8384435 Eh     change       -0.2421669E-01 Eh
 * total energy  :   -57.8453468 Eh     change       -0.6903324E-02 Eh
 * total energy  :   -57.8467582 Eh     change       -0.1411431E-02 Eh
 * total energy  :   -57.8472429 Eh     change       -0.4846055E-03 Eh
 * total energy  :   -57.8473467 Eh     change       -0.1038695E-03 Eh
 * total energy  :   -57.8474300 Eh     change       -0.8330897E-04 Eh
 * total energy  :   -57.8474828 Eh     change       -0.5274296E-04 Eh
 * total energy  :   -57.8475186 Eh     change       -0.3581042E-04 Eh
 * total energy  :   -57.8475428 Eh     change       -0.2424254E-04 Eh
 * total energy  :   -57.8476675 Eh     change       -0.1395359E-04 Eh
 * total energy  :   -57.8476821 Eh     change       -0.1454979E-04 Eh
 * total energy  :   -57.8477060 Eh     change       -0.2390143E-04 Eh
 * total energy  :   -57.8477352 Eh     change       -0.2928671E-04 Eh
 * total energy  :   -57.8477469 Eh     change       -0.1167978E-04 Eh
 * total energy  :   -57.8477560 Eh     change       -0.9037400E-05 Eh
 * total energy  :   -57.8477659 Eh     change       -0.9986802E-05 Eh
 * total energy  :   -57.8477710 Eh     change       -0.5011689E-05 Eh
 * total energy  :   -57.8477749 Eh     change       -0.3981084E-05 Eh
   *** GEOMETRY OPTIMIZATION CONVERGED AFTER 26 ITERATIONS ***

 final structure:
================
33
 xtb: 6.5.1 (579679a)
C            1.69993380386208       -1.80854411421542       -1.33140567758994
O            2.62152859082163       -1.21668658901422       -0.39857644017751
C            2.37780329882826       -0.28311826971466        0.45658584571968
O            3.37155860772901        0.11071001529065        1.17370342649718
C            4.67156497644552       -0.48344770866725        1.00480872552838
C            1.09828621777618        0.35587082414597        0.67429034166309
N            0.04329686525926       -0.13692279109804       -0.05345285665324
C           -1.13802881933535        0.37087626864504        0.06257487097754
C           -2.26612684116294       -0.18561338065046       -0.77697709844855
C           -3.56093725807379       -0.31328628906686        0.04177089698122
C           -2.47238300146586        0.74673379256462       -1.98042396546557
N           -1.83444105578635       -1.48710503205335       -1.27020606657247
N           -1.38515215593232        1.42901806317059        0.89304584904456
C           -0.42845256609088        2.00533425909134        1.68479042359494
O           -0.64147598183889        2.93809795272505        2.43588629891578
C            0.90792568355943        1.40242710735949        1.55375353759133
O            1.85523015649865        1.93311890338378        2.30112127796021
H            1.27733733645329       -1.04137117377996       -1.97969180094177
H            0.89658663368278       -2.31295918238068       -0.79553520445297
H            2.29153641212921       -2.52088419789471       -1.90555734178260
H            4.60626243892877       -1.55792059879026        1.17839486191593
H            5.31341998726568       -0.00676716318749        1.74224678330922
H            5.02879082029194       -0.29252247951315       -0.00766991305054
H           -3.95354225285749        0.66722626396605        0.30709193301268
H           -3.37725998918420       -0.88303435785091        0.95101351129217
H           -4.30805398975461       -0.83411320183226       -0.55459414478404
H           -1.56096324221656        0.78331240793212       -2.57601488539943
H           -2.72132043501829        1.75146154734270       -1.64350122977946
H           -3.28541789916539        0.36719057498367       -2.59716647355657
H           -1.75859014210847       -2.12796962700654       -0.49028486532238
H           -2.53649679279305       -1.84987395973264       -1.90179323151162
H           -2.31485306838526        1.81939073204751        0.96228121821646
H            1.48243466163777        2.66137540380040        2.83949239326690

          :  Hamiltonian                  GFN1-xTB          :
         :: total energy             -57.847774937847 Eh    ::
         :: gradient norm              0.000356738909 Eh/a0 ::
         :: HOMO-LUMO gap              1.194298063332 eV    ::
         :: SCC energy               -58.423088639820 Eh    ::
         :: -> Gsolv                  -0.090423763411 Eh    ::
         :: repulsion energy           0.594184894595 Eh    ::

    * Orbital Energies and Occupations

         #    Occupation            Energy/Eh            Energy/eV
      -------------------------------------------------------------
         1        2.0000           -0.9117323             -24.8095
       ...           ...                  ...                  ...
        35        2.0000           -0.5483369             -14.9210
        36        2.0000           -0.5468135             -14.8796
        37        2.0000           -0.5377637             -14.6333
        38        2.0000           -0.5311259             -14.4527
        39        2.0000           -0.5261823             -14.3181
        40        2.0000           -0.5176728             -14.0866
        41        2.0000           -0.5129320             -13.9576
        42        2.0000           -0.5102707             -13.8852
        43        2.0000           -0.4995234             -13.5927
        44        2.0000           -0.4888556             -13.3024
        45        2.0000           -0.4751351             -12.9291
        46        2.0000           -0.4609903             -12.5442
        47        2.0000           -0.4243264             -11.5465 (HOMO)
        48                         -0.3804368             -10.3522 (LUMO)
        49                         -0.3105830              -8.4514
        50                         -0.2892898              -7.8720
        51                         -0.1955113              -5.3201
        52                         -0.1686200              -4.5884
        53                         -0.1582534              -4.3063
        54                         -0.1471980              -4.0055
        55                         -0.1327922              -3.6135
        56                         -0.1222716              -3.3272
        57                         -0.1209309              -3.2907
        58                         -0.1065292              -2.8988
       ...                                ...                  ...
       100                          0.6899719              18.7751
      -------------------------------------------------------------
                  HL-Gap            0.0438896 Eh            1.1943 eV

Wiberg/Mayer (AO) data.
largest (>0.10) Wiberg bond orders for each atom

     #   Z sym  total        # sym  WBO       # sym  WBO       # sym  WBO
 ---------------------------------------------------------------------------
     1   6 C    3.813 --    20 H    0.980    18 H    0.972    19 H    0.970
                             2 O    0.847
     2   8 O    2.305 --     3 C    1.251     1 C    0.847
     3   6 C    3.815 --     4 O    1.260     2 O    1.251     6 C    1.117
     4   8 O    2.309 --     3 C    1.260     5 C    0.855
     5   6 C    3.825 --    22 H    0.982    21 H    0.973    23 H    0.972
                             4 O    0.855
     6   6 C    3.958 --    16 C    1.424     7 N    1.160     3 C    1.117
     7   7 N    3.036 --     8 C    1.578     6 C    1.160
     8   6 C    3.907 --     7 N    1.578    13 N    1.161     9 C    0.982
     9   6 C    3.965 --    12 N    0.993     8 C    0.982    10 C    0.980
                            11 C    0.973
    10   6 C    3.991 --    25 H    0.985    26 H    0.981     9 C    0.980
                            24 H    0.980
    11   6 C    3.991 --    28 H    0.986    27 H    0.985    29 H    0.981
                             9 C    0.973
    12   7 N    2.956 --     9 C    0.993    30 H    0.942    31 H    0.938
    13   7 N    3.477 --     8 C    1.161    14 C    1.156    32 H    0.873
                            15 O    0.143
    14   6 C    3.915 --    15 O    1.605    13 N    1.156    16 C    1.032
    15   8 O    1.932 --    14 C    1.605    13 N    0.143
    16   6 C    3.912 --     6 C    1.424    17 O    1.170    14 C    1.032
    17   8 O    2.143 --    16 C    1.170    33 H    0.783
    18   1 H    1.016 --     1 C    0.972
    19   1 H    1.020 --     1 C    0.970
    20   1 H    1.003 --     1 C    0.980
    21   1 H    0.999 --     5 C    0.973
    22   1 H    1.002 --     5 C    0.982
    23   1 H    0.998 --     5 C    0.972
    24   1 H    0.998 --    10 C    0.980
    25   1 H    1.000 --    10 C    0.985
    26   1 H    1.000 --    10 C    0.981
    27   1 H    1.004 --    11 C    0.985
    28   1 H    1.000 --    11 C    0.986
    29   1 H    0.997 --    11 C    0.981
    30   1 H    0.959 --    12 N    0.942
    31   1 H    0.952 --    12 N    0.938
    32   1 H    0.920 --    13 N    0.873
    33   1 H    0.824 --    17 O    0.783
 ---------------------------------------------------------------------------

           -------------------------------------------------
          | TOTAL ENERGY              -57.847774937847 Eh   |
          | GRADIENT NORM               0.000356738909 Eh/α |
          | HOMO-LUMO GAP               1.194298063332 eV   |
           -------------------------------------------------

 * finished run on 2023/06/20 at 15:03:31.276
