   * xtb version 6.5.1 (579679a) compiled by 'ehlert@majestix' on 2022-07-11
          program call               : /lustre/hpc/kemi/ree/PhD/git/ReactivityQM/dep/xtb-6.5.1/bin/xtb --gfn 1 /lustre/hpc/kemi/ree/PhD/git/ReactivityQM/calculations/R02/reac01prodE07/conf03/R02_reac01prodE07_conf03_gfn1.xyz --opt --vfukui --chrg -1 --uhf 0 --alpb DMSO

   ID    Z sym.   atoms
    1    6 C      1, 3, 5, 7-10, 12, 14, 15, 18, 19, 22, 24
    2    8 O      2, 4, 13, 20, 23, 25
    3    7 N      6, 11, 16, 17, 21
    4    1 H      26-43

      * Solvation model:               ALPB
        Solvent                        DMSO
        Solvent mass                       7.8130E+01 g/mol
          :  Hamiltonian                  GFN1-xTB          :
 * total energy  :   -83.8180185 Eh     change       -0.7926531E-09 Eh
 * total energy  :   -83.8299823 Eh     change       -0.1196381E-01 Eh
 * total energy  :   -83.8352897 Eh     change       -0.5307442E-02 Eh
 * total energy  :   -83.8363490 Eh     change       -0.1059330E-02 Eh
 * total energy  :   -83.8370672 Eh     change       -0.7181876E-03 Eh
 * total energy  :   -83.8374410 Eh     change       -0.3737935E-03 Eh
 * total energy  :   -83.8377601 Eh     change       -0.3191091E-03 Eh
 * total energy  :   -83.8380058 Eh     change       -0.2457110E-03 Eh
 * total energy  :   -83.8381998 Eh     change       -0.1939386E-03 Eh
 * total energy  :   -83.8383775 Eh     change       -0.1777373E-03 Eh
 * total energy  :   -83.8464200 Eh     change       -0.1060273E-04 Eh
 * total energy  :   -83.8464423 Eh     change       -0.2222809E-04 Eh
 * total energy  :   -83.8464553 Eh     change       -0.1302805E-04 Eh
 * total energy  :   -83.8464669 Eh     change       -0.1163107E-04 Eh
 * total energy  :   -83.8464821 Eh     change       -0.1516487E-04 Eh
 * total energy  :   -83.8464988 Eh     change       -0.1669020E-04 Eh
 * total energy  :   -83.8465098 Eh     change       -0.1097335E-04 Eh
 * total energy  :   -83.8465154 Eh     change       -0.5674802E-05 Eh
 * total energy  :   -83.8465187 Eh     change       -0.3249434E-05 Eh
   *** GEOMETRY OPTIMIZATION CONVERGED AFTER 59 ITERATIONS ***

 final structure:
================
43
 xtb: 6.5.1 (579679a)
C           -4.89189146044675        2.60076336245845       -1.80963812437860
O           -3.86316677790418        1.73655875183243       -1.33716350199101
C           -3.60946983038163        1.78769708290642       -0.01380639515253
O           -4.22949077838847        2.54740660972635        0.72986921263083
C           -2.56103708654459        0.88085313168028        0.42885517910533
N           -1.95230781206041        0.10763343818108       -0.52341963497175
C           -1.06030258622271       -0.75850982755162       -0.16077310418163
C           -0.29497987161486       -1.54055375862966       -1.19704902991580
C           -0.26108024141256       -3.04143563518626       -0.89377291026588
C           -0.90213820313854       -1.30991241018510       -2.58331429578646
N            1.08694985547394       -0.99974810208612       -1.23320160740122
C            1.80944574158877       -0.91747104923004       -0.00732879409535
O            2.18745303488512       -2.11024134772740        0.59319882057602
C            3.41316217634640       -2.67743191149427        0.13094943356364
C            2.40605799976299        0.28924019008706        0.30033117356089
N            2.10642821546174        1.46982678486967       -0.26290867950074
N            2.88302875088344        2.40658141292413        0.38478336937011
C            3.58053570587353        1.78829931598503        1.27247831971939
C            4.56888435690996        2.37230619542835        2.21516218470405
O            3.34180687016311        0.44405530963944        1.29756661927189
N           -0.65396455027713       -0.88122417105665        1.14383937310841
C           -1.18518050801519       -0.13516495520353        2.19748402066014
O           -0.77917742774574       -0.32478760249156        3.34638343173261
C           -2.19376036066302        0.79879010099154        1.77474468526436
O           -2.78983014445333        1.54202450637059        2.74311732282363
H           -4.63738250227192        3.64556975625721       -1.60992098113657
H           -4.97505028765763        2.43552661008215       -2.88255755683588
H           -5.84162281162487        2.36638300647305       -1.32099053470558
H           -1.26575644660013       -3.45529138099598       -0.97236171936200
H            0.38449659784376       -3.54004238602020       -1.61536190963043
H            0.12065614666441       -3.24233027301805        0.10482061466232
H           -1.91071542245809       -1.71948990540622       -2.62207810555751
H           -0.95440595989185       -0.24359557469789       -2.80270811055900
H           -0.28986101958281       -1.79900292678366       -3.33927578874171
H            1.06454796450640       -0.06769886468511       -1.65073860818933
H            3.37166168239283       -2.87175033114203       -0.94728633180160
H            4.25731232867004       -2.01103511924386        0.34427967290519
H            3.55103850051069       -3.61969619959782        0.66290154040978
H            5.55929934138192        1.95282404014162        2.03562934447056
H            4.29257339148227        2.15085588527829        3.24671828883580
H            4.60867499001169        3.45037678618402        2.07641365980390
H           -0.00698661803316       -1.61362589697642        1.39967700843165
H           -3.48445794338906        2.10646835191678        2.33769844853711

          :  Hamiltonian                  GFN1-xTB          :
         :: total energy             -83.846518684896 Eh    ::
         :: gradient norm              0.000228097317 Eh/a0 ::
         :: HOMO-LUMO gap              0.271929576211 eV    ::
         :: SCC energy               -84.593189474075 Eh    ::
         :: -> Gsolv                  -0.109125156165 Eh    ::
         :: repulsion energy           0.774217074977 Eh    ::

    * Orbital Energies and Occupations

         #    Occupation            Energy/Eh            Energy/eV
      -------------------------------------------------------------
         1        2.0000           -0.8161207             -22.2078
       ...           ...                  ...                  ...
        56        2.0000           -0.4736662             -12.8891
        57        2.0000           -0.4593544             -12.4997
        58        2.0000           -0.4513634             -12.2822
        59        2.0000           -0.4446755             -12.1002
        60        2.0000           -0.4379361             -11.9168
        61        2.0000           -0.4313668             -11.7381
        62        2.0000           -0.4238976             -11.5348
        63        2.0000           -0.4198234             -11.4240
        64        2.0000           -0.4151756             -11.2975
        65        2.0000           -0.4007142             -10.9040
        66        2.0000           -0.3972338             -10.8093
        67        2.0000           -0.3932983             -10.7022
        68        1.9897           -0.3083958              -8.3919 (HOMO)
        69        0.0103           -0.2984026              -8.1199 (LUMO)
        70                         -0.2503202              -6.8116
        71                         -0.2105309              -5.7288
        72                         -0.2069762              -5.6321
        73                         -0.1657918              -4.5114
        74                         -0.1285868              -3.4990
        75                         -0.1258030              -3.4233
        76                         -0.1237314              -3.3669
        77                         -0.1167975              -3.1782
        78                         -0.1111796              -3.0254
        79                         -0.1106381              -3.0106
       ...                                ...                  ...
       136                          0.7122255              19.3806
      -------------------------------------------------------------
                  HL-Gap            0.0099932 Eh            0.2719 eV

Wiberg/Mayer (AO) data.
largest (>0.10) Wiberg bond orders for each atom

     #   Z sym  total        # sym  WBO       # sym  WBO       # sym  WBO
 ---------------------------------------------------------------------------
     1   6 C    3.886 --    27 H    0.987    28 H    0.980    26 H    0.980
                             2 O    0.913
     2   8 O    2.158 --     3 C    1.071     1 C    0.913     4 O    0.110
     3   6 C    3.783 --     4 O    1.544     5 C    1.090     2 O    1.071
     4   8 O    1.859 --     3 C    1.544     2 O    0.110
     5   6 C    3.939 --    24 C    1.357     6 N    1.192     3 C    1.090
     6   7 N    3.021 --     7 C    1.560     5 C    1.192
     7   6 C    3.923 --     6 N    1.560    21 N    1.139     8 C    0.984
     8   6 C    3.963 --    10 C    1.001     9 C    0.993     7 C    0.984
                            11 N    0.922
     9   6 C    3.994 --     8 C    0.993    29 H    0.987    30 H    0.984
                            31 H    0.978
    10   6 C    3.996 --     8 C    1.001    34 H    0.987    32 H    0.986
                            33 H    0.983
    11   7 N    3.097 --    12 C    1.011    35 H    0.929     8 C    0.922
    12   6 C    3.723 --    15 C    1.377    11 N    1.011    13 O    0.958
    13   8 O    2.024 --    12 C    0.958    14 C    0.923
    14   6 C    3.908 --    38 H    0.986    36 H    0.984    37 H    0.983
                            13 O    0.923
    15   6 C    3.871 --    12 C    1.377    16 N    1.343    20 O    0.984
    16   7 N    2.851 --    15 C    1.343    17 N    1.156
    17   7 N    2.981 --    18 C    1.663    16 N    1.156
    18   6 C    3.852 --    17 N    1.663    19 C    1.022    20 O    1.019
    19   6 C    3.994 --    18 C    1.022    41 H    0.986    40 H    0.973
                            39 H    0.972
    20   8 O    2.208 --    18 C    1.019    15 C    0.984
    21   7 N    3.432 --     7 C    1.139    22 C    1.075    42 H    0.888
                            23 O    0.113
    22   6 C    3.913 --    23 O    1.524    24 C    1.147    21 N    1.075
    23   8 O    1.833 --    22 C    1.524    21 N    0.113
    24   6 C    3.887 --     5 C    1.357    22 C    1.147    25 O    1.063
    25   8 O    2.004 --    24 C    1.063    43 H    0.797
    26   1 H    1.010 --     1 C    0.980
    27   1 H    1.014 --     1 C    0.987
    28   1 H    1.010 --     1 C    0.980
    29   1 H    1.004 --     9 C    0.987
    30   1 H    1.007 --     9 C    0.984
    31   1 H    1.014 --     9 C    0.978
    32   1 H    1.008 --    10 C    0.986
    33   1 H    1.014 --    10 C    0.983
    34   1 H    1.005 --    10 C    0.987
    35   1 H    0.983 --    11 N    0.929
    36   1 H    1.015 --    14 C    0.984
    37   1 H    1.017 --    14 C    0.983
    38   1 H    1.017 --    14 C    0.986
    39   1 H    1.002 --    19 C    0.972
    40   1 H    1.002 --    19 C    0.973
    41   1 H    1.005 --    19 C    0.986
    42   1 H    0.958 --    21 N    0.888
    43   1 H    0.873 --    25 O    0.797
 ---------------------------------------------------------------------------

           -------------------------------------------------
          | TOTAL ENERGY              -83.846518684896 Eh   |
          | GRADIENT NORM               0.000228097317 Eh/α |
          | HOMO-LUMO GAP               0.271929576211 eV   |
           -------------------------------------------------

 * finished run on 2023/06/20 at 15:03:35.407
