   * xtb version 6.5.1 (579679a) compiled by 'ehlert@majestix' on 2022-07-11
          program call               : /lustre/hpc/kemi/ree/PhD/git/ReactivityQM/dep/xtb-6.5.1/bin/xtb --gfn 1 /lustre/hpc/kemi/ree/PhD/git/ReactivityQM/calculations/R02methylcation/reac01prodE06/conf01/R02methylcation_reac01prodE06_conf01_gfn1.xyz --opt --vfukui --chrg -2 --uhf 0 --alpb DMSO

   ID    Z sym.   atoms
    1    6 C      1, 3, 5, 6, 8, 11-15, 17, 19, 22, 23
    2    8 O      2, 4, 7, 9, 18, 24
    3    7 N      10, 16, 20, 21, 25
    4    1 H      26-42

      * Solvation model:               ALPB
        Solvent                        DMSO
        Solvent mass                       7.8130E+01 g/mol
          :  Hamiltonian                  GFN1-xTB          :
 * total energy  :   -83.6065782 Eh     change       -0.8131451E-10 Eh
 * total energy  :   -83.6175541 Eh     change       -0.1097586E-01 Eh
 * total energy  :   -83.6210223 Eh     change       -0.3468197E-02 Eh
 * total energy  :   -83.6217847 Eh     change       -0.7624553E-03 Eh
 * total energy  :   -83.6226070 Eh     change       -0.8222988E-03 Eh
 * total energy  :   -83.6232094 Eh     change       -0.6023934E-03 Eh
 * total energy  :   -83.6237515 Eh     change       -0.5421273E-03 Eh
 * total energy  :   -83.6241553 Eh     change       -0.4037259E-03 Eh
 * total energy  :   -83.6243321 Eh     change       -0.1768338E-03 Eh
 * total energy  :   -83.6243979 Eh     change       -0.6581612E-04 Eh
 * total energy  :   -83.6258046 Eh     change       -0.1755004E-04 Eh
 * total energy  :   -83.6258137 Eh     change       -0.9115360E-05 Eh
 * total energy  :   -83.6258253 Eh     change       -0.1160597E-04 Eh
 * total energy  :   -83.6258350 Eh     change       -0.9727574E-05 Eh
 * total energy  :   -83.6258429 Eh     change       -0.7844781E-05 Eh
 * total energy  :   -83.6258507 Eh     change       -0.7818383E-05 Eh
 * total energy  :   -83.6258592 Eh     change       -0.8507882E-05 Eh
 * total energy  :   -83.6258650 Eh     change       -0.5783482E-05 Eh
 * total energy  :   -83.6258695 Eh     change       -0.4482774E-05 Eh
   *** GEOMETRY OPTIMIZATION CONVERGED AFTER 66 ITERATIONS ***

 final structure:
================
42
 xtb: 6.5.1 (579679a)
C           -5.87187508333907       -0.54610124355262        0.93347845224479
O           -4.54781685494986       -0.45329153406344        0.44558305708321
C           -4.28351507471890        0.65160494686716       -0.34754416823786
O           -5.18885299126974        1.45203169843603       -0.57138219440302
C           -2.90664641175003        0.69116346576624       -0.80974124789623
C           -2.46599715590543        1.76664949741463       -1.63691125409886
O           -3.16112429837274        2.76600764517583       -1.98367494200578
C           -1.05905047670330        1.65169485560350       -2.13869679789812
O           -0.54594966003769        2.42403349140585       -2.96380452464703
N           -0.32788865829965        0.60176098620685       -1.66914410251660
C           -0.76121626349429       -0.37494036790413       -0.68073879922623
C           -0.33362631617932       -1.76326780353703       -1.19963911363949
C           -0.01101279942900       -0.04325185838321        0.72084171755144
C           -0.60680997331374       -0.90906185053710        1.83410735424894
C           -0.25804815095775        1.43161493272684        1.06622400268292
N            1.42114990645014       -0.20566219439786        0.60335508243167
C            2.15627206420782       -1.35579767861791        0.71619050165672
O            1.68788957291956       -2.47407659905631        1.01487855615534
C            3.56647323704990       -1.15664730906439        0.46194730515096
N            4.53196221991186       -2.06011095170299        0.52364757746249
N            5.69917558094538       -1.40495549516088        0.23402901369790
C            5.40011713409170       -0.16690117003760        0.01617219188440
C            6.32859303966815        0.93593132618353       -0.33137841278325
O            4.07538722970680        0.07942128522333        0.13925978611839
N           -2.14897578720722       -0.38437559496546       -0.44352041587026
H           -6.59765679854321       -0.56206306007474        0.11186062043352
H           -6.11088835446639        0.29791145427668        1.59097247848608
H           -5.94536357917880       -1.47567629245220        1.49823521233803
H            0.62694232622570        0.54385031586361       -1.98182656058120
H           -0.88687023552550       -1.97227468660953       -2.11498293522195
H            0.73062857663754       -1.78728425655494       -1.42204380224211
H           -0.56805680040048       -2.53292424460131       -0.46806574196439
H           -0.49781893075735       -1.97250793020043        1.63354136368077
H           -1.67162332656407       -0.68417977832779        1.91433090948415
H           -0.12287447429503       -0.68420405786700        2.78476206209442
H           -1.32886517452085        1.63152883183586        1.10931801007749
H            0.19202542159242        2.08491585728836        0.31922237603165
H            0.18027154401400        1.66484394456906        2.03605434912780
H            1.93057097318094        0.61344231356567        0.30961467939231
H            7.33999290274564        0.54591964568881       -0.41452374585604
H            6.03771474699230        1.39281592227243       -1.27737995033584
H            6.30325815384171        1.70818454130225        0.43737104991210

          :  Hamiltonian                  GFN1-xTB          :
         :: total energy             -83.625869473393 Eh    ::
         :: gradient norm              0.000680091331 Eh/a0 ::
         :: HOMO-LUMO gap              0.279840218821 eV    ::
         :: SCC energy               -84.351580913836 Eh    ::
         :: -> Gsolv                  -0.273367877558 Eh    ::
         :: repulsion energy           0.753525974129 Eh    ::

    * Orbital Energies and Occupations

         #    Occupation            Energy/Eh            Energy/eV
      -------------------------------------------------------------
         1        2.0000           -0.8159389             -22.2028
       ...           ...                  ...                  ...
        56        2.0000           -0.4453395             -12.1183
        57        2.0000           -0.4369385             -11.8897
        58        2.0000           -0.4160967             -11.3226
        59        2.0000           -0.4145424             -11.2803
        60        2.0000           -0.4127009             -11.2302
        61        2.0000           -0.4102508             -11.1635
        62        2.0000           -0.4038735             -10.9900
        63        2.0000           -0.4021763             -10.9438
        64        2.0000           -0.3901220             -10.6158
        65        2.0000           -0.3727889             -10.1441
        66        2.0000           -0.3675234             -10.0008
        67        2.0000           -0.3347027              -9.1077
        68        1.9911           -0.2778606              -7.5610 (HOMO)
        69        0.0089           -0.2675767              -7.2811 (LUMO)
        70                         -0.2363512              -6.4314
        71                         -0.2188486              -5.9552
        72                         -0.1634238              -4.4470
        73                         -0.1477499              -4.0205
        74                         -0.1265235              -3.4429
        75                         -0.1127493              -3.0681
        76                         -0.0984282              -2.6784
        77                         -0.0911498              -2.4803
        78                         -0.0874738              -2.3803
        79                         -0.0782734              -2.1299
       ...                                ...                  ...
       134                          0.7592859              20.6612
      -------------------------------------------------------------
                  HL-Gap            0.0102839 Eh            0.2798 eV

Wiberg/Mayer (AO) data.
largest (>0.10) Wiberg bond orders for each atom

     #   Z sym  total        # sym  WBO       # sym  WBO       # sym  WBO
 ---------------------------------------------------------------------------
     1   6 C    3.913 --    28 H    0.987    27 H    0.980    26 H    0.980
                             2 O    0.943
     2   8 O    2.115 --     3 C    0.990     1 C    0.943
     3   6 C    3.813 --     4 O    1.559     5 C    1.125     2 O    0.990
     4   8 O    1.828 --     3 C    1.559
     5   6 C    3.917 --    25 N    1.251     6 C    1.234     3 C    1.125
                             7 O    0.101
     6   6 C    3.878 --     7 O    1.432     5 C    1.234     8 C    0.994
     7   8 O    1.681 --     6 C    1.432     5 C    0.101
     8   6 C    3.872 --     9 O    1.520    10 N    1.195     6 C    0.994
     9   8 O    1.790 --     8 C    1.520    10 N    0.142
    10   7 N    3.303 --     8 C    1.195    11 C    0.926    29 H    0.914
                             9 O    0.142
    11   6 C    3.934 --    25 N    1.071    12 C    0.979    10 N    0.926
                            13 C    0.857
    12   6 C    3.995 --    31 H    0.987    30 H    0.986    32 H    0.982
                            11 C    0.979
    13   6 C    3.925 --    14 C    1.001    15 C    0.999    16 N    0.959
                            11 C    0.857
    14   6 C    3.994 --    13 C    1.001    35 H    0.986    34 H    0.982
                            33 H    0.977
    15   6 C    3.996 --    13 C    0.999    38 H    0.987    37 H    0.983
                            36 H    0.983
    16   7 N    3.314 --    17 C    1.172    13 C    0.959    39 H    0.911
                            18 O    0.142
    17   6 C    3.879 --    18 O    1.441    16 N    1.172    19 C    1.098
    18   8 O    1.766 --    17 C    1.441    16 N    0.142
    19   6 C    3.745 --    20 N    1.470    17 C    1.098    24 O    0.990
    20   7 N    2.807 --    19 C    1.470    21 N    1.182
    21   7 N    2.980 --    22 C    1.633    20 N    1.182
    22   6 C    3.832 --    21 N    1.633    24 O    1.048    23 C    1.025
    23   6 C    3.993 --    22 C    1.025    40 H    0.985    41 H    0.970
                            42 H    0.969
    24   8 O    2.221 --    22 C    1.048    19 C    0.990
    25   7 N    2.721 --     5 C    1.251    11 C    1.071
    26   1 H    1.019 --     1 C    0.980
    27   1 H    1.017 --     1 C    0.980
    28   1 H    1.019 --     1 C    0.987
    29   1 H    0.963 --    10 N    0.914
    30   1 H    1.020 --    12 C    0.986
    31   1 H    1.010 --    12 C    0.987
    32   1 H    1.022 --    12 C    0.982
    33   1 H    1.026 --    14 C    0.977
    34   1 H    1.029 --    14 C    0.982
    35   1 H    1.007 --    14 C    0.986
    36   1 H    1.014 --    15 C    0.983
    37   1 H    1.008 --    15 C    0.983
    38   1 H    1.006 --    15 C    0.987
    39   1 H    0.959 --    16 N    0.911
    40   1 H    1.003 --    23 C    0.985
    41   1 H    1.000 --    23 C    0.970
    42   1 H    1.000 --    23 C    0.969
 ---------------------------------------------------------------------------

           -------------------------------------------------
          | TOTAL ENERGY              -83.625869473393 Eh   |
          | GRADIENT NORM               0.000680091331 Eh/α |
          | HOMO-LUMO GAP               0.279840218821 eV   |
           -------------------------------------------------

 * finished run on 2023/06/21 at 17:15:22.244
