   * xtb version 6.5.1 (579679a) compiled by 'ehlert@majestix' on 2022-07-11
          program call               : /lustre/hpc/kemi/ree/PhD/git/ReactivityQM/dep/xtb-6.5.1/bin/xtb --gfn 1 /lustre/hpc/kemi/ree/PhD/git/ReactivityQM/calculations/R02methylcation/reac01prodE06/conf20/R02methylcation_reac01prodE06_conf20_gfn1.xyz --opt --vfukui --chrg -2 --uhf 0 --alpb DMSO

   ID    Z sym.   atoms
    1    6 C      1, 3, 5, 6, 8, 11-15, 17, 19, 22, 23
    2    8 O      2, 4, 7, 9, 18, 24
    3    7 N      10, 16, 20, 21, 25
    4    1 H      26-42

      * Solvation model:               ALPB
        Solvent                        DMSO
        Solvent mass                       7.8130E+01 g/mol
          :  Hamiltonian                  GFN1-xTB          :
 * total energy  :   -83.6047029 Eh     change       -0.5298375E-09 Eh
 * total energy  :   -83.6156104 Eh     change       -0.1090750E-01 Eh
 * total energy  :   -83.6191056 Eh     change       -0.3495269E-02 Eh
 * total energy  :   -83.6196998 Eh     change       -0.5941578E-03 Eh
 * total energy  :   -83.6202198 Eh     change       -0.5200061E-03 Eh
 * total energy  :   -83.6206173 Eh     change       -0.3975382E-03 Eh
 * total energy  :   -83.6210395 Eh     change       -0.4221506E-03 Eh
 * total energy  :   -83.6214382 Eh     change       -0.3986919E-03 Eh
 * total energy  :   -83.6216806 Eh     change       -0.2423791E-03 Eh
 * total energy  :   -83.6218031 Eh     change       -0.1225052E-03 Eh
 * total energy  :   -83.6224801 Eh     change       -0.1521634E-04 Eh
 * total energy  :   -83.6224924 Eh     change       -0.1232047E-04 Eh
 * total energy  :   -83.6225057 Eh     change       -0.1326961E-04 Eh
 * total energy  :   -83.6225114 Eh     change       -0.5788987E-05 Eh
 * total energy  :   -83.6225165 Eh     change       -0.5053212E-05 Eh
 * total energy  :   -83.6225234 Eh     change       -0.6942514E-05 Eh
 * total energy  :   -83.6225315 Eh     change       -0.8056958E-05 Eh
 * total energy  :   -83.6225377 Eh     change       -0.6241088E-05 Eh
 * total energy  :   -83.6225420 Eh     change       -0.4227924E-05 Eh
   *** GEOMETRY OPTIMIZATION CONVERGED AFTER 39 ITERATIONS ***

 final structure:
================
42
 xtb: 6.5.1 (579679a)
C           -3.92251000625046        3.51354295299136       -0.22385488211144
O           -3.34051826784940        2.37634512496701       -0.83143297755968
C           -2.59126499794222        1.58115176497954        0.00029752071490
O           -2.47205268775139        1.89895117985567        1.18672328611196
C           -1.98676835954448        0.41519140574544       -0.62341400176952
C           -2.16042981201290        0.09963591524718       -2.00332640748197
O           -2.96635442665001        0.66361144220496       -2.80478527194605
C           -1.24418689287724       -0.96061045309902       -2.53075324641198
O           -1.09341622091252       -1.21565154380757       -3.73518607653368
N           -0.45520913052393       -1.60489381630859       -1.60983705434811
C           -0.79934858679963       -1.60485180875474       -0.19053053693920
C           -1.94261710689182       -2.62997770361445        0.03523280646452
C            0.48203114979739       -1.95158219156880        0.64236063402638
C            1.14270458046854       -3.27204482466258        0.23547776519080
C            0.13136047065672       -1.97451544681021        2.13872142635134
N            1.38617659570950       -0.83488700647535        0.36451786099091
C            2.61230423525633       -0.68960269001831        0.94401854579465
O            3.18764883819581       -1.57558604793005        1.60396343322517
C            3.24156522104535        0.59352934220745        0.68052179015830
N            4.41997684089363        1.00965802934576        1.11646986380335
N            4.58512243578624        2.28088048197973        0.64239838558773
C            3.52625029943678        2.57545876159485       -0.04148334811107
C            3.25072840945799        3.84751884162874       -0.75233917801759
O            2.62723553140643        1.56724230178200       -0.06771837887493
N           -1.20463512791382       -0.30225167135299        0.24128003630347
H           -4.46969482677701        4.05228644164435       -0.99798128476724
H           -3.15573103155886        4.17009465259349        0.20364702603334
H           -4.61431215364618        3.22324016041138        0.57534712786716
H            0.01884286224003       -2.42218237413517       -1.95958789732768
H           -2.78489884849429       -2.36170342325486       -0.60256250914680
H           -2.27271696124265       -2.60427209021371        1.07127479865841
H           -1.62367440977528       -3.63877990074355       -0.21756967946442
H            1.52876793054586       -3.21863715443573       -0.78164602215656
H            1.97397611174658       -3.49747343916286        0.90270067886409
H            0.42684428561091       -4.08933705651472        0.29820733311093
H            1.03917667561606       -1.99949864284978        2.74028211334110
H           -0.44384793377362       -1.08284853096932        2.39360004434825
H           -0.45756914103247       -2.85903604989993        2.37523681182708
H            0.87738392820171        0.01633900497227        0.11663646443149
H            3.04072227503012        3.65723933047846       -1.80478184450249
H            2.38585011535660        4.34934316029123       -0.31811950085387
H            4.11708913776417        4.49896357166421       -0.66995965487826

          :  Hamiltonian                  GFN1-xTB          :
         :: total energy             -83.622541970909 Eh    ::
         :: gradient norm              0.000693662392 Eh/a0 ::
         :: HOMO-LUMO gap              0.103502021833 eV    ::
         :: SCC energy               -84.342770966478 Eh    ::
         :: -> Gsolv                  -0.269703736634 Eh    ::
         :: repulsion energy           0.747572796373 Eh    ::

    * Orbital Energies and Occupations

         #    Occupation            Energy/Eh            Energy/eV
      -------------------------------------------------------------
         1        2.0000           -0.8185773             -22.2746
       ...           ...                  ...                  ...
        56        2.0000           -0.4413921             -12.0109
        57        2.0000           -0.4372176             -11.8973
        58        2.0000           -0.4197334             -11.4215
        59        2.0000           -0.4164372             -11.3318
        60        2.0000           -0.4132206             -11.2443
        61        2.0000           -0.4078855             -11.0991
        62        2.0000           -0.4026510             -10.9567
        63        2.0000           -0.3965654             -10.7911
        64        2.0000           -0.3905872             -10.6284
        65        2.0000           -0.3787539             -10.3064
        66        2.0000           -0.3631795              -9.8826
        67        2.0000           -0.3344881              -9.1019
        68        1.7620           -0.2758210              -7.5055 (HOMO)
        69        0.2380           -0.2720174              -7.4020 (LUMO)
        70                         -0.2364546              -6.4343
        71                         -0.2220991              -6.0436
        72                         -0.1641496              -4.4667
        73                         -0.1519386              -4.1345
        74                         -0.1288986              -3.5075
        75                         -0.1104010              -3.0042
        76                         -0.1068316              -2.9070
        77                         -0.0996716              -2.7122
        78                         -0.0865865              -2.3561
        79                         -0.0825043              -2.2451
       ...                                ...                  ...
       134                          0.7404499              20.1487
      -------------------------------------------------------------
                  HL-Gap            0.0038036 Eh            0.1035 eV

Wiberg/Mayer (AO) data.
largest (>0.10) Wiberg bond orders for each atom

     #   Z sym  total        # sym  WBO       # sym  WBO       # sym  WBO
 ---------------------------------------------------------------------------
     1   6 C    3.912 --    26 H    0.987    28 H    0.980    27 H    0.980
                             2 O    0.940
     2   8 O    2.132 --     3 C    1.011     1 C    0.940     4 O    0.100
     3   6 C    3.816 --     4 O    1.544     5 C    1.122     2 O    1.011
     4   8 O    1.814 --     3 C    1.544     2 O    0.100
     5   6 C    3.912 --    25 N    1.252     6 C    1.239     3 C    1.122
     6   6 C    3.874 --     7 O    1.418     5 C    1.239     8 C    1.000
     7   8 O    1.665 --     6 C    1.418
     8   6 C    3.861 --     9 O    1.530    10 N    1.169     6 C    1.000
     9   8 O    1.793 --     8 C    1.530    10 N    0.131
    10   7 N    3.256 --     8 C    1.169    11 C    0.924    29 H    0.915
                             9 O    0.131
    11   6 C    3.941 --    25 N    1.026    12 C    0.964    13 C    0.947
                            10 N    0.924
    12   6 C    3.976 --    30 H    0.984    32 H    0.984    31 H    0.984
                            11 C    0.964
    13   6 C    3.938 --    14 C    1.000    15 C    0.991    11 C    0.947
                            16 N    0.937
    14   6 C    3.994 --    13 C    1.000    35 H    0.984    33 H    0.982
                            34 H    0.979
    15   6 C    3.993 --    13 C    0.991    38 H    0.985    36 H    0.983
                            37 H    0.981
    16   7 N    3.269 --    17 C    1.197    13 C    0.937    39 H    0.887
                            18 O    0.142
    17   6 C    3.841 --    18 O    1.465    16 N    1.197    19 C    1.080
    18   8 O    1.751 --    17 C    1.465    16 N    0.142
    19   6 C    3.750 --    20 N    1.477    17 C    1.080    24 O    0.996
    20   7 N    2.810 --    19 C    1.477    21 N    1.189
    21   7 N    2.980 --    22 C    1.624    20 N    1.189
    22   6 C    3.831 --    21 N    1.624    24 O    1.055    23 C    1.026
    23   6 C    3.993 --    22 C    1.026    42 H    0.985    40 H    0.971
                            41 H    0.968
    24   8 O    2.233 --    22 C    1.055    19 C    0.996
    25   7 N    2.679 --     5 C    1.252    11 C    1.026
    26   1 H    1.018 --     1 C    0.987
    27   1 H    1.018 --     1 C    0.980
    28   1 H    1.018 --     1 C    0.980
    29   1 H    0.968 --    10 N    0.915
    30   1 H    1.011 --    12 C    0.984
    31   1 H    1.013 --    12 C    0.984
    32   1 H    1.007 --    12 C    0.984
    33   1 H    1.008 --    14 C    0.982
    34   1 H    1.021 --    14 C    0.979
    35   1 H    1.007 --    14 C    0.984
    36   1 H    1.015 --    15 C    0.983
    37   1 H    1.029 --    15 C    0.981
    38   1 H    1.007 --    15 C    0.985
    39   1 H    0.982 --    16 N    0.887
    40   1 H    1.000 --    23 C    0.971
    41   1 H    0.999 --    23 C    0.968
    42   1 H    1.003 --    23 C    0.985
 ---------------------------------------------------------------------------

           -------------------------------------------------
          | TOTAL ENERGY              -83.622541970909 Eh   |
          | GRADIENT NORM               0.000693662392 Eh/α |
          | HOMO-LUMO GAP               0.103502021833 eV   |
           -------------------------------------------------

 * finished run on 2023/06/21 at 17:15:10.809
