   * xtb version 6.5.1 (579679a) compiled by 'ehlert@majestix' on 2022-07-11
          program call               : /lustre/hpc/kemi/ree/PhD/git/ReactivityQM/dep/xtb-6.5.1/bin/xtb --gfn 1 /lustre/hpc/kemi/ree/PhD/git/ReactivityQM/calculations/R02deprot/reac01prodN13/conf11/R02deprot_reac01prodN13_conf11_gfn1.xyz --opt --vfukui --chrg 0 --uhf 0 --alpb DMSO

   ID    Z sym.   atoms
    1    6 C      1, 3, 5, 7-10, 12, 14, 15, 18, 19, 22, 24
    2    8 O      2, 4, 13, 20, 23, 25
    3    7 N      6, 11, 16, 17, 21
    4    1 H      26-42

      * Solvation model:               ALPB
        Solvent                        DMSO
        Solvent mass                       7.8130E+01 g/mol
          :  Hamiltonian                  GFN1-xTB          :
 * total energy  :   -82.9237121 Eh     change       -0.4452261E-10 Eh
 * total energy  :   -82.9347483 Eh     change       -0.1103617E-01 Eh
 * total energy  :   -82.9386721 Eh     change       -0.3923758E-02 Eh
 * total energy  :   -82.9395019 Eh     change       -0.8298896E-03 Eh
 * total energy  :   -82.9401872 Eh     change       -0.6852633E-03 Eh
 * total energy  :   -82.9404885 Eh     change       -0.3013357E-03 Eh
 * total energy  :   -82.9406781 Eh     change       -0.1895662E-03 Eh
 * total energy  :   -82.9408149 Eh     change       -0.1368200E-03 Eh
 * total energy  :   -82.9409084 Eh     change       -0.9342616E-04 Eh
 * total energy  :   -82.9409830 Eh     change       -0.7460046E-04 Eh
 * total energy  :   -82.9870990 Eh     change       -0.3999137E-04 Eh
 * total energy  :   -82.9871261 Eh     change       -0.2709259E-04 Eh
 * total energy  :   -82.9871412 Eh     change       -0.1509672E-04 Eh
 * total energy  :   -82.9871606 Eh     change       -0.1935606E-04 Eh
 * total energy  :   -82.9871786 Eh     change       -0.1797930E-04 Eh
 * total energy  :   -82.9871862 Eh     change       -0.7664383E-05 Eh
 * total energy  :   -82.9871942 Eh     change       -0.7943597E-05 Eh
 * total energy  :   -82.9872001 Eh     change       -0.5939788E-05 Eh
 * total energy  :   -82.9872021 Eh     change       -0.2011964E-05 Eh
   *** GEOMETRY OPTIMIZATION CONVERGED AFTER 153 ITERATIONS ***

 final structure:
================
42
 xtb: 6.5.1 (579679a)
C            6.21820224341680       -0.45194816100597       -0.19504637310411
O            4.81694990541905       -0.21730519350684       -0.03248578672100
C            4.44744767108536        0.42286783820618        1.07732951204337
O            5.23120824900878        0.79047227339378        1.92060011558073
C            2.96662944366354        0.62302857744957        1.13835817321886
N            2.23567800724891        0.07951252082677        0.14581826515831
C            0.92873359332066        0.21890516359568        0.15659114702641
C            0.17219197392848       -0.38678122639790       -1.00777692644764
C            0.45889783818143        0.46486409737424       -2.25556982099220
C            0.62771359814954       -1.83726278097249       -1.21443648175143
N           -1.25600973387731       -0.34509103507025       -0.69417742224611
C           -2.20138121623449       -0.78364344711477       -1.52667550521367
O           -2.01129485860340       -1.31123643258672       -2.61077211020716
C           -3.65175836560236       -0.57452428965158       -1.02312548822730
C           -4.43176869921741        0.26029343164306       -2.03849214703242
N           -4.28038393208565       -1.88749491628185       -0.87806493781405
N           -4.66589839298267       -2.04521823742861        0.28940391731719
C           -4.35688419905244       -0.90946980523341        1.05548698348797
C           -4.66744595138101       -0.74523700194774        2.33852984972560
O           -3.70431674681337       -0.01166491381584        0.26833892087245
N            0.23896959940794        0.88623033950061        1.09709141445340
C            0.92725736634006        1.43481893422547        2.07329475244194
O            0.31245542166161        2.12098809653325        3.03955914828547
C            2.33889682299674        1.33172791984972        2.15198022495662
O            3.00303101285335        1.90642902696497        3.16564876047168
H            6.59231225441441       -1.07498694010524        0.62094274424435
H            6.75962448965303        0.49719761811850       -0.20171157427373
H            6.34020340480381       -0.96305499950914       -1.14768715096599
H           -0.02628586354117        0.03150553053597       -3.12834120322559
H            0.08627579612022        1.47671193077401       -2.10458538839211
H            1.53411031891491        0.50246262723885       -2.42431229305436
H            1.71124127256554       -1.85682031487380       -1.32276111473541
H            0.34630300229366       -2.44083688986890       -0.35254369029723
H            0.17120397058644       -2.25537080001311       -2.10968385735340
H           -1.51709643911249        0.14251035824108        0.15303752315405
H           -5.47929466074927        0.30039779900270       -1.74875336813240
H           -4.33701842473960       -0.19504431206241       -3.02222540103053
H           -4.02571603831951        1.26861956821082       -2.06030096803273
H           -0.64283025257639        2.15911387065464        2.90333885777860
H           -4.41489453464810        0.15888167077426        2.86611986875563
H           -5.18438029187578       -1.52147992662608        2.87708430013370
H            2.38912134539513        2.36040243098430        3.76097653011505

          :  Hamiltonian                  GFN1-xTB          :
         :: total energy             -82.987202124508 Eh    ::
         :: gradient norm              0.000410357646 Eh/a0 ::
         :: HOMO-LUMO gap              2.479135242510 eV    ::
         :: SCC energy               -83.769719517104 Eh    ::
         :: -> Gsolv                  -0.057636518226 Eh    ::
         :: repulsion energy           0.808691385349 Eh    ::

    * Orbital Energies and Occupations

         #    Occupation            Energy/Eh            Energy/eV
      -------------------------------------------------------------
         1        2.0000           -0.8399659             -22.8566
       ...           ...                  ...                  ...
        55        2.0000           -0.5002648             -13.6129
        56        2.0000           -0.4983279             -13.5602
        57        2.0000           -0.4973585             -13.5338
        58        2.0000           -0.4967175             -13.5164
        59        2.0000           -0.4813965             -13.0995
        60        2.0000           -0.4797317             -13.0542
        61        2.0000           -0.4712786             -12.8241
        62        2.0000           -0.4607871             -12.5387
        63        2.0000           -0.4501901             -12.2503
        64        2.0000           -0.4403315             -11.9820
        65        2.0000           -0.4356254             -11.8540
        66        2.0000           -0.4319248             -11.7533
        67        2.0000           -0.4219961             -11.4831 (HOMO)
        68                         -0.3308895              -9.0040 (LUMO)
        69                         -0.3236945              -8.8082
        70                         -0.2835637              -7.7162
        71                         -0.2532906              -6.8924
        72                         -0.2388158              -6.4985
        73                         -0.2105628              -5.7297
        74                         -0.1553420              -4.2271
        75                         -0.1385327              -3.7697
        76                         -0.1254884              -3.4147
        77                         -0.1196347              -3.2554
        78                         -0.1180583              -3.2125
       ...                                ...                  ...
       134                          0.7298517              19.8603
      -------------------------------------------------------------
                  HL-Gap            0.0911065 Eh            2.4791 eV

Wiberg/Mayer (AO) data.
largest (>0.10) Wiberg bond orders for each atom

     #   Z sym  total        # sym  WBO       # sym  WBO       # sym  WBO
 ---------------------------------------------------------------------------
     1   6 C    3.872 --    28 H    0.986    26 H    0.979    27 H    0.979
                             2 O    0.898
     2   8 O    2.203 --     3 C    1.114     1 C    0.898     4 O    0.136
     3   6 C    3.849 --     4 O    1.666     2 O    1.114     5 C    0.991
     4   8 O    1.929 --     3 C    1.666     2 O    0.136
     5   6 C    3.969 --    24 C    1.396     6 N    1.300     3 C    0.991
     6   7 N    3.030 --     7 C    1.463     5 C    1.300
     7   6 C    3.944 --     6 N    1.463    21 N    1.309     8 C    0.985
     8   6 C    3.937 --    10 C    0.985     7 C    0.985     9 C    0.975
                            11 N    0.926
     9   6 C    3.990 --    30 H    0.986    31 H    0.985    29 H    0.981
                             8 C    0.975
    10   6 C    3.991 --    33 H    0.986     8 C    0.985    32 H    0.984
                            34 H    0.982
    11   7 N    3.367 --    12 C    1.313     8 C    0.926    35 H    0.877
                            13 O    0.175
    12   6 C    3.907 --    13 O    1.591    11 N    1.313    14 C    0.894
    13   8 O    1.906 --    12 C    1.591    11 N    0.175
    14   6 C    3.882 --    16 N    0.974    15 C    0.960    20 O    0.925
                            12 C    0.894
    15   6 C    3.986 --    36 H    0.983    38 H    0.983    37 H    0.983
                            14 C    0.960
    16   7 N    3.011 --    17 N    1.820    14 C    0.974    19 C    0.119
    17   7 N    3.023 --    16 N    1.820    18 C    1.068
    18   6 C    3.884 --    19 C    1.756    17 N    1.068    20 O    1.006
    19   6 C    3.976 --    18 C    1.756    41 H    0.978    40 H    0.976
                            16 N    0.119
    20   8 O    2.145 --    18 C    1.006    14 C    0.925
    21   7 N    3.043 --    22 C    1.416     7 C    1.309
    22   6 C    3.906 --    21 N    1.416    24 C    1.215    23 O    1.091
    23   8 O    2.077 --    22 C    1.091    39 H    0.807
    24   6 C    3.924 --     5 C    1.396    22 C    1.215    25 O    1.092
    25   8 O    2.069 --    24 C    1.092    42 H    0.815
    26   1 H    1.007 --     1 C    0.979
    27   1 H    1.007 --     1 C    0.979
    28   1 H    1.011 --     1 C    0.986
    29   1 H    1.009 --     9 C    0.981
    30   1 H    1.003 --     9 C    0.986
    31   1 H    1.006 --     9 C    0.985
    32   1 H    1.013 --    10 C    0.984
    33   1 H    1.003 --    10 C    0.986
    34   1 H    1.011 --    10 C    0.982
    35   1 H    0.960 --    11 N    0.877
    36   1 H    1.001 --    15 C    0.983
    37   1 H    1.005 --    15 C    0.983
    38   1 H    1.001 --    15 C    0.983
    39   1 H    0.834 --    23 O    0.807
    40   1 H    0.997 --    19 C    0.976
    41   1 H    1.000 --    19 C    0.978
    42   1 H    0.843 --    25 O    0.815
 ---------------------------------------------------------------------------

           -------------------------------------------------
          | TOTAL ENERGY              -82.987202124508 Eh   |
          | GRADIENT NORM               0.000410357646 Eh/α |
          | HOMO-LUMO GAP               2.479135242510 eV   |
           -------------------------------------------------

 * finished run on 2023/06/20 at 18:21:43.558
