                         Program Version 5.0.1 -  RELEASE  -
|  1> # ORCA input file
|  2> ! SP r2SCAN-3c CPCM
|  3>
|  4> %maxcore 1875.0
|  5> %pal nprocs 4 end
|  6> %cpcm smd true SMDsolvent "DMSO" end
|  7>
|  8> *xyz -1 1
|  9> C       2.785904    0.330611   -0.151968
| 10> C       1.399909   -0.024898    0.216843
| 11> N       0.958308   -0.404083    1.378595
| 12> N      -0.373076   -0.618100    1.240954
| 13> C      -0.673456   -0.357997    0.002309
| 14> C      -1.996208   -0.436163   -0.651440
| 15> C      -2.003290   -0.039258   -2.098125
| 16> O      -2.979120   -0.789125   -0.042303
| 17> Cl     -0.953651    0.846450    7.218707
| 18> O       0.420319    0.025387   -0.694514
| 19> H       2.834699    1.379834   -0.443098
| 20> H       3.449632    0.155584    0.691279
| 21> H       3.106631   -0.267390   -1.003781
| 22> H      -1.724236    1.010148   -2.179375
| 23> H      -2.990508   -0.192058   -2.525611
| 24> H      -1.261855   -0.618943   -2.644156
| 25> **                         ****END OF INPUT****

CARTESIAN COORDINATES (ANGSTROEM)
---------------------------------
  C      2.785904    0.330611   -0.151968
  C      1.399909   -0.024898    0.216843
  N      0.958308   -0.404083    1.378595
  N     -0.373076   -0.618100    1.240954
  C     -0.673456   -0.357997    0.002309
  C     -1.996208   -0.436163   -0.651440
  C     -2.003290   -0.039258   -2.098125
  O     -2.979120   -0.789125   -0.042303
  Cl    -0.953651    0.846450    7.218707
  O      0.420319    0.025387   -0.694514
  H      2.834699    1.379834   -0.443098
  H      3.449632    0.155584    0.691279
  H      3.106631   -0.267390   -1.003781
  H     -1.724236    1.010148   -2.179375
  H     -2.990508   -0.192058   -2.525611
  H     -1.261855   -0.618943   -2.644156

 Total Charge           Charge          ....   -1
 Multiplicity           Mult            ....    1
 Number of Electrons    NEL             ....   84
 Basis Dimension        Dim             ....  248

ORBITAL ENERGIES
----------------

  NO   OCC          E(Eh)            E(eV)
   0   2.0000    -101.069816     -2750.2495
   1   2.0000     -19.063746      -518.7509
   2   2.0000     -18.956857      -515.8423
   3   2.0000     -14.206778      -386.5861
   4   2.0000     -14.197662      -386.3380
   5   2.0000     -10.147711      -276.1332
   6   2.0000     -10.143843      -276.0280
   7   2.0000     -10.137754      -275.8623
   8   2.0000     -10.044738      -273.3312
   9   2.0000     -10.031340      -272.9666
  10   2.0000      -9.226038      -251.0533
  11   2.0000      -6.965576      -189.5430
  12   2.0000      -6.965574      -189.5429
  13   2.0000      -6.965541      -189.5420
  14   2.0000      -1.154323       -31.4107
  15   2.0000      -1.027615       -27.9628
  16   2.0000      -0.976493       -26.5717
  17   2.0000      -0.830898       -22.6099
  18   2.0000      -0.732980       -19.9454
  19   2.0000      -0.711219       -19.3532
  20   2.0000      -0.648199       -17.6384
  21   2.0000      -0.623837       -16.9755
  22   2.0000      -0.599120       -16.3029
  23   2.0000      -0.557190       -15.1619
  24   2.0000      -0.494227       -13.4486
  25   2.0000      -0.477850       -13.0030
  26   2.0000      -0.439700       -11.9648
  27   2.0000      -0.419927       -11.4268
  28   2.0000      -0.417594       -11.3633
  29   2.0000      -0.397965       -10.8292
  30   2.0000      -0.387874       -10.5546
  31   2.0000      -0.380877       -10.3642
  32   2.0000      -0.369242       -10.0476
  33   2.0000      -0.349723        -9.5164
  34   2.0000      -0.340077        -9.2540
  35   2.0000      -0.314213        -8.5502
  36   2.0000      -0.266661        -7.2562
  37   2.0000      -0.262943        -7.1550
  38   2.0000      -0.239176        -6.5083
  39   2.0000      -0.186627        -5.0784
  40   2.0000      -0.186622        -5.0782
  41   2.0000      -0.186553        -5.0764
  42   0.0000      -0.105845        -2.8802
  43   0.0000      -0.022471        -0.6115
  44   0.0000       0.035465         0.9651
  45   0.0000       0.065517         1.7828
  46   0.0000       0.092999         2.5306

MULLIKEN ATOMIC CHARGES
-----------------------
   0 C :   -0.638483
   1 C :    0.392751
   2 N :   -0.267460
   3 N :   -0.176498
   4 C :    0.354293
   5 C :    0.036371
   6 C :   -0.528199
   7 O :   -0.337662
   8 Cl:   -0.999967
   9 O :   -0.036517
  10 H :    0.203847
  11 H :    0.205557
  12 H :    0.200109
  13 H :    0.203280
  14 H :    0.193817
  15 H :    0.194760
Sum of atomic charges:   -1.0000000

LOEWDIN ATOMIC CHARGES
----------------------
   0 C :   -0.316459
   1 C :    0.381242
   2 N :   -0.356375
   3 N :   -0.326872
   4 C :    0.377481
   5 C :    0.277381
   6 C :   -0.361752
   7 O :   -0.431536
   8 Cl:   -0.999979
   9 O :   -0.387114
  10 H :    0.193450
  11 H :    0.191475
  12 H :    0.191847
  13 H :    0.194738
  14 H :    0.180971
  15 H :    0.191501

  Mayer bond orders larger than 0.100000
B(  0-C ,  1-C ) :   0.8439 B(  0-C , 10-H ) :   0.9367 B(  0-C , 11-H ) :   0.9854
B(  0-C , 12-H ) :   0.9447 B(  1-C ,  2-N ) :   1.6149 B(  1-C ,  9-O ) :   1.1040
B(  2-N ,  3-N ) :   1.2998 B(  3-N ,  4-C ) :   1.6470 B(  4-C ,  5-C ) :   0.8342
B(  4-C ,  9-O ) :   1.0673 B(  5-C ,  6-C ) :   0.9651 B(  5-C ,  7-O ) :   2.0053
B(  6-C , 13-H ) :   0.9305 B(  6-C , 14-H ) :   0.9645 B(  6-C , 15-H ) :   0.9372

Dispersion correction           -0.004444088
FINAL SINGLE POINT ENERGY      -914.341409722250

DIPOLE MOMENT
-------------
                                X             Y             Z
Electronic contribution:     -3.44865      -0.86291      10.44862
Nuclear contribution   :      6.29568       0.26058     -23.72913
                        -----------------------------------------
Total Dipole Moment    :      2.84703      -0.60233     -13.28051
                        -----------------------------------------
Magnitude (a.u.)       :     13.59560
Magnitude (Debye)      :     34.55727

Rotational constants in cm-1:     0.037647     0.010072     0.008110
Rotational constants in MHz :  1128.638573   301.942070   243.122057

                             ****ORCA TERMINATED NORMALLY****
TOTAL RUN TIME: 0 days 0 hours 0 minutes 20 seconds 114 msec
