   * xtb version 6.5.1 (579679a) compiled by 'ehlert@majestix' on 2022-07-11
          program call               : /lustre/hpc/kemi/ree/PhD/git/ReactivityQM/dep/xtb-6.5.1/bin/xtb --gfn 1 /lustre/hpc/kemi/ree/PhD/git/ReactivityQM/calculations/RaltegravirCLI/reac01prodE01/conf07/RaltegravirCLI_reac01prodE01_conf07_gfn1.xyz --opt --vfukui --chrg -1 --uhf 0 --alpb DMSO

   ID    Z sym.   atoms
    1    6 C      1, 2, 5-7
    2    7 N      3, 4
    3    8 O      8, 10
    4   17 Cl     9
    5    1 H      11-16

      * Solvation model:               ALPB
        Solvent                        DMSO
        Solvent mass                       7.8130E+01 g/mol
          :  Hamiltonian                  GFN1-xTB          :
 * total energy  :   -34.1579525 Eh     change       -0.2820855E-11 Eh
 * total energy  :   -34.1684405 Eh     change       -0.1048801E-01 Eh
 * total energy  :   -34.1776196 Eh     change       -0.9179158E-02 Eh
 * total energy  :   -34.1805745 Eh     change       -0.2954826E-02 Eh
 * total energy  :   -34.1845944 Eh     change       -0.4019964E-02 Eh
 * total energy  :   -34.1878186 Eh     change       -0.3224177E-02 Eh
 * total energy  :   -34.1925971 Eh     change       -0.4778516E-02 Eh
 * total energy  :   -34.1951152 Eh     change       -0.2518046E-02 Eh
 * total energy  :   -34.1969600 Eh     change       -0.1844808E-02 Eh
 * total energy  :   -34.1988473 Eh     change       -0.1887294E-02 Eh
 * total energy  :   -34.2128750 Eh     change       -0.2041439E-04 Eh
 * total energy  :   -34.2128936 Eh     change       -0.1859801E-04 Eh
 * total energy  :   -34.2129042 Eh     change       -0.1055289E-04 Eh
 * total energy  :   -34.2129120 Eh     change       -0.7812244E-05 Eh
 * total energy  :   -34.2129303 Eh     change       -0.1827055E-04 Eh
 * total energy  :   -34.2129387 Eh     change       -0.8433608E-05 Eh
 * total energy  :   -34.2129507 Eh     change       -0.1198898E-04 Eh
 * total energy  :   -34.2129606 Eh     change       -0.9923572E-05 Eh
 * total energy  :   -34.2129654 Eh     change       -0.4738864E-05 Eh
   *** GEOMETRY OPTIMIZATION CONVERGED AFTER 83 ITERATIONS ***

 final structure:
================
16
 xtb: 6.5.1 (579679a)
C            2.78590360044288        0.33061099219247       -0.15196779840531
C            1.39990929109622       -0.02489802664161        0.21684260468154
N            0.95830785343884       -0.40408311264578        1.37859477410238
N           -0.37307583823580       -0.61810046585491        1.24095376024368
C           -0.67345622619688       -0.35799694027979        0.00230883473863
C           -1.99620797986124       -0.43616277338388       -0.65144045146898
C           -2.00328960504386       -0.03925818177803       -2.09812538597147
O           -2.97912012834425       -0.78912487397198       -0.04230271228296
Cl          -0.95365137819518        0.84644990215420        7.21870692462315
O            0.42031922246678        0.02538732645829       -0.69451376875098
H            2.83469872012994        1.37983423926627       -0.44309756564890
H            3.44963166859908        0.15558393360139        0.69127881803596
H            3.10663149347153       -0.26738969893158       -1.00378061185778
H           -1.72423643071220        1.01014839664340       -2.17937514306501
H           -2.99050804439597       -0.19205816689202       -2.52561122458572
H           -1.26185521864519       -0.61894254994182       -2.64415605438794

          :  Hamiltonian                  GFN1-xTB          :
         :: total energy             -34.212965364182 Eh    ::
         :: gradient norm              0.000751588765 Eh/a0 ::
         :: HOMO-LUMO gap              3.285164286654 eV    ::
         :: SCC energy               -34.499706184838 Eh    ::
         :: -> Gsolv                  -0.133785939072 Eh    ::
         :: repulsion energy           0.292584172390 Eh    ::

    * Orbital Energies and Occupations

         #    Occupation            Energy/Eh            Energy/eV
      -------------------------------------------------------------
         1        2.0000           -0.8685446             -23.6343
       ...           ...                  ...                  ...
        16        2.0000           -0.5483079             -14.9202
        17        2.0000           -0.5447694             -14.8239
        18        2.0000           -0.5366228             -14.6022
        19        2.0000           -0.5311082             -14.4522
        20        2.0000           -0.5264027             -14.3241
        21        2.0000           -0.5095380             -13.8652
        22        2.0000           -0.4843049             -13.1786
        23        2.0000           -0.4770216             -12.9804
        24        2.0000           -0.4770216             -12.9804
        25        2.0000           -0.4770216             -12.9804
        26        2.0000           -0.4680392             -12.7360
        27        2.0000           -0.4597646             -12.5108
        28        2.0000           -0.4523832             -12.3100 (HOMO)
        29                         -0.3316556              -9.0248 (LUMO)
        30                         -0.2606812              -7.0935
        31                         -0.2164704              -5.8905
        32                         -0.1439788              -3.9179
        33                         -0.1357533              -3.6940
        34                         -0.0760180              -2.0686
        35                         -0.0756454              -2.0584
        36                         -0.0729652              -1.9855
        37                         -0.0678151              -1.8453
        38                          0.0343816               0.9356
        39                          0.0357478               0.9727
       ...                                ...                  ...
        57                          0.7125668              19.3899
      -------------------------------------------------------------
                  HL-Gap            0.1207276 Eh            3.2852 eV

Wiberg/Mayer (AO) data.
largest (>0.10) Wiberg bond orders for each atom

     #   Z sym  total        # sym  WBO       # sym  WBO       # sym  WBO
 ---------------------------------------------------------------------------
     1   6 C    3.985 --     2 C    1.033    12 H    0.982    13 H    0.964
                            11 H    0.960
     2   6 C    3.869 --     3 N    1.586    10 O    1.088     1 C    1.033
     3   7 N    2.985 --     2 C    1.586     4 N    1.222
     4   7 N    3.007 --     5 C    1.597     3 N    1.222
     5   6 C    3.870 --     4 N    1.597    10 O    1.043     6 C    1.017
     6   6 C    3.867 --     8 O    1.747     5 C    1.017     7 C    1.011
     7   6 C    3.991 --     6 C    1.011    15 H    0.982    16 H    0.960
                            14 H    0.954
     8   8 O    1.972 --     6 C    1.747
     9  17 Cl   0.000
    10   8 O    2.320 --     2 C    1.088     5 C    1.043
    11   1 H    0.996 --     1 C    0.960
    12   1 H    0.998 --     1 C    0.982
    13   1 H    0.996 --     1 C    0.964
    14   1 H    0.997 --     7 C    0.954
    15   1 H    0.999 --     7 C    0.982
    16   1 H    0.998 --     7 C    0.960
 ---------------------------------------------------------------------------

           -------------------------------------------------
          | TOTAL ENERGY              -34.212965364182 Eh   |
          | GRADIENT NORM               0.000751588765 Eh/α |
          | HOMO-LUMO GAP               3.285164286654 eV   |
           -------------------------------------------------

 * finished run on 2023/06/20 at 14:52:06.572
