   * xtb version 6.5.1 (579679a) compiled by 'ehlert@majestix' on 2022-07-11
          program call               : /lustre/hpc/kemi/ree/PhD/git/ReactivityQM/dep/xtb-6.5.1/bin/xtb --gfn 1 /lustre/hpc/kemi/ree/PhD/git/ReactivityQM/calculations/R02methylcation/reac01prodN12/conf06/R02methylcation_reac01prodN12_conf06_gfn1.xyz --opt --vfukui --chrg 0 --uhf 0 --alpb DMSO

   ID    Z sym.   atoms
    1    6 C      1, 3, 5, 7-10, 12, 14, 15, 18, 19, 22, 24
    2    8 O      2, 4, 13, 20, 23, 25
    3    7 N      6, 11, 16, 17, 21
    4    1 H      26-42

      * Solvation model:               ALPB
        Solvent                        DMSO
        Solvent mass                       7.8130E+01 g/mol
          :  Hamiltonian                  GFN1-xTB          :
 * total energy  :   -82.9290203 Eh     change       -0.5246648E-10 Eh
 * total energy  :   -82.9391083 Eh     change       -0.1008794E-01 Eh
 * total energy  :   -82.9429745 Eh     change       -0.3866224E-02 Eh
 * total energy  :   -82.9438138 Eh     change       -0.8392963E-03 Eh
 * total energy  :   -82.9444825 Eh     change       -0.6687384E-03 Eh
 * total energy  :   -82.9449715 Eh     change       -0.4889672E-03 Eh
 * total energy  :   -82.9454679 Eh     change       -0.4963850E-03 Eh
 * total energy  :   -82.9460162 Eh     change       -0.5482926E-03 Eh
 * total energy  :   -82.9465822 Eh     change       -0.5660282E-03 Eh
 * total energy  :   -82.9471456 Eh     change       -0.5633619E-03 Eh
 * total energy  :   -82.9545563 Eh     change       -0.3574259E-04 Eh
 * total energy  :   -82.9546009 Eh     change       -0.4458888E-04 Eh
 * total energy  :   -82.9546489 Eh     change       -0.4796873E-04 Eh
 * total energy  :   -82.9546893 Eh     change       -0.4041912E-04 Eh
 * total energy  :   -82.9547143 Eh     change       -0.2503145E-04 Eh
 * total energy  :   -82.9547376 Eh     change       -0.2324006E-04 Eh
 * total energy  :   -82.9547459 Eh     change       -0.8319806E-05 Eh
 * total energy  :   -82.9547542 Eh     change       -0.8307254E-05 Eh
 * total energy  :   -82.9547588 Eh     change       -0.4591124E-05 Eh
   *** GEOMETRY OPTIMIZATION CONVERGED AFTER 62 ITERATIONS ***

 final structure:
================
42
 xtb: 6.5.1 (579679a)
C            5.83693636169620        1.18271269034266       -1.41903721207524
O            4.57393502315641        0.75934551203334       -0.90893284213995
C            4.46430338905832       -0.55054804705193       -0.61231917003161
O            5.38116069843919       -1.32649863311957       -0.78091224855685
C            3.13219186735952       -0.88692452319343       -0.06954821593267
N            2.25266638512870        0.14145781310241        0.01523673033850
C            1.06681469840644       -0.04633922391278        0.50223926303166
C            0.09109683373912        1.09658995569071        0.61156484290417
C            0.55200112630270        2.28496673437964       -0.23254612662153
C           -0.09700147645276        1.49164171591163        2.07868522106644
N           -1.22078499200366        0.62110606803730        0.12369259024117
C           -1.30379030287361       -0.01840172587456       -1.03800207932757
O           -0.37375769606506       -0.35960010993925       -1.73013406376800
C           -2.77637464769194       -0.37467773213458       -1.48330677205700
C           -3.03020276094199        0.26904051902389       -2.84483354769217
N           -2.87010642176355       -1.79393284915886       -1.49273011281317
N           -3.74491031744907       -2.15780059954264       -0.60888935061983
C           -4.24896797557452       -1.06568867383608       -0.03938249987808
C           -5.27153699964096       -1.02605269512518        1.01376329100656
O           -3.71854845445112        0.04062836218331       -0.51932192239566
N            0.66329852569243       -1.25555792076884        0.99137011354552
C            1.42784116275065       -2.40256426036520        0.94199511367052
O            0.98393395480371       -3.45434295757794        1.36845295469251
C            2.80720841890949       -2.22608309530116        0.33824071319617
O            3.55073444149655       -3.20303193935549        0.24238322817486
H            5.74061042398244        2.24002347226363       -1.65584570170489
H            6.61692628082665        1.03572408921151       -0.66737474432295
H            6.09533995138926        0.61712163487920       -2.31865969612597
H            0.67360932919260        1.98013530440540       -1.27116416561422
H            1.50848357225708        2.64439242041226        0.14395850403203
H           -0.18231598563014        3.08486206360752       -0.17550291386361
H           -0.81346805631558        2.30693715936093        2.15138376203113
H            0.85444744412332        1.81866113445493        2.49509560922811
H           -0.46653263030776        0.64488555896080        2.65397658556857
H           -2.04685707123035        0.96521185532408        0.57975575316223
H           -3.00934509094751        1.35047173279933       -2.73895454097181
H           -4.00612895407588       -0.04219450734317       -3.20921915580034
H           -2.25242088597506       -0.05223368187078       -3.53486579747507
H           -4.86479914507169       -0.54310496671466        1.90289768389527
H           -6.11671735498688       -0.42298802915123        0.67890169076596
H           -5.60245595363740       -2.03248540654331        1.25750811555454
H           -0.25651571563969       -1.33486221849651        1.39309511369135

          :  Hamiltonian                  GFN1-xTB          :
         :: total energy             -82.954758798261 Eh    ::
         :: gradient norm              0.000758159239 Eh/a0 ::
         :: HOMO-LUMO gap              0.138909637991 eV    ::
         :: SCC energy               -83.726360233827 Eh    ::
         :: -> Gsolv                  -0.094278623130 Eh    ::
         :: repulsion energy           0.798775912784 Eh    ::

    * Orbital Energies and Occupations

         #    Occupation            Energy/Eh            Energy/eV
      -------------------------------------------------------------
         1        2.0000           -0.8887269             -24.1835
       ...           ...                  ...                  ...
        55        2.0000           -0.5154477             -14.0260
        56        2.0000           -0.5088801             -13.8473
        57        2.0000           -0.5056243             -13.7587
        58        2.0000           -0.4951104             -13.4726
        59        2.0000           -0.4887672             -13.3000
        60        2.0000           -0.4873804             -13.2623
        61        2.0000           -0.4791782             -13.0391
        62        2.0000           -0.4774115             -12.9910
        63        2.0000           -0.4717763             -12.8377
        64        2.0000           -0.4684884             -12.7482
        65        2.0000           -0.4530131             -12.3271
        66        2.0000           -0.4144374             -11.2774
        67        1.8725           -0.4004770             -10.8975 (HOMO)
        68        0.1275           -0.3953721             -10.7586 (LUMO)
        69                         -0.3026548              -8.2357
        70                         -0.2899898              -7.8910
        71                         -0.2784474              -7.5769
        72                         -0.2757468              -7.5035
        73                         -0.2280003              -6.2042
        74                         -0.1571662              -4.2767
        75                         -0.1482691              -4.0346
        76                         -0.1426495              -3.8817
        77                         -0.1401113              -3.8126
        78                         -0.1332634              -3.6263
       ...                                ...                  ...
       134                          0.7525730              20.4786
      -------------------------------------------------------------
                  HL-Gap            0.0051048 Eh            0.1389 eV

Wiberg/Mayer (AO) data.
largest (>0.10) Wiberg bond orders for each atom

     #   Z sym  total        # sym  WBO       # sym  WBO       # sym  WBO
 ---------------------------------------------------------------------------
     1   6 C    3.881 --    26 H    0.986    27 H    0.980    28 H    0.979
                             2 O    0.908
     2   8 O    2.168 --     3 C    1.077     1 C    0.908     4 O    0.126
     3   6 C    3.840 --     4 O    1.637     2 O    1.077     5 C    1.042
     4   8 O    1.882 --     3 C    1.637     2 O    0.126
     5   6 C    3.758 --     6 N    1.270    24 C    1.182     3 C    1.042
     6   7 N    2.992 --     7 C    1.508     5 C    1.270
     7   6 C    3.867 --     6 N    1.508    21 N    1.155     8 C    0.988
     8   6 C    3.923 --     9 C    0.992     7 C    0.988    10 C    0.980
                            11 N    0.895
     9   6 C    3.988 --     8 C    0.992    31 H    0.985    30 H    0.982
                            29 H    0.982
    10   6 C    3.978 --    34 H    0.983    33 H    0.982    32 H    0.981
                             8 C    0.980
    11   7 N    3.358 --    12 C    1.319     8 C    0.895    35 H    0.884
                            13 O    0.172
    12   6 C    3.888 --    13 O    1.632    11 N    1.319    14 C    0.810
    13   8 O    1.985 --    12 C    1.632    11 N    0.172
    14   6 C    3.851 --    16 N    1.062    15 C    0.936    20 O    0.908
                            12 C    0.810
    15   6 C    3.938 --    36 H    0.981    37 H    0.979    38 H    0.979
                            14 C    0.936
    16   7 N    2.757 --    17 N    1.462    14 C    1.062
    17   7 N    2.971 --    16 N    1.462    18 C    1.357
    18   6 C    3.696 --    17 N    1.357    20 O    1.157    19 C    1.054
    19   6 C    3.973 --    18 C    1.054    41 H    0.979    40 H    0.944
                            39 H    0.942
    20   8 O    2.241 --    18 C    1.157    14 C    0.908
    21   7 N    3.442 --     7 C    1.155    22 C    1.126    42 H    0.890
                            23 O    0.121
    22   6 C    3.857 --    23 O    1.631    21 N    1.126    24 C    0.952
    23   8 O    1.886 --    22 C    1.631    21 N    0.121
    24   6 C    3.882 --    25 O    1.598     5 C    1.182    22 C    0.952
    25   8 O    1.797 --    24 C    1.598
    26   1 H    1.013 --     1 C    0.986
    27   1 H    1.008 --     1 C    0.980
    28   1 H    1.009 --     1 C    0.979
    29   1 H    1.007 --     9 C    0.982
    30   1 H    1.007 --     9 C    0.982
    31   1 H    1.000 --     9 C    0.985
    32   1 H    0.995 --    10 C    0.981
    33   1 H    0.998 --    10 C    0.982
    34   1 H    0.998 --    10 C    0.983
    35   1 H    0.928 --    11 N    0.884
    36   1 H    0.995 --    15 C    0.981
    37   1 H    0.994 --    15 C    0.979
    38   1 H    1.000 --    15 C    0.979
    39   1 H    0.981 --    19 C    0.942
    40   1 H    0.981 --    19 C    0.944
    41   1 H    0.994 --    19 C    0.979
    42   1 H    0.939 --    21 N    0.890
 ---------------------------------------------------------------------------

           -------------------------------------------------
          | TOTAL ENERGY              -82.954758798261 Eh   |
          | GRADIENT NORM               0.000758159239 Eh/α |
          | HOMO-LUMO GAP               0.138909637991 eV   |
           -------------------------------------------------

 * finished run on 2023/06/21 at 17:44:26.760
