   * xtb version 6.5.1 (579679a) compiled by 'ehlert@majestix' on 2022-07-11
          program call               : /lustre/hpc/kemi/ree/PhD/git/ReactivityQM/dep/xtb-6.5.1/bin/xtb --gfn 1 /lustre/hpc/kemi/ree/PhD/git/ReactivityQM/calculations/R02/reac01prodE08/conf01/R02_reac01prodE08_conf01_gfn1.xyz --opt --vfukui --chrg -1 --uhf 0 --alpb DMSO

   ID    Z sym.   atoms
    1    6 C      1, 3, 5, 7-10, 12, 14, 15, 18, 19, 22, 24
    2    8 O      2, 4, 13, 20, 23, 25
    3    7 N      6, 11, 16, 17, 21
    4    1 H      26-43

      * Solvation model:               ALPB
        Solvent                        DMSO
        Solvent mass                       7.8130E+01 g/mol
          :  Hamiltonian                  GFN1-xTB          :
 * total energy  :   -83.8433058 Eh     change       -0.6536993E-12 Eh
 * total energy  :   -83.8559601 Eh     change       -0.1265432E-01 Eh
 * total energy  :   -83.8609704 Eh     change       -0.5010275E-02 Eh
 * total energy  :   -83.8617525 Eh     change       -0.7820929E-03 Eh
 * total energy  :   -83.8621982 Eh     change       -0.4457137E-03 Eh
 * total energy  :   -83.8624182 Eh     change       -0.2199471E-03 Eh
 * total energy  :   -83.8626413 Eh     change       -0.2230898E-03 Eh
 * total energy  :   -83.8628513 Eh     change       -0.2099959E-03 Eh
 * total energy  :   -83.8630737 Eh     change       -0.2224461E-03 Eh
 * total energy  :   -83.8632472 Eh     change       -0.1735239E-03 Eh
 * total energy  :   -83.8642659 Eh     change       -0.3332848E-04 Eh
 * total energy  :   -83.8643171 Eh     change       -0.5116707E-04 Eh
 * total energy  :   -83.8643587 Eh     change       -0.4164400E-04 Eh
 * total energy  :   -83.8643970 Eh     change       -0.3831968E-04 Eh
 * total energy  :   -83.8644220 Eh     change       -0.2497841E-04 Eh
 * total energy  :   -83.8644438 Eh     change       -0.2177832E-04 Eh
 * total energy  :   -83.8644511 Eh     change       -0.7363166E-05 Eh
 * total energy  :   -83.8644573 Eh     change       -0.6158982E-05 Eh
 * total energy  :   -83.8644612 Eh     change       -0.3873850E-05 Eh
   *** GEOMETRY OPTIMIZATION CONVERGED AFTER 42 ITERATIONS ***

 final structure:
================
43
 xtb: 6.5.1 (579679a)
C           -6.67113133250744        1.19404549898857        0.13677901824675
O           -5.40986870259515        0.88055765185597        0.73053688328874
C           -4.45322460633439        0.43536399690902       -0.13008901102866
O           -4.67948236830997        0.31568505361925       -1.32253853450507
C           -3.17292636113276        0.13443061866242        0.51034015350035
N           -2.21154765137677       -0.29584586205987       -0.38241615444506
C           -1.03433051665267       -0.59484905297722        0.03912361365340
C            0.02406362943033       -1.09328070431751       -0.92390201339523
C           -0.42097634326402       -0.84413007057371       -2.36931143364981
C            0.24831107924845       -2.59331410522127       -0.67556669634229
N            1.24916357627477       -0.35247484738911       -0.63681442966575
C            2.41356146892480       -0.51627353204273       -1.28506939418269
O            2.66870298858692       -1.41445719023452       -2.07509333903841
C            3.43922527210995        0.60574985495404       -0.90095316725364
C            4.08093507258786        1.13422439818441       -2.19130091028758
N            2.76461902783347        1.64788541785190       -0.14823906023834
N            3.34721622546272        1.66339410695229        1.08509104437660
C            4.27487351033581        0.77492011566844        1.13365653240245
C            5.15923417488436        0.45779014367964        2.28550843682108
O            4.42974565672588        0.05818547289811       -0.03517275813351
N           -0.68255094841117       -0.50100729693524        1.35652795905374
C           -1.55769793180788       -0.08889030986741        2.35848589584463
O           -1.17380658000431       -0.04001074773587        3.52543567648148
C           -2.87524631381007        0.24458550123192        1.86579264073634
O           -3.74839669349158        0.64956574598737        2.81870726189359
H           -6.55417161634789        1.99247395092279       -0.60108861451949
H           -7.32650200504895        1.52169860279144        0.94061558494271
H           -7.08914796396106        0.31021707546999       -0.35267445467632
H           -1.36237842759627       -1.35926458861100       -2.55345944037622
H            0.33292167975819       -1.21798232209506       -3.05990367604466
H           -0.56615658024921        0.22220366777426       -2.53739888421143
H            0.97291238186315       -2.98663139166324       -1.38641949698322
H            0.61989313593797       -2.75496232194326        0.33504198108158
H           -0.69342408480302       -3.12663534206957       -0.79637050156146
H            1.18882955213553        0.54688648100365       -0.14408346722399
H            4.50907996436942        0.30824577203385       -2.75735436438729
H            4.86360427565548        1.84636180653548       -1.93924071166387
H            3.32172352225050        1.63215749185619       -2.79119066850895
H            4.92229392809698        1.11879074419147        3.11649512142665
H            6.20710287053924        0.58825937363411        2.01128342570028
H            5.02406667116883       -0.57775062200754        2.60242036117088
H            0.24448428005764       -0.77280469091522        1.65024172860173
H           -4.62359391653954        0.84688345500367        2.44611786310492

          :  Hamiltonian                  GFN1-xTB          :
         :: total energy             -83.864461178550 Eh    ::
         :: gradient norm              0.000611012912 Eh/a0 ::
         :: HOMO-LUMO gap              0.082121063003 eV    ::
         :: SCC energy               -84.619883172116 Eh    ::
         :: -> Gsolv                  -0.106723020863 Eh    ::
         :: repulsion energy           0.782329931906 Eh    ::

    * Orbital Energies and Occupations

         #    Occupation            Energy/Eh            Energy/eV
      -------------------------------------------------------------
         1        2.0000           -0.8210595             -22.3422
       ...           ...                  ...                  ...
        56        2.0000           -0.4783002             -13.0152
        57        2.0000           -0.4736023             -12.8874
        58        2.0000           -0.4625374             -12.5863
        59        2.0000           -0.4618901             -12.5687
        60        2.0000           -0.4379735             -11.9179
        61        2.0000           -0.4333436             -11.7919
        62        2.0000           -0.4296168             -11.6905
        63        2.0000           -0.4273835             -11.6297
        64        2.0000           -0.4220923             -11.4857
        65        2.0000           -0.4112463             -11.1906
        66        2.0000           -0.4078235             -11.0974
        67        2.0000           -0.3850518             -10.4778
        68        1.6608           -0.3108870              -8.4597 (HOMO)
        69        0.3392           -0.3078691              -8.3775 (LUMO)
        70                         -0.2604605              -7.0875
        71                         -0.2310026              -6.2859
        72                         -0.2184154              -5.9434
        73                         -0.1941523              -5.2832
        74                         -0.1360302              -3.7016
        75                         -0.1292585              -3.5173
        76                         -0.1193630              -3.2480
        77                         -0.1175297              -3.1981
        78                         -0.1119619              -3.0466
        79                         -0.1022706              -2.7829
       ...                                ...                  ...
       136                          0.7116801              19.3658
      -------------------------------------------------------------
                  HL-Gap            0.0030179 Eh            0.0821 eV

Wiberg/Mayer (AO) data.
largest (>0.10) Wiberg bond orders for each atom

     #   Z sym  total        # sym  WBO       # sym  WBO       # sym  WBO
 ---------------------------------------------------------------------------
     1   6 C    3.878 --    27 H    0.987    26 H    0.981    28 H    0.980
                             2 O    0.902
     2   8 O    2.153 --     3 C    1.033     1 C    0.902     4 O    0.112
     3   6 C    3.774 --     4 O    1.602     5 C    1.074     2 O    1.033
     4   8 O    1.836 --     3 C    1.602     2 O    0.112
     5   6 C    3.866 --    24 C    1.394     6 N    1.154     3 C    1.074
     6   7 N    3.015 --     7 C    1.608     5 C    1.154
     7   6 C    3.910 --     6 N    1.608    21 N    1.153     8 C    0.978
     8   6 C    3.946 --     9 C    0.992    10 C    0.979     7 C    0.978
                            11 N    0.930
     9   6 C    3.993 --     8 C    0.992    31 H    0.986    29 H    0.985
                            30 H    0.984
    10   6 C    3.990 --    34 H    0.987    33 H    0.985     8 C    0.979
                            32 H    0.979
    11   7 N    3.328 --    12 C    1.280     8 C    0.930    35 H    0.862
                            13 O    0.164
    12   6 C    3.851 --    13 O    1.600    11 N    1.280    14 C    0.882
    13   8 O    1.892 --    12 C    1.600    11 N    0.164
    14   6 C    3.891 --    16 N    1.019    15 C    0.970    20 O    0.911
                            12 C    0.882
    15   6 C    3.974 --    38 H    0.987    37 H    0.985    36 H    0.985
                            14 C    0.970
    16   7 N    2.495 --    17 N    1.189    14 C    1.019    18 C    0.103
    17   7 N    2.986 --    18 C    1.634    16 N    1.189
    18   6 C    3.768 --    17 N    1.634    19 C    1.021    20 O    0.983
                            16 N    0.103
    19   6 C    3.994 --    18 C    1.021    39 H    0.986    40 H    0.973
                            41 H    0.972
    20   8 O    2.079 --    18 C    0.983    14 C    0.911
    21   7 N    3.381 --     7 C    1.153    22 C    1.078    42 H    0.893
                            23 O    0.116
    22   6 C    3.859 --    23 O    1.542    24 C    1.125    21 N    1.078
    23   8 O    1.813 --    22 C    1.542    21 N    0.116
    24   6 C    3.790 --     5 C    1.394    22 C    1.125    25 O    1.068
    25   8 O    2.025 --    24 C    1.068    43 H    0.812
    26   1 H    1.009 --     1 C    0.981
    27   1 H    1.012 --     1 C    0.987
    28   1 H    1.010 --     1 C    0.980
    29   1 H    1.012 --     9 C    0.985
    30   1 H    1.010 --     9 C    0.984
    31   1 H    1.008 --     9 C    0.986
    32   1 H    1.014 --    10 C    0.979
    33   1 H    1.004 --    10 C    0.985
    34   1 H    1.003 --    10 C    0.987
    35   1 H    0.976 --    11 N    0.862
    36   1 H    1.010 --    15 C    0.985
    37   1 H    1.010 --    15 C    0.985
    38   1 H    1.009 --    15 C    0.987
    39   1 H    1.006 --    19 C    0.986
    40   1 H    1.001 --    19 C    0.973
    41   1 H    1.001 --    19 C    0.972
    42   1 H    0.942 --    21 N    0.893
    43   1 H    0.866 --    25 O    0.812
 ---------------------------------------------------------------------------

           -------------------------------------------------
          | TOTAL ENERGY              -83.864461178550 Eh   |
          | GRADIENT NORM               0.000611012912 Eh/α |
          | HOMO-LUMO GAP               0.082121063003 eV   |
           -------------------------------------------------

 * finished run on 2023/06/20 at 15:06:57.152
