   * xtb version 6.5.1 (579679a) compiled by 'ehlert@majestix' on 2022-07-11
          program call               : /lustre/hpc/kemi/ree/PhD/git/ReactivityQM/dep/xtb-6.5.1/bin/xtb --gfn 1 /lustre/hpc/kemi/ree/PhD/git/ReactivityQM/calculations/R03/reac02prodE04/conf03/R03_reac02prodE04_conf03_gfn1.xyz --opt --vfukui --chrg -1 --uhf 0 --alpb DMSO

   ID    Z sym.   atoms
    1    6 C      1, 3, 5, 6, 8-11, 13, 15, 18, 19, 22, 23, 25
    2    8 O      2, 4, 14, 20, 24, 26
    3    7 N      7, 12, 16, 17, 21
    4    1 H      27-46

      * Solvation model:               ALPB
        Solvent                        DMSO
        Solvent mass                       7.8130E+01 g/mol
          :  Hamiltonian                  GFN1-xTB          :
 * total energy  :   -87.0220163 Eh     change       -0.4017409E-10 Eh
 * total energy  :   -87.0376724 Eh     change       -0.1565617E-01 Eh
 * total energy  :   -87.0445471 Eh     change       -0.6874700E-02 Eh
 * total energy  :   -87.0463792 Eh     change       -0.1832118E-02 Eh
 * total energy  :   -87.0476185 Eh     change       -0.1239259E-02 Eh
 * total energy  :   -87.0480787 Eh     change       -0.4602035E-03 Eh
 * total energy  :   -87.0483759 Eh     change       -0.2971672E-03 Eh
 * total energy  :   -87.0486255 Eh     change       -0.2496502E-03 Eh
 * total energy  :   -87.0488617 Eh     change       -0.2362020E-03 Eh
 * total energy  :   -87.0491387 Eh     change       -0.2769960E-03 Eh
 * total energy  :   -87.0515116 Eh     change       -0.1973012E-04 Eh
 * total energy  :   -87.0515304 Eh     change       -0.1885499E-04 Eh
 * total energy  :   -87.0515532 Eh     change       -0.2281052E-04 Eh
 * total energy  :   -87.0515690 Eh     change       -0.1580426E-04 Eh
 * total energy  :   -87.0515789 Eh     change       -0.9857346E-05 Eh
 * total energy  :   -87.0515825 Eh     change       -0.3631924E-05 Eh
 * total energy  :   -87.0515943 Eh     change       -0.1174415E-04 Eh
 * total energy  :   -87.0516027 Eh     change       -0.8395039E-05 Eh
 * total energy  :   -87.0516062 Eh     change       -0.3589997E-05 Eh
   *** GEOMETRY OPTIMIZATION CONVERGED AFTER 44 ITERATIONS ***

 final structure:
================
46
 xtb: 6.5.1 (579679a)
C           -4.50447825060014        2.66147508493200       -0.49891848730639
O           -3.62291721380611        2.04981281665566        0.43974231379927
C           -2.69858130001597        1.20735684123671       -0.06523061010670
O           -2.59650459846478        1.00615318076835       -1.26118345621510
C           -1.94060088443626        0.44042004529160        1.02927654275518
C           -1.65178657341845        1.32129128497339        2.24943261105634
N           -0.68532100028530       -0.04153929416120        0.47508111031120
C           -0.64164036212419       -1.15012306567815       -0.18331500372266
C            0.71697591947581       -1.43190054312161       -0.85937537338240
C            1.28848331643478       -2.81996916452346       -0.54599103490907
C            0.61692382865819       -1.16278510884757       -2.36937808740648
N            1.64147626162970       -0.43867399958249       -0.29544843167584
C            2.91086333842959       -0.24934002268769       -0.66331977648561
O            3.54831463259054       -0.92229471870525       -1.46276122422284
C            3.49896643325777        0.92566862517087        0.04556673169990
N            2.89044189330948        1.69828112849891        0.89307661611044
N            3.78936503759475        2.65354922726256        1.27169908495284
C            4.88691411741389        2.40172960350734        0.62861580236816
C            6.16098043462102        3.15184119969191        0.68996611310674
O            4.76901788209235        1.32384993378901       -0.16184824912413
N           -1.70328865870643       -1.98623442794351       -0.31068629235619
C           -1.73626059668445       -3.23803575723448       -1.05331023888449
C           -2.80163741160930       -1.88710015803479        0.66610349057752
O           -3.54323470428813       -2.90075298095354        0.81562284309519
C           -2.85872928526259       -0.70580236812957        1.33142177686880
O           -3.85507466371175       -0.48000764632166        2.31118213953661
H           -5.05652982795870        1.90109847198498       -1.05878396717170
H           -3.94237466522277        3.28277574029103       -1.20217445471514
H           -5.19606274037885        3.28001020034165        0.07069742072067
H           -1.01257007795237        2.15660969987400        1.96536173725563
H           -2.58072766056008        1.70610506159972        2.66684149436185
H           -1.14306668291632        0.72913899273431        3.00913637956270
H            0.76146155120073       -3.60076179379926       -1.08499240287547
H            2.33401101557877       -2.85843009222002       -0.84761332879564
H            1.22491941995182       -3.01673275786005        0.52357681008978
H           -0.09579756351372       -1.83190049844674       -2.84363993093815
H            0.29339653479668       -0.13462145761159       -2.53195288393999
H            1.58848949543847       -1.30936040997517       -2.83830992443969
H            1.20081703334389        0.22810278312101        0.34286918908194
H            6.96002495665194        2.50312208593696        1.04824330098792
H            6.43411158423155        3.50562846218229       -0.30393717045755
H            6.05290807997281        3.99978185140546        1.36165571040940
H           -2.77546793261888       -3.44480895675352       -1.31903898238075
H           -1.15697893006346       -3.17182176467753       -1.96896004040997
H           -1.37187433193587       -4.06899140961876       -0.44252840007377
H           -4.39735685014240       -1.28181392435027        2.33752753328768

          :  Hamiltonian                  GFN1-xTB          :
         :: total energy             -87.051606243336 Eh    ::
         :: gradient norm              0.000425052897 Eh/a0 ::
         :: HOMO-LUMO gap              0.388654063160 eV    ::
         :: SCC energy               -87.849363212686 Eh    ::
         :: -> Gsolv                  -0.113812070278 Eh    ::
         :: repulsion energy           0.827754719411 Eh    ::

    * Orbital Energies and Occupations

         #    Occupation            Energy/Eh            Energy/eV
      -------------------------------------------------------------
         1        2.0000           -0.8566218             -23.3099
       ...           ...                  ...                  ...
        59        2.0000           -0.4727541             -12.8643
        60        2.0000           -0.4671261             -12.7111
        61        2.0000           -0.4628251             -12.5941
        62        2.0000           -0.4582074             -12.4685
        63        2.0000           -0.4527231             -12.3192
        64        2.0000           -0.4512390             -12.2788
        65        2.0000           -0.4408646             -11.9965
        66        2.0000           -0.4381065             -11.9215
        67        2.0000           -0.4296505             -11.6914
        68        2.0000           -0.3976820             -10.8215
        69        2.0000           -0.3866899             -10.5224
        70        2.0000           -0.3748814             -10.2010
        71        1.9989           -0.3124424              -8.5020 (HOMO)
        72        0.0011           -0.2981596              -8.1133 (LUMO)
        73                         -0.2509926              -6.8299
        74                         -0.2367899              -6.4434
        75                         -0.2219301              -6.0390
        76                         -0.1867469              -5.0816
        77                         -0.1407392              -3.8297
        78                         -0.1328021              -3.6137
        79                         -0.1293095              -3.5187
        80                         -0.1240662              -3.3760
        81                         -0.1128743              -3.0715
        82                         -0.1006612              -2.7391
       ...                                ...                  ...
       144                          0.7311663              19.8960
      -------------------------------------------------------------
                  HL-Gap            0.0142828 Eh            0.3887 eV

Wiberg/Mayer (AO) data.
largest (>0.10) Wiberg bond orders for each atom

     #   Z sym  total        # sym  WBO       # sym  WBO       # sym  WBO
 ---------------------------------------------------------------------------
     1   6 C    3.890 --    29 H    0.987    28 H    0.981    27 H    0.981
                             2 O    0.911
     2   8 O    2.174 --     3 C    1.072     1 C    0.911     4 O    0.116
     3   6 C    3.813 --     4 O    1.635     2 O    1.072     5 C    0.917
     4   8 O    1.895 --     3 C    1.635     2 O    0.116
     5   6 C    3.965 --     6 C    0.989     7 N    0.971    25 C    0.956
                             3 C    0.917
     6   6 C    3.996 --     5 C    0.989    30 H    0.988    32 H    0.987
                            31 H    0.985
     7   7 N    3.009 --     8 C    1.627     5 C    0.971    21 N    0.171
     8   6 C    3.949 --     7 N    1.627    21 N    1.219     9 C    0.960
     9   6 C    3.930 --    10 C    0.991    11 C    0.983     8 C    0.960
                            12 N    0.922
    10   6 C    3.993 --     9 C    0.991    35 H    0.986    33 H    0.981
                            34 H    0.979
    11   6 C    3.993 --    37 H    0.985     9 C    0.983    38 H    0.981
                            36 H    0.977
    12   7 N    3.383 --    13 C    1.304     9 C    0.922    39 H    0.860
                            14 O    0.189
    13   6 C    3.924 --    14 O    1.560    12 N    1.304    15 C    0.979
    14   8 O    1.885 --    13 C    1.560    12 N    0.189
    15   6 C    3.869 --    16 N    1.619    20 O    1.061    13 C    0.979
    16   7 N    3.009 --    15 C    1.619    17 N    1.191
    17   7 N    2.980 --    18 C    1.615    16 N    1.191
    18   6 C    3.874 --    17 N    1.615    20 O    1.080    19 C    1.030
    19   6 C    3.988 --    18 C    1.030    42 H    0.983    41 H    0.965
                            40 H    0.964
    20   8 O    2.324 --    18 C    1.080    15 C    1.061
    21   7 N    3.372 --     8 C    1.219    22 C    0.957    23 C    0.887
                             7 N    0.171
    22   6 C    3.958 --    45 H    0.979    43 H    0.978    44 H    0.978
                            21 N    0.957
    23   6 C    3.918 --    25 C    1.520    24 O    1.360    21 N    0.887
    24   8 O    1.727 --    23 C    1.360    25 C    0.168
    25   6 C    3.801 --    23 C    1.520     5 C    0.956    26 O    0.948
                            24 O    0.168
    26   8 O    1.920 --    25 C    0.948    46 H    0.856
    27   1 H    1.011 --     1 C    0.981
    28   1 H    1.012 --     1 C    0.981
    29   1 H    1.014 --     1 C    0.987
    30   1 H    1.010 --     6 C    0.988
    31   1 H    1.016 --     6 C    0.985
    32   1 H    1.012 --     6 C    0.987
    33   1 H    1.006 --    10 C    0.981
    34   1 H    1.011 --    10 C    0.979
    35   1 H    1.004 --    10 C    0.986
    36   1 H    1.007 --    11 C    0.977
    37   1 H    1.007 --    11 C    0.985
    38   1 H    1.010 --    11 C    0.981
    39   1 H    0.984 --    12 N    0.860
    40   1 H    0.998 --    19 C    0.964
    41   1 H    0.998 --    19 C    0.965
    42   1 H    0.999 --    19 C    0.983
    43   1 H    1.023 --    22 C    0.978
    44   1 H    1.013 --    22 C    0.978
    45   1 H    1.013 --    22 C    0.979
    46   1 H    0.890 --    26 O    0.856
 ---------------------------------------------------------------------------

           -------------------------------------------------
          | TOTAL ENERGY              -87.051606243336 Eh   |
          | GRADIENT NORM               0.000425052897 Eh/α |
          | HOMO-LUMO GAP               0.388654063160 eV   |
           -------------------------------------------------

 * finished run on 2023/06/20 at 15:17:46.026
