   * xtb version 6.5.1 (579679a) compiled by 'ehlert@majestix' on 2022-07-11
          program call               : /lustre/hpc/kemi/ree/PhD/git/ReactivityQM/dep/xtb-6.5.1/bin/xtb --gfn 1 /lustre/hpc/kemi/ree/PhD/git/ReactivityQM/calculations/R02deprot/reac01prodN19/conf20/R02deprot_reac01prodN19_conf20_gfn1.xyz --opt --vfukui --chrg 0 --uhf 0 --alpb DMSO

   ID    Z sym.   atoms
    1    6 C      1, 3, 5, 7-10, 12, 14, 17, 18, 21, 23, 24
    2    8 O      2, 4, 13, 19, 22, 25
    3    7 N      6, 11, 15, 16, 20
    4    1 H      26-42

      * Solvation model:               ALPB
        Solvent                        DMSO
        Solvent mass                       7.8130E+01 g/mol
          :  Hamiltonian                  GFN1-xTB          :
 * total energy  :   -82.9882272 Eh     change       -0.1010392E-10 Eh
 * total energy  :   -83.0018663 Eh     change       -0.1363918E-01 Eh
 * total energy  :   -83.0072451 Eh     change       -0.5378723E-02 Eh
 * total energy  :   -83.0081421 Eh     change       -0.8970455E-03 Eh
 * total energy  :   -83.0085746 Eh     change       -0.4325216E-03 Eh
 * total energy  :   -83.0086942 Eh     change       -0.1195332E-03 Eh
 * total energy  :   -83.0087774 Eh     change       -0.8326456E-04 Eh
 * total energy  :   -83.0088294 Eh     change       -0.5201427E-04 Eh
 * total energy  :   -83.0088703 Eh     change       -0.4090242E-04 Eh
 * total energy  :   -83.0089046 Eh     change       -0.3426091E-04 Eh
 * total energy  :   -83.0102522 Eh     change       -0.9091017E-05 Eh
 * total energy  :   -83.0102617 Eh     change       -0.9542913E-05 Eh
 * total energy  :   -83.0102704 Eh     change       -0.8652310E-05 Eh
 * total energy  :   -83.0102777 Eh     change       -0.7362399E-05 Eh
 * total energy  :   -83.0102841 Eh     change       -0.6401466E-05 Eh
 * total energy  :   -83.0102902 Eh     change       -0.6065751E-05 Eh
 * total energy  :   -83.0102959 Eh     change       -0.5681390E-05 Eh
 * total energy  :   -83.0103011 Eh     change       -0.5224978E-05 Eh
 * total energy  :   -83.0103060 Eh     change       -0.4902194E-05 Eh
   *** GEOMETRY OPTIMIZATION CONVERGED AFTER 84 ITERATIONS ***

 final structure:
================
42
 xtb: 6.5.1 (579679a)
C           -6.16609416297333        2.46534707752444       -1.38773747128639
O           -5.08091661854411        1.53957875789302       -1.28037801369661
C           -4.09743246632507        1.86807897392324       -0.44784202482633
O           -4.09133227161320        2.88747223066850        0.20318685015105
C           -2.99102875040232        0.86019405967051       -0.40501546253294
N           -1.92576656169817        1.23980273850671        0.33083641723288
C           -0.88491140255729        0.44591467830025        0.41622361542957
C            0.28662618921811        0.89657867987879        1.26564136071914
C            0.49114005776063        2.40906495281380        1.12743932386029
C            0.00314848289240        0.50690356018399        2.72597989324102
N            1.46647029181659        0.17952179159791        0.78369526477568
C            2.70124080283496        0.31771580449762        1.29609674691724
O            3.01772584185144        1.06460804302150        2.20730313150886
C            3.66705124142512       -0.56384381283479        0.58499916592745
N            3.38535005472337       -1.38856278504287       -0.37912983221983
N            4.55829269283919       -1.97801828997185       -0.74729031182828
C            5.48038121883851       -1.47423212488636        0.01572451427660
C            6.92713115955276       -1.78474384399274        0.00913837395068
O            4.98029064329405       -0.57627975423757        0.87778547716356
N           -0.79594027921712       -0.76199765305675       -0.16790601696662
C           -1.82492626054238       -1.16647933859038       -0.88014206345682
O           -1.81037415730591       -2.35724189252734       -1.48731730061032
C           -0.64676931834393       -3.16607744387422       -1.30797942550781
C           -2.98776030152656       -0.36934714535636       -1.04562646901867
O           -4.01368010750103       -0.81751176651298       -1.78662161434510
H           -6.85601527012193        2.05129068452541       -2.12009130286466
H           -6.66112269550307        2.57783608881830       -0.42024320098228
H           -5.79765418543655        3.43869544073253       -1.72062232966764
H            0.74914728808738        2.65646459520773        0.09851258657544
H           -0.43348595930280        2.91999828897832        1.39268069948802
H            1.28836700186333        2.74516596640664        1.78759670514898
H            0.82498670994171        0.82681601270522        3.36439903162535
H           -0.91617550213157        0.98753541686759        3.05715426347456
H           -0.11148334009376       -0.57308323532237        2.80373670202196
H            1.31193094088439       -0.51401442665459        0.06270730344785
H            7.50200193970054       -0.87824210281506       -0.17913551580818
H            7.22854403023618       -2.17975643274387        0.97910869065162
H            7.13923702766379       -2.51885231025675       -0.76403154232329
H            0.24318506552127       -2.62537535072907       -1.64133837852825
H           -0.53335798345372       -3.43146900931406       -0.25371175225698
H           -0.79639900723156       -4.06027117895668       -1.90996045303482
H           -3.82962307911047       -1.69918694503688       -2.14131263582085

          :  Hamiltonian                  GFN1-xTB          :
         :: total energy             -83.010306005570 Eh    ::
         :: gradient norm              0.000271289845 Eh/a0 ::
         :: HOMO-LUMO gap              2.957028046602 eV    ::
         :: SCC energy               -83.787404480394 Eh    ::
         :: -> Gsolv                  -0.051321918936 Eh    ::
         :: repulsion energy           0.802112738881 Eh    ::

    * Orbital Energies and Occupations

         #    Occupation            Energy/Eh            Energy/eV
      -------------------------------------------------------------
         1        2.0000           -0.8618827             -23.4530
       ...           ...                  ...                  ...
        55        2.0000           -0.5008564             -13.6290
        56        2.0000           -0.4980731             -13.5533
        57        2.0000           -0.4972971             -13.5321
        58        2.0000           -0.4809228             -13.0866
        59        2.0000           -0.4805643             -13.0768
        60        2.0000           -0.4771874             -12.9849
        61        2.0000           -0.4710975             -12.8192
        62        2.0000           -0.4601942             -12.5225
        63        2.0000           -0.4579397             -12.4612
        64        2.0000           -0.4493208             -12.2266
        65        2.0000           -0.4447378             -12.1019
        66        2.0000           -0.4355244             -11.8512
        67        2.0000           -0.4322994             -11.7635 (HOMO)
        68                         -0.3236306              -8.8064 (LUMO)
        69                         -0.3070117              -8.3542
        70                         -0.2841960              -7.7334
        71                         -0.2554763              -6.9519
        72                         -0.2395346              -6.5181
        73                         -0.1952623              -5.3134
        74                         -0.1567552              -4.2655
        75                         -0.1425582              -3.8792
        76                         -0.1416768              -3.8552
        77                         -0.1387152              -3.7746
        78                         -0.1211419              -3.2964
       ...                                ...                  ...
       134                          0.7262630              19.7626
      -------------------------------------------------------------
                  HL-Gap            0.1086688 Eh            2.9570 eV

Wiberg/Mayer (AO) data.
largest (>0.10) Wiberg bond orders for each atom

     #   Z sym  total        # sym  WBO       # sym  WBO       # sym  WBO
 ---------------------------------------------------------------------------
     1   6 C    3.871 --    26 H    0.986    28 H    0.979    27 H    0.979
                             2 O    0.896
     2   8 O    2.208 --     3 C    1.120     1 C    0.896     4 O    0.136
     3   6 C    3.849 --     4 O    1.662     2 O    1.120     5 C    0.989
     4   8 O    1.924 --     3 C    1.662     2 O    0.136
     5   6 C    3.968 --    24 C    1.403     6 N    1.292     3 C    0.989
     6   7 N    3.031 --     7 C    1.473     5 C    1.292
     7   6 C    3.944 --     6 N    1.473    20 N    1.303     8 C    0.983
     8   6 C    3.935 --     9 C    0.989     7 C    0.983    10 C    0.972
                            11 N    0.927
     9   6 C    3.991 --     8 C    0.989    29 H    0.986    30 H    0.983
                            31 H    0.982
    10   6 C    3.990 --    34 H    0.986    33 H    0.986    32 H    0.981
                             8 C    0.972
    11   7 N    3.359 --    12 C    1.270     8 C    0.927    35 H    0.883
                            13 O    0.182
    12   6 C    3.920 --    13 O    1.583    11 N    1.270    14 C    0.985
    13   8 O    1.901 --    12 C    1.583    11 N    0.182
    14   6 C    3.873 --    15 N    1.613    19 O    1.064    12 C    0.985
    15   7 N    3.014 --    14 C    1.613    16 N    1.197
    16   7 N    2.980 --    17 C    1.608    15 N    1.197
    17   6 C    3.871 --    16 N    1.608    19 O    1.082    18 C    1.031
    18   6 C    3.987 --    17 C    1.031    38 H    0.983    36 H    0.964
                            37 H    0.963
    19   8 O    2.329 --    17 C    1.082    14 C    1.064
    20   7 N    3.042 --    21 C    1.411     7 C    1.303
    21   6 C    3.907 --    20 N    1.411    24 C    1.209    22 O    1.083
    22   8 O    2.183 --    21 C    1.083    23 C    0.896
    23   6 C    3.870 --    41 H    0.984    40 H    0.980    39 H    0.980
                            22 O    0.896
    24   6 C    3.924 --     5 C    1.403    21 C    1.209    25 O    1.088
    25   8 O    2.065 --    24 C    1.088    42 H    0.815
    26   1 H    1.011 --     1 C    0.986
    27   1 H    1.007 --     1 C    0.979
    28   1 H    1.007 --     1 C    0.979
    29   1 H    1.003 --     9 C    0.986
    30   1 H    1.013 --     9 C    0.983
    31   1 H    1.010 --     9 C    0.982
    32   1 H    1.008 --    10 C    0.981
    33   1 H    1.003 --    10 C    0.986
    34   1 H    1.003 --    10 C    0.986
    35   1 H    0.970 --    11 N    0.883
    36   1 H    0.997 --    18 C    0.964
    37   1 H    0.997 --    18 C    0.963
    38   1 H    0.999 --    18 C    0.983
    39   1 H    1.010 --    23 C    0.980
    40   1 H    1.008 --    23 C    0.980
    41   1 H    1.009 --    23 C    0.984
    42   1 H    0.843 --    25 O    0.815
 ---------------------------------------------------------------------------

           -------------------------------------------------
          | TOTAL ENERGY              -83.010306005570 Eh   |
          | GRADIENT NORM               0.000271289845 Eh/α |
          | HOMO-LUMO GAP               2.957028046602 eV   |
           -------------------------------------------------

 * finished run on 2023/06/20 at 18:31:10.475
