   * xtb version 6.5.1 (579679a) compiled by 'ehlert@majestix' on 2022-07-11
          program call               : /lustre/hpc/kemi/ree/PhD/git/ReactivityQM/dep/xtb-6.5.1/bin/xtb --gfn 1 /lustre/hpc/kemi/ree/PhD/git/ReactivityQM/calculations/R02methylcation/reac01/conf01/R02methylcation_reac01_conf01_gfn1.xyz --opt --vfukui --chrg -1 --uhf 0 --alpb DMSO

   ID    Z sym.   atoms
    1    6 C      1, 3, 5, 7-10, 12, 14, 17, 18, 21, 23
    2    8 O      2, 4, 13, 19, 22, 24
    3    7 N      6, 11, 15, 16, 20
    4    1 H      25-38

      * Solvation model:               ALPB
        Solvent                        DMSO
        Solvent mass                       7.8130E+01 g/mol
          :  Hamiltonian                  GFN1-xTB          :
 * total energy  :   -79.6042834 Eh     change       -0.3720402E-10 Eh
 * total energy  :   -79.6163099 Eh     change       -0.1202648E-01 Eh
 * total energy  :   -79.6205078 Eh     change       -0.4197946E-02 Eh
 * total energy  :   -79.6211220 Eh     change       -0.6142132E-03 Eh
 * total energy  :   -79.6215679 Eh     change       -0.4458672E-03 Eh
 * total energy  :   -79.6218032 Eh     change       -0.2352802E-03 Eh
 * total energy  :   -79.6220175 Eh     change       -0.2143638E-03 Eh
 * total energy  :   -79.6221727 Eh     change       -0.1551785E-03 Eh
 * total energy  :   -79.6222752 Eh     change       -0.1024729E-03 Eh
 * total energy  :   -79.6223435 Eh     change       -0.6829999E-04 Eh
 * total energy  :   -79.6226859 Eh     change       -0.6148708E-05 Eh
 * total energy  :   -79.6226950 Eh     change       -0.9085134E-05 Eh
 * total energy  :   -79.6227075 Eh     change       -0.1247562E-04 Eh
 * total energy  :   -79.6227202 Eh     change       -0.1273910E-04 Eh
 * total energy  :   -79.6227302 Eh     change       -0.9911524E-05 Eh
 * total energy  :   -79.6227377 Eh     change       -0.7528946E-05 Eh
 * total energy  :   -79.6227442 Eh     change       -0.6551168E-05 Eh
 * total energy  :   -79.6227497 Eh     change       -0.5477425E-05 Eh
 * total energy  :   -79.6227546 Eh     change       -0.4882946E-05 Eh
   *** GEOMETRY OPTIMIZATION CONVERGED AFTER 32 ITERATIONS ***

 final structure:
================
38
 xtb: 6.5.1 (579679a)
C           -6.39168684059598       -1.06081494458707        0.26754002359568
O           -5.15571084548204       -0.87502489611575       -0.40686826522251
C           -4.15764375418843       -0.32221385489454        0.32808912613808
O           -4.34550158091146       -0.01058044585513        1.49882734944620
C           -2.90245209590742       -0.14633426677113       -0.38687003123821
N           -1.91480643963820        0.41961552648250        0.39876030185956
C           -0.74923932633584        0.64615092368879       -0.07747534802502
C            0.31074384894757        1.32513265394794        0.76464489470755
C            0.48250136401992        2.77016550823160        0.27118633470926
C           -0.09778753758418        1.29016420145775        2.24045884055738
N            1.57223913382727        0.58775722049803        0.58185569970736
C            2.73189589843647        0.95162606618282        1.15647896187669
O            2.90116968741266        1.93124775354770        1.86674632719234
C            3.85074343127417        0.02437631090413        0.83684188885061
N            5.08068660448884        0.10497264185767        1.24113087086503
N            5.74326966381925       -0.95799149122388        0.70166825122860
C            4.87672312138943       -1.62151016633076        0.00200871216380
C            5.09932860481832       -2.85832205499380       -0.77807097204152
O            3.65984959780111       -1.05389875133425        0.04576039390718
N           -0.42582916332229        0.35440222906641       -1.38954132590896
C           -1.30599760008325       -0.20553702850598       -2.28153438974736
O           -0.94491561796331       -0.42994108545581       -3.43375658099059
C           -2.69095276811334       -0.49792767861355       -1.74600838261364
O           -3.52693960660003       -1.00689591654590       -2.51461283158673
H           -7.07720264459926       -1.52179412680193       -0.44256803209052
H           -6.26492337695870       -1.71405407797867        1.13660637881144
H           -6.79768682025203       -0.10168960303724        0.60444950220094
H            1.19526400390973        3.30703681377773        0.89380423077788
H           -0.47908585554716        3.28000494437557        0.31448696274951
H            0.83886249377472        2.77256237408943       -0.75745766455527
H           -0.16369211243299        0.25793841879859        2.58197795018438
H           -1.07438006574356        1.75966417305992        2.35351274893198
H            0.62950665365382        1.82413699297484        2.84850681323354
H            1.54841083010300       -0.27428167267774        0.06156892023319
H            4.79441055497672       -2.70627073469218       -1.81300025055750
H            4.50170852812710       -3.67138295203249       -0.36587915935743
H            6.15189315386614       -3.12785245199999       -0.74174993943455
H            0.49722287761272        0.55736344750239       -1.73365331056320

          :  Hamiltonian                  GFN1-xTB          :
         :: total energy             -79.622754592184 Eh    ::
         :: gradient norm              0.000455370659 Eh/a0 ::
         :: HOMO-LUMO gap              1.656625276870 eV    ::
         :: SCC energy               -80.349822019095 Eh    ::
         :: -> Gsolv                  -0.121223186648 Eh    ::
         :: repulsion energy           0.749835862693 Eh    ::

    * Orbital Energies and Occupations

         #    Occupation            Energy/Eh            Energy/eV
      -------------------------------------------------------------
         1        2.0000           -0.8608162             -23.4240
       ...           ...                  ...                  ...
        52        2.0000           -0.4835951             -13.1593
        53        2.0000           -0.4746503             -12.9159
        54        2.0000           -0.4635908             -12.6149
        55        2.0000           -0.4581555             -12.4670
        56        2.0000           -0.4545197             -12.3681
        57        2.0000           -0.4541273             -12.3574
        58        2.0000           -0.4460299             -12.1371
        59        2.0000           -0.4395935             -11.9619
        60        2.0000           -0.4385497             -11.9335
        61        2.0000           -0.4348561             -11.8330
        62        2.0000           -0.4154202             -11.3042
        63        2.0000           -0.3775896             -10.2747
        64        2.0000           -0.3647975              -9.9266 (HOMO)
        65                         -0.3039176              -8.2700 (LUMO)
        66                         -0.2688899              -7.3169
        67                         -0.2526812              -6.8758
        68                         -0.2384285              -6.4880
        69                         -0.1957988              -5.3280
        70                         -0.1919930              -5.2244
        71                         -0.1397473              -3.8027
        72                         -0.1204843              -3.2785
        73                         -0.1157664              -3.1502
        74                         -0.1118530              -3.0437
        75                         -0.1072761              -2.9191
       ...                                ...                  ...
       124                          0.7572979              20.6071
      -------------------------------------------------------------
                  HL-Gap            0.0608799 Eh            1.6566 eV

Wiberg/Mayer (AO) data.
largest (>0.10) Wiberg bond orders for each atom

     #   Z sym  total        # sym  WBO       # sym  WBO       # sym  WBO
 ---------------------------------------------------------------------------
     1   6 C    3.899 --    25 H    0.987    27 H    0.980    26 H    0.980
                             2 O    0.925
     2   8 O    2.161 --     3 C    1.048     1 C    0.925     4 O    0.110
     3   6 C    3.850 --     4 O    1.575     5 C    1.114     2 O    1.048
     4   8 O    1.850 --     3 C    1.575     2 O    0.110
     5   6 C    3.915 --    23 C    1.271     6 N    1.153     3 C    1.114
                            24 O    0.130
     6   7 N    3.032 --     7 C    1.638     5 C    1.153
     7   6 C    3.933 --     6 N    1.638    20 N    1.088     8 C    0.979
     8   6 C    3.929 --    10 C    0.993     9 C    0.982     7 C    0.979
                            11 N    0.911
     9   6 C    3.989 --    29 H    0.986    30 H    0.985     8 C    0.982
                            28 H    0.980
    10   6 C    3.991 --     8 C    0.993    31 H    0.986    33 H    0.984
                            32 H    0.983
    11   7 N    3.359 --    12 C    1.275     8 C    0.911    34 H    0.895
                            13 O    0.180
    12   6 C    3.919 --    13 O    1.575    11 N    1.275    14 C    0.988
    13   8 O    1.894 --    12 C    1.575    11 N    0.180
    14   6 C    3.870 --    15 N    1.625    19 O    1.048    12 C    0.988
    15   7 N    2.997 --    14 C    1.625    16 N    1.195
    16   7 N    2.981 --    17 C    1.614    15 N    1.195
    17   6 C    3.870 --    16 N    1.614    19 O    1.072    18 C    1.031
    18   6 C    3.987 --    17 C    1.031    37 H    0.983    35 H    0.965
                            36 H    0.962
    19   8 O    2.316 --    17 C    1.072    14 C    1.048
    20   7 N    3.422 --    21 C    1.158     7 C    1.088    38 H    0.897
                            22 O    0.135
    21   6 C    3.877 --    22 O    1.582    20 N    1.158    23 C    0.967
    22   8 O    1.862 --    21 C    1.582    20 N    0.135
    23   6 C    3.943 --    24 O    1.521     5 C    1.271    21 C    0.967
    24   8 O    1.827 --    23 C    1.521     5 C    0.130
    25   1 H    1.016 --     1 C    0.987
    26   1 H    1.014 --     1 C    0.980
    27   1 H    1.014 --     1 C    0.980
    28   1 H    1.011 --     9 C    0.980
    29   1 H    1.004 --     9 C    0.986
    30   1 H    1.003 --     9 C    0.985
    31   1 H    1.008 --    10 C    0.986
    32   1 H    1.015 --    10 C    0.983
    33   1 H    1.010 --    10 C    0.984
    34   1 H    0.942 --    11 N    0.895
    35   1 H    0.997 --    18 C    0.965
    36   1 H    0.997 --    18 C    0.962
    37   1 H    0.999 --    18 C    0.983
    38   1 H    0.944 --    20 N    0.897
 ---------------------------------------------------------------------------

           -------------------------------------------------
          | TOTAL ENERGY              -79.622754592184 Eh   |
          | GRADIENT NORM               0.000455370659 Eh/α |
          | HOMO-LUMO GAP               1.656625276870 eV   |
           -------------------------------------------------

 * finished run on 2023/06/21 at 17:04:04.715
