   * xtb version 6.5.1 (579679a) compiled by 'ehlert@majestix' on 2022-07-11
          program call               : /lustre/hpc/kemi/ree/PhD/git/ReactivityQM/dep/xtb-6.5.1/bin/xtb --gfn 1 /lustre/hpc/kemi/ree/PhD/git/ReactivityQM/calculations/R02oxygendeprot/reac01prodN14/conf09/R02oxygendeprot_reac01prodN14_conf09_gfn1.xyz --opt --vfukui --chrg 0 --uhf 0 --alpb DMSO

   ID    Z sym.   atoms
    1    6 C      1, 3, 5, 6, 8, 9, 12-15, 17, 19, 22, 23
    2    8 O      2, 4, 7, 10, 18, 24
    3    7 N      11, 16, 20, 21, 25
    4    1 H      26-42

      * Solvation model:               ALPB
        Solvent                        DMSO
        Solvent mass                       7.8130E+01 g/mol
          :  Hamiltonian                  GFN1-xTB          :
 * total energy  :   -82.8976299 Eh     change       -0.2106049E-10 Eh
 * total energy  :   -82.9134449 Eh     change       -0.1581497E-01 Eh
 * total energy  :   -82.9235414 Eh     change       -0.1009649E-01 Eh
 * total energy  :   -82.9260284 Eh     change       -0.2487032E-02 Eh
 * total energy  :   -82.9284727 Eh     change       -0.2444271E-02 Eh
 * total energy  :   -82.9300058 Eh     change       -0.1533141E-02 Eh
 * total energy  :   -82.9316854 Eh     change       -0.1679542E-02 Eh
 * total energy  :   -82.9329969 Eh     change       -0.1311463E-02 Eh
 * total energy  :   -82.9340406 Eh     change       -0.1043786E-02 Eh
 * total energy  :   -82.9347926 Eh     change       -0.7519199E-03 Eh
 * total energy  :   -82.9746249 Eh     change       -0.5620456E-05 Eh
 * total energy  :   -82.9746390 Eh     change       -0.1404323E-04 Eh
 * total energy  :   -82.9746456 Eh     change       -0.6673274E-05 Eh
 * total energy  :   -82.9746616 Eh     change       -0.1593564E-04 Eh
 * total energy  :   -82.9746793 Eh     change       -0.1767019E-04 Eh
 * total energy  :   -82.9746926 Eh     change       -0.1338154E-04 Eh
 * total energy  :   -82.9747004 Eh     change       -0.7797573E-05 Eh
 * total energy  :   -82.9747088 Eh     change       -0.8405648E-05 Eh
 * total energy  :   -82.9747108 Eh     change       -0.1946593E-05 Eh
   *** GEOMETRY OPTIMIZATION CONVERGED AFTER 80 ITERATIONS ***

 final structure:
================
42
 xtb: 6.5.1 (579679a)
C           -5.31881423915132        2.60465519954679        0.34321117104595
O           -4.18149200877392        1.82069329075621       -0.03374752843801
C           -4.42658978914380        0.56673339108064       -0.39847164613159
O           -5.52779658819514        0.06822795396954       -0.42032892538617
C           -3.17669972161275       -0.15236663432600       -0.76509294262989
C           -3.23935898738318       -1.38981007541982       -1.21433209965016
O           -3.34847480425025       -2.46767690288019       -1.61946341113976
C           -0.68941171333875       -2.22732165966041        0.10471399348727
C           -1.46385492519100       -1.83230022673462        1.33074361829684
O           -0.18606592714105       -3.32267242540238       -0.02955338861447
N           -0.56745532819953       -1.30134282818770       -0.91772687712418
C           -0.82883414505457        0.07697645232586       -0.81256049490460
C            0.35733899084658        1.01296973398571       -0.97549790605477
C            0.15139396073548        2.27955275795073       -0.13749894925327
C            0.49015104957917        1.36774133583862       -2.46114363275673
N            1.58460823326350        0.32948944901833       -0.57488627563222
C            1.76855130786355       -0.16057105184805        0.66894872623223
O            0.92391119296586       -0.15816599119811        1.55064494488316
C            3.11809640178926       -0.74169387952682        0.86351740172835
N            3.58763183111167       -1.32910265157997        1.91965825336025
N            4.86661804662773       -1.69733803569646        1.62904017254870
C            5.10015416861986       -1.31156779416477        0.41328811682919
C            6.34533419181595       -1.47159242413454       -0.36797167032248
O            4.03367405985285       -0.70099180004457       -0.12899845300170
N           -1.98382279411533        0.59619225204223       -0.71221663254963
H           -4.93937818976529        3.58796629081070        0.61184724168680
H           -6.01500947198511        2.68156959914110       -0.49486340838025
H           -5.82487510076489        2.14559904515080        1.19545061734177
H           -1.53113197123904       -0.75508397923661        1.44506301128241
H           -0.96780555507876       -2.26403247509950        2.19784172850980
H           -2.46542118967139       -2.25538361620984        1.26544571366047
H            0.17704033993286       -1.53803315679100       -1.55899590952232
H           -0.74630681729554        2.79172835118795       -0.47981756620719
H            1.00887517317545        2.93898011772155       -0.25318350768167
H            0.03273538030970        2.02372326200868        0.91428908044375
H           -0.43040097514573        1.83317221668346       -2.80942063483481
H            1.31538257828700        2.06296502081341       -2.60302341407546
H            0.67858068323418        0.47114290797029       -3.04806447638610
H            2.35920969172177        0.34139807313079       -1.21580414831666
H            6.15349158457041       -2.07795857207203       -1.25307419081229
H            7.10565345073962       -1.94968282340703        0.24511169759133
H            6.70056592545341       -0.49678869750746       -0.70064439912442

          :  Hamiltonian                  GFN1-xTB          :
         :: total energy             -82.974710785861 Eh    ::
         :: gradient norm              0.000570281947 Eh/a0 ::
         :: HOMO-LUMO gap              2.777976175047 eV    ::
         :: SCC energy               -83.806043761049 Eh    ::
         :: -> Gsolv                  -0.059158117645 Eh    ::
         :: repulsion energy           0.859100454854 Eh    ::

    * Orbital Energies and Occupations

         #    Occupation            Energy/Eh            Energy/eV
      -------------------------------------------------------------
         1        2.0000           -0.8724849             -23.7415
       ...           ...                  ...                  ...
        55        2.0000           -0.5057334             -13.7617
        56        2.0000           -0.5039405             -13.7129
        57        2.0000           -0.5007379             -13.6258
        58        2.0000           -0.4888041             -13.3010
        59        2.0000           -0.4815636             -13.1040
        60        2.0000           -0.4749056             -12.9228
        61        2.0000           -0.4674056             -12.7188
        62        2.0000           -0.4665577             -12.6957
        63        2.0000           -0.4627289             -12.5915
        64        2.0000           -0.4563528             -12.4180
        65        2.0000           -0.4530255             -12.3274
        66        2.0000           -0.4496720             -12.2362
        67        2.0000           -0.4315086             -11.7419 (HOMO)
        68                         -0.3294198              -8.9640 (LUMO)
        69                         -0.3129065              -8.5146
        70                         -0.3054153              -8.3108
        71                         -0.2843937              -7.7387
        72                         -0.2570936              -6.9959
        73                         -0.2560050              -6.9663
        74                         -0.2004579              -5.4547
        75                         -0.1789387              -4.8692
        76                         -0.1417559              -3.8574
        77                         -0.1400573              -3.8112
        78                         -0.1353848              -3.6840
       ...                                ...                  ...
       134                          1.2020161              32.7085
      -------------------------------------------------------------
                  HL-Gap            0.1020887 Eh            2.7780 eV

Wiberg/Mayer (AO) data.
largest (>0.10) Wiberg bond orders for each atom

     #   Z sym  total        # sym  WBO       # sym  WBO       # sym  WBO
 ---------------------------------------------------------------------------
     1   6 C    3.864 --    26 H    0.985    27 H    0.980    28 H    0.980
                             2 O    0.890
     2   8 O    2.206 --     3 C    1.119     1 C    0.890     4 O    0.130
     3   6 C    3.868 --     4 O    1.640     2 O    1.119     5 C    0.986
     4   8 O    1.916 --     3 C    1.640     2 O    0.130
     5   6 C    3.903 --     6 C    1.576    25 N    1.029     3 C    0.986
                             7 O    0.167
     6   6 C    3.801 --     7 O    1.989     5 C    1.576
     7   8 O    2.288 --     6 C    1.989     5 C    0.167
     8   6 C    3.868 --    10 O    1.662    11 N    1.133     9 C    1.000
     9   6 C    3.991 --     8 C    1.000    29 H    0.979    30 H    0.971
                            31 H    0.958
    10   8 O    1.923 --     8 C    1.662    11 N    0.127
    11   7 N    3.315 --     8 C    1.133    12 C    1.018    32 H    0.888
                            10 O    0.127
    12   6 C    3.933 --    25 N    1.747    11 N    1.018    13 C    0.968
    13   6 C    3.937 --    14 C    0.985    15 C    0.980    12 C    0.968
                            16 N    0.931
    14   6 C    3.987 --    34 H    0.985    13 C    0.985    33 H    0.983
                            35 H    0.981
    15   6 C    3.988 --    38 H    0.984    36 H    0.984    37 H    0.981
                            13 C    0.980
    16   7 N    3.349 --    17 C    1.256    13 C    0.931    39 H    0.891
                            18 O    0.173
    17   6 C    3.916 --    18 O    1.578    16 N    1.256    19 C    0.996
    18   8 O    1.898 --    17 C    1.578    16 N    0.173
    19   6 C    3.873 --    20 N    1.621    24 O    1.047    17 C    0.996
    20   7 N    3.001 --    19 C    1.621    21 N    1.200
    21   7 N    2.982 --    22 C    1.609    20 N    1.200
    22   6 C    3.868 --    21 N    1.609    24 O    1.073    23 C    1.032
    23   6 C    3.986 --    22 C    1.032    41 H    0.982    42 H    0.963
                            40 H    0.962
    24   8 O    2.317 --    22 C    1.073    19 C    1.047
    25   7 N    3.055 --    12 C    1.747     5 C    1.029
    26   1 H    1.009 --     1 C    0.985
    27   1 H    1.006 --     1 C    0.980
    28   1 H    1.006 --     1 C    0.980
    29   1 H    1.014 --     9 C    0.979
    30   1 H    1.005 --     9 C    0.971
    31   1 H    1.002 --     9 C    0.958
    32   1 H    0.941 --    11 N    0.888
    33   1 H    1.010 --    14 C    0.983
    34   1 H    1.000 --    14 C    0.985
    35   1 H    1.010 --    14 C    0.981
    36   1 H    1.002 --    15 C    0.984
    37   1 H    0.996 --    15 C    0.981
    38   1 H    0.997 --    15 C    0.984
    39   1 H    0.933 --    16 N    0.891
    40   1 H    0.996 --    23 C    0.962
    41   1 H    0.998 --    23 C    0.982
    42   1 H    0.996 --    23 C    0.963
 ---------------------------------------------------------------------------

           -------------------------------------------------
          | TOTAL ENERGY              -82.974710785861 Eh   |
          | GRADIENT NORM               0.000570281947 Eh/α |
          | HOMO-LUMO GAP               2.777976175047 eV   |
           -------------------------------------------------

 * finished run on 2023/06/21 at 17:33:09.298
