                         Program Version 5.0.1 -  RELEASE  -
|  1> # ORCA input file
|  2> ! SP r2SCAN-3c CPCM
|  3>
|  4> %maxcore 1875.0
|  5> %pal nprocs 4 end
|  6> %cpcm smd true SMDsolvent "DMSO" end
|  7>
|  8> *xyz 0 1
|  9> C       6.231210   -0.699210   -1.902027
| 10> C       5.484663   -0.885739   -0.639305
| 11> N       5.887364   -1.475733    0.442773
| 12> N       4.863973   -1.396277    1.337926
| 13> C       3.898082   -0.764092    0.747445
| 14> C       2.573626   -0.411924    1.312489
| 15> O       2.285901   -0.677415    2.472032
| 16> N       1.762652    0.181929    0.417369
| 17> C       0.464345    0.810259    0.707010
| 18> C       0.555759    1.675930    1.971238
| 19> C       0.130386    1.685641   -0.502026
| 20> C      -0.620364   -0.241070    0.881933
| 21> N      -1.713019   -0.128210    0.222432
| 22> C      -2.728386   -1.061848    0.393687
| 23> C      -3.906830   -0.917648   -0.312793
| 24> O      -4.942077   -1.467279   -0.473084
| 25> O      -3.809485    0.486718   -1.256760
| 26> C      -4.725942    0.394235   -2.359174
| 27> C      -3.984955    1.672190   -0.462030
| 28> C      -2.604271   -2.191042    1.283505
| 29> O      -3.458613   -3.052871    1.454514
| 30> C      -1.293132   -2.257242    2.051469
| 31> O      -1.032289   -3.132986    2.857694
| 32> N      -0.404879   -1.251185    1.786559
| 33> O       4.232456   -0.415061   -0.513921
| 34> H       6.265277    0.358911   -2.159113
| 35> H       5.728455   -1.225789   -2.713237
| 36> H       7.242593   -1.082847   -1.790333
| 37> H       2.139414    0.362742   -0.499167
| 38> H      -0.380991    2.215976    2.097628
| 39> H       1.367180    2.393622    1.864309
| 40> H       0.732591    1.066003    2.854972
| 41> H       0.909178    2.431353   -0.648257
| 42> H       0.043442    1.074233   -1.398890
| 43> H      -0.818050    2.193026   -0.336932
| 44> H      -4.463913   -0.501864   -2.918914
| 45> H      -4.591349    1.280338   -2.976314
| 46> H      -5.754459    0.333549   -1.996253
| 47> H      -3.206266    1.658927    0.298184
| 48> H      -3.853780    2.533566   -1.115528
| 49> H      -4.977676    1.686216   -0.007206
| 50> H       0.472179   -1.258028    2.303356
| 51> **                         ****END OF INPUT****

CARTESIAN COORDINATES (ANGSTROEM)
---------------------------------
  C      6.231210   -0.699210   -1.902027
  C      5.484663   -0.885739   -0.639305
  N      5.887364   -1.475733    0.442773
  N      4.863973   -1.396277    1.337926
  C      3.898082   -0.764092    0.747445
  C      2.573626   -0.411924    1.312489
  O      2.285901   -0.677415    2.472032
  N      1.762652    0.181929    0.417369
  C      0.464345    0.810259    0.707010
  C      0.555759    1.675930    1.971238
  C      0.130386    1.685641   -0.502026
  C     -0.620364   -0.241070    0.881933
  N     -1.713019   -0.128210    0.222432
  C     -2.728386   -1.061848    0.393687
  C     -3.906830   -0.917648   -0.312793
  O     -4.942077   -1.467279   -0.473084
  O     -3.809485    0.486718   -1.256760
  C     -4.725942    0.394235   -2.359174
  C     -3.984955    1.672190   -0.462030
  C     -2.604271   -2.191042    1.283505
  O     -3.458613   -3.052871    1.454514
  C     -1.293132   -2.257242    2.051469
  O     -1.032289   -3.132986    2.857694
  N     -0.404879   -1.251185    1.786559
  O      4.232456   -0.415061   -0.513921
  H      6.265277    0.358911   -2.159113
  H      5.728455   -1.225789   -2.713237
  H      7.242593   -1.082847   -1.790333
  H      2.139414    0.362742   -0.499167
  H     -0.380991    2.215976    2.097628
  H      1.367180    2.393622    1.864309
  H      0.732591    1.066003    2.854972
  H      0.909178    2.431353   -0.648257
  H      0.043442    1.074233   -1.398890
  H     -0.818050    2.193026   -0.336932
  H     -4.463913   -0.501864   -2.918914
  H     -4.591349    1.280338   -2.976314
  H     -5.754459    0.333549   -1.996253
  H     -3.206266    1.658927    0.298184
  H     -3.853780    2.533566   -1.115528
  H     -4.977676    1.686216   -0.007206
  H      0.472179   -1.258028    2.303356

 Total Charge           Charge          ....    0
 Multiplicity           Mult            ....    1
 Number of Electrons    NEL             ....  184
 Basis Dimension        Dim             ....  615

ORBITAL ENERGIES
----------------

  NO   OCC          E(Eh)            E(eV)
   0   2.0000     -19.068776      -518.8878
   1   2.0000     -19.052650      -518.4490
   2   2.0000     -18.980302      -516.4803
   3   2.0000     -18.946342      -515.5562
   4   2.0000     -18.928471      -515.0699
   5   2.0000     -18.920370      -514.8494
   6   2.0000     -14.210122      -386.6771
   7   2.0000     -14.209594      -386.6627
   8   2.0000     -14.208141      -386.6232
   9   2.0000     -14.199584      -386.3903
  10   2.0000     -14.158436      -385.2706
  11   2.0000     -10.167089      -276.6606
  12   2.0000     -10.167005      -276.6583
  13   2.0000     -10.149958      -276.1944
  14   2.0000     -10.146562      -276.1020
  15   2.0000     -10.137305      -275.8501
  16   2.0000     -10.112159      -275.1658
  17   2.0000     -10.109824      -275.1023
  18   2.0000     -10.105238      -274.9775
  19   2.0000     -10.089802      -274.5575
  20   2.0000     -10.088215      -274.5143
  21   2.0000     -10.073380      -274.1106
  22   2.0000     -10.046277      -273.3731
  23   2.0000     -10.023101      -272.7424
  24   2.0000     -10.023057      -272.7412
  25   2.0000      -1.158274       -31.5182
  26   2.0000      -1.088195       -29.6113
  27   2.0000      -1.041394       -28.3378
  28   2.0000      -1.035605       -28.1802
  29   2.0000      -1.021831       -27.8054
  30   2.0000      -0.982329       -26.7305
  31   2.0000      -0.978751       -26.6332
  32   2.0000      -0.955786       -26.0083
  33   2.0000      -0.919286       -25.0150
  34   2.0000      -0.869888       -23.6709
  35   2.0000      -0.834427       -22.7059
  36   2.0000      -0.783276       -21.3140
  37   2.0000      -0.737771       -20.0758
  38   2.0000      -0.719114       -19.5681
  39   2.0000      -0.715223       -19.4622
  40   2.0000      -0.675312       -18.3762
  41   2.0000      -0.671144       -18.2628
  42   2.0000      -0.662707       -18.0332
  43   2.0000      -0.636707       -17.3257
  44   2.0000      -0.621501       -16.9119
  45   2.0000      -0.606150       -16.4942
  46   2.0000      -0.588544       -16.0151
  47   2.0000      -0.559644       -15.2287
  48   2.0000      -0.550631       -14.9834
  49   2.0000      -0.539880       -14.6909
  50   2.0000      -0.526003       -14.3133
  51   2.0000      -0.511167       -13.9096
  52   2.0000      -0.497152       -13.5282
  53   2.0000      -0.489151       -13.3105
  54   2.0000      -0.483253       -13.1500
  55   2.0000      -0.466817       -12.7027
  56   2.0000      -0.463828       -12.6214
  57   2.0000      -0.456359       -12.4182
  58   2.0000      -0.445804       -12.1309
  59   2.0000      -0.434090       -11.8122
  60   2.0000      -0.427788       -11.6407
  61   2.0000      -0.419381       -11.4119
  62   2.0000      -0.411748       -11.2042
  63   2.0000      -0.406312       -11.0563
  64   2.0000      -0.402672       -10.9572
  65   2.0000      -0.399050       -10.8587
  66   2.0000      -0.390021       -10.6130
  67   2.0000      -0.387480       -10.5439
  68   2.0000      -0.383818       -10.4442
  69   2.0000      -0.382651       -10.4125
  70   2.0000      -0.379025       -10.3138
  71   2.0000      -0.376140       -10.2353
  72   2.0000      -0.367751       -10.0070
  73   2.0000      -0.357341        -9.7237
  74   2.0000      -0.353555        -9.6207
  75   2.0000      -0.347528        -9.4567
  76   2.0000      -0.345561        -9.4032
  77   2.0000      -0.339552        -9.2397
  78   2.0000      -0.336119        -9.1463
  79   2.0000      -0.324654        -8.8343
  80   2.0000      -0.318585        -8.6691
  81   2.0000      -0.316837        -8.6216
  82   2.0000      -0.284523        -7.7423
  83   2.0000      -0.271360        -7.3841
  84   2.0000      -0.270330        -7.3561
  85   2.0000      -0.267829        -7.2880
  86   2.0000      -0.266581        -7.2540
  87   2.0000      -0.258781        -7.0418
  88   2.0000      -0.256498        -6.9797
  89   2.0000      -0.235723        -6.4143
  90   2.0000      -0.203940        -5.5495
  91   2.0000      -0.192434        -5.2364
  92   0.0000      -0.093309        -2.5391
  93   0.0000      -0.090835        -2.4717
  94   0.0000      -0.028039        -0.7630
  95   0.0000      -0.022050        -0.6000
  96   0.0000      -0.009588        -0.2609

MULLIKEN ATOMIC CHARGES
-----------------------
   0 C :   -0.633238
   1 C :    0.400632
   2 N :   -0.275406
   3 N :   -0.174598
   4 C :    0.375227
   5 C :   -0.055471
   6 O :   -0.494806
   7 N :   -0.109132
   8 C :    0.136356
   9 C :   -0.562517
  10 C :   -0.598659
  11 C :    0.106363
  12 N :   -0.138147
  13 C :   -0.000571
  14 C :    0.264651
  15 O :   -0.278412
  16 O :   -0.205171
  17 C :   -0.277202
  18 C :   -0.301690
  19 C :    0.024344
  20 O :   -0.357724
  21 C :    0.050844
  22 O :   -0.383501
  23 N :   -0.016586
  24 O :   -0.055884
  25 H :    0.200525
  26 H :    0.203666
  27 H :    0.205889
  28 H :    0.327939
  29 H :    0.188071
  30 H :    0.195782
  31 H :    0.196579
  32 H :    0.186376
  33 H :    0.192671
  34 H :    0.194565
  35 H :    0.194878
  36 H :    0.192595
  37 H :    0.195900
  38 H :    0.210125
  39 H :    0.192936
  40 H :    0.190378
  41 H :    0.291425
Sum of atomic charges:   -0.0000000

LOEWDIN ATOMIC CHARGES
----------------------
   0 C :   -0.316352
   1 C :    0.381809
   2 N :   -0.356284
   3 N :   -0.330665
   4 C :    0.415377
   5 C :    0.385570
   6 O :   -0.487493
   7 N :   -0.557546
   8 C :    0.110232
   9 C :   -0.341756
  10 C :   -0.336460
  11 C :    0.342043
  12 N :   -0.605869
  13 C :    0.109307
  14 C :    0.453063
  15 O :   -0.341781
  16 O :   -0.770578
  17 C :   -0.018853
  18 C :   -0.024384
  19 C :    0.276571
  20 O :   -0.493167
  21 C :    0.368773
  22 O :   -0.435801
  23 N :   -0.465580
  24 O :   -0.391036
  25 H :    0.191855
  26 H :    0.193123
  27 H :    0.191770
  28 H :    0.302651
  29 H :    0.174403
  30 H :    0.175689
  31 H :    0.181885
  32 H :    0.170174
  33 H :    0.176996
  34 H :    0.181812
  35 H :    0.200537
  36 H :    0.197811
  37 H :    0.191712
  38 H :    0.210073
  39 H :    0.196460
  40 H :    0.186503
  41 H :    0.307404

  Mayer bond orders larger than 0.100000
B(  0-C ,  1-C ) :   0.8266 B(  0-C , 25-H ) :   0.9453 B(  0-C , 26-H ) :   0.9384
B(  0-C , 27-H ) :   0.9890 B(  1-C ,  2-N ) :   1.6194 B(  1-C ,  4-C ) :   0.1202
B(  1-C , 24-O ) :   1.0620 B(  2-N ,  3-N ) :   1.2689 B(  3-N ,  4-C ) :   1.7114
B(  4-C ,  5-C ) :   0.8536 B(  4-C , 24-O ) :   1.0886 B(  5-C ,  6-O ) :   1.7854
B(  5-C ,  7-N ) :   1.2173 B(  7-N ,  8-C ) :   0.8046 B(  7-N , 28-H ) :   0.8799
B(  8-C ,  9-C ) :   0.8922 B(  8-C , 10-C ) :   0.9108 B(  8-C , 11-C ) :   0.9838
B(  9-C , 29-H ) :   0.9569 B(  9-C , 30-H ) :   0.9775 B(  9-C , 31-H ) :   0.9431
B( 10-C , 32-H ) :   0.9713 B( 10-C , 33-H ) :   0.9613 B( 10-C , 34-H ) :   0.9607
B( 11-C , 12-N ) :   1.8035 B( 11-C , 23-N ) :   1.0903 B( 12-N , 13-C ) :   0.9057
B( 13-C , 14-C ) :   1.1404 B( 13-C , 19-C ) :   1.0640 B( 13-C , 20-O ) :  -0.1037
B( 14-C , 15-O ) :   2.0039 B( 14-C , 16-O ) :   0.4708 B( 14-C , 20-O ) :   0.1067
B( 16-O , 17-C ) :   0.8503 B( 16-O , 18-C ) :   0.8331 B( 17-C , 35-H ) :   0.9510
B( 17-C , 36-H ) :   0.9408 B( 17-C , 37-H ) :   0.9389 B( 18-C , 38-H ) :   0.9383
B( 18-C , 39-H ) :   0.9473 B( 18-C , 40-H ) :   0.9355 B( 19-C , 20-O ) :   1.9382
B( 19-C , 21-C ) :   0.8595 B( 21-C , 22-O ) :   2.0564 B( 21-C , 23-N ) :   1.0337
B( 23-N , 41-H ) :   0.8534

Dispersion correction           -0.019004674
FINAL SINGLE POINT ENERGY     -1268.600258487522

DIPOLE MOMENT
-------------
                                X             Y             Z
Electronic contribution:      4.19518     -17.45113       9.85305
Nuclear contribution   :     -4.29951      24.10231     -15.82326
                        -----------------------------------------
Total Dipole Moment    :     -0.10433       6.65118      -5.97021
                        -----------------------------------------
Magnitude (a.u.)       :      8.93826
Magnitude (Debye)      :     22.71925

Rotational constants in cm-1:     0.013311     0.003612     0.003240
Rotational constants in MHz :   399.056103   108.271357    97.118415

                             ****ORCA TERMINATED NORMALLY****
TOTAL RUN TIME: 0 days 0 hours 1 minutes 37 seconds 403 msec
