   * xtb version 6.5.1 (579679a) compiled by 'ehlert@majestix' on 2022-07-11
          program call               : /lustre/hpc/kemi/ree/PhD/git/ReactivityQM/dep/xtb-6.5.1/bin/xtb --gfn 1 /lustre/hpc/kemi/ree/PhD/git/ReactivityQM/calculations/R02oxygendeprot/reac01prodN16/conf05/R02oxygendeprot_reac01prodN16_conf05_gfn1.xyz --opt --vfukui --chrg 0 --uhf 0 --alpb DMSO

   ID    Z sym.   atoms
    1    6 C      1, 2, 5, 6, 9-12, 14, 15, 18-20, 22
    2    7 N      3, 4, 8, 13, 24
    3    8 O      7, 16, 17, 21, 23, 25
    4    1 H      26-42

      * Solvation model:               ALPB
        Solvent                        DMSO
        Solvent mass                       7.8130E+01 g/mol
          :  Hamiltonian                  GFN1-xTB          :
 * total energy  :   -82.9274948 Eh     change       -0.6977530E-11 Eh
 * total energy  :   -82.9430095 Eh     change       -0.1551467E-01 Eh
 * total energy  :   -82.9497357 Eh     change       -0.6726236E-02 Eh
 * total energy  :   -82.9514791 Eh     change       -0.1743350E-02 Eh
 * total energy  :   -82.9535204 Eh     change       -0.2041295E-02 Eh
 * total energy  :   -82.9549372 Eh     change       -0.1416850E-02 Eh
 * total energy  :   -82.9559440 Eh     change       -0.1006810E-02 Eh
 * total energy  :   -82.9564919 Eh     change       -0.5478569E-03 Eh
 * total energy  :   -82.9567961 Eh     change       -0.3042135E-03 Eh
 * total energy  :   -82.9569495 Eh     change       -0.1534244E-03 Eh
 * total energy  :   -82.9590574 Eh     change       -0.2208456E-04 Eh
 * total energy  :   -82.9590698 Eh     change       -0.1237491E-04 Eh
 * total energy  :   -82.9590767 Eh     change       -0.6916369E-05 Eh
 * total energy  :   -82.9590837 Eh     change       -0.6952162E-05 Eh
 * total energy  :   -82.9590913 Eh     change       -0.7672681E-05 Eh
 * total energy  :   -82.9590992 Eh     change       -0.7911207E-05 Eh
 * total energy  :   -82.9591066 Eh     change       -0.7313873E-05 Eh
 * total energy  :   -82.9591128 Eh     change       -0.6232975E-05 Eh
 * total energy  :   -82.9591157 Eh     change       -0.2882823E-05 Eh
   *** GEOMETRY OPTIMIZATION CONVERGED AFTER 44 ITERATIONS ***

 final structure:
================
42
 xtb: 6.5.1 (579679a)
C            6.23121026256826       -0.69921022509514       -1.90202665263295
C            5.48466260228244       -0.88573912693940       -0.63930539003471
N            5.88736376489221       -1.47573343280688        0.44277258307038
N            4.86397306316905       -1.39627682712985        1.33792587381599
C            3.89808230894849       -0.76409202739874        0.74744495732822
C            2.57362608910990       -0.41192426333276        1.31248851765297
O            2.28590141172171       -0.67741540344920        2.47203164150692
N            1.76265210661552        0.18192899279748        0.41736913168393
C            0.46434530282264        0.81025866415109        0.70700992436648
C            0.55575854746220        1.67592999016211        1.97123761953849
C            0.13038619047953        1.68564106767794       -0.50202574600816
C           -0.62036435469569       -0.24107003140758        0.88193315533659
N           -1.71301920797742       -0.12820986525447        0.22243217703347
C           -2.72838637109958       -1.06184832618627        0.39368731677883
C           -3.90683030532122       -0.91764849624345       -0.31279311454412
O           -4.94207673211005       -1.46727941419597       -0.47308394040555
O           -3.80948537012392        0.48671821669320       -1.25676044154942
C           -4.72594249949853        0.39423456493334       -2.35917352337043
C           -3.98495460436530        1.67219021747907       -0.46203008279198
C           -2.60427137115989       -2.19104184690774        1.28350523275483
O           -3.45861270671140       -3.05287093693113        1.45451399449755
C           -1.29313238152089       -2.25724197422286        2.05146850094378
O           -1.03228944807366       -3.13298644272796        2.85769413030039
N           -0.40487903990887       -1.25118473942760        1.78655946267054
O            4.23245587304006       -0.41506132603075       -0.51392128563038
H            6.26527748483455        0.35891086936466       -2.15911265736811
H            5.72845513931102       -1.22578916646826       -2.71323747793984
H            7.24259306036036       -1.08284718429170       -1.79033334074625
H            2.13941390490681        0.36274191011276       -0.49916713850054
H           -0.38099149747013        2.21597561717995        2.09762760289421
H            1.36717964713372        2.39362185176438        1.86430919015541
H            0.73259126666277        1.06600268229669        2.85497196460481
H            0.90917772339489        2.43135293863550       -0.64825693783134
H            0.04344238215302        1.07423267618757       -1.39888970769895
H           -0.81805010996157        2.19302625390923       -0.33693232735506
H           -4.46391320132929       -0.50186411367830       -2.91891377617931
H           -4.59134920993961        1.28033767263525       -2.97631393929585
H           -5.75445896549557        0.33354872287823       -1.99625301589848
H           -3.20626610032863        1.65892678411059        0.29818385029246
H           -3.85378023538148        2.53356642049036       -1.11552764315516
H           -4.97767565654995        1.68621562251711       -0.00720620622466
H            0.47217923717632       -1.25802756584879        2.30335551793347

          :  Hamiltonian                  GFN1-xTB          :
         :: total energy             -82.959115675513 Eh    ::
         :: gradient norm              0.000257175860 Eh/a0 ::
         :: HOMO-LUMO gap              2.469162343180 eV    ::
         :: SCC energy               -83.755665393919 Eh    ::
         :: -> Gsolv                  -0.075890092761 Eh    ::
         :: repulsion energy           0.822973730355 Eh    ::

    * Orbital Energies and Occupations

         #    Occupation            Energy/Eh            Energy/eV
      -------------------------------------------------------------
         1        2.0000           -0.8691745             -23.6514
       ...           ...                  ...                  ...
        55        2.0000           -0.5059586             -13.7678
        56        2.0000           -0.5042792             -13.7221
        57        2.0000           -0.4998326             -13.6011
        58        2.0000           -0.4940112             -13.4427
        59        2.0000           -0.4806943             -13.0804
        60        2.0000           -0.4727131             -12.8632
        61        2.0000           -0.4679742             -12.7342
        62        2.0000           -0.4638289             -12.6214
        63        2.0000           -0.4549182             -12.3790
        64        2.0000           -0.4530693             -12.3286
        65        2.0000           -0.4438544             -12.0779
        66        2.0000           -0.4175398             -11.3618
        67        2.0000           -0.4109336             -11.1821 (HOMO)
        68                         -0.3201936              -8.7129 (LUMO)
        69                         -0.3132083              -8.5228
        70                         -0.2705249              -7.3614
        71                         -0.2574111              -7.0045
        72                         -0.2375632              -6.4644
        73                         -0.2065226              -5.6198
        74                         -0.2010433              -5.4707
        75                         -0.1573095              -4.2806
        76                         -0.1487193              -4.0469
        77                         -0.1452023              -3.9512
        78                         -0.1422003              -3.8695
       ...                                ...                  ...
       134                          0.8609961              23.4289
      -------------------------------------------------------------
                  HL-Gap            0.0907400 Eh            2.4692 eV

Wiberg/Mayer (AO) data.
largest (>0.10) Wiberg bond orders for each atom

     #   Z sym  total        # sym  WBO       # sym  WBO       # sym  WBO
 ---------------------------------------------------------------------------
     1   6 C    3.986 --     2 C    1.032    28 H    0.982    26 H    0.964
                            27 H    0.961
     2   6 C    3.868 --     3 N    1.610    25 O    1.072     1 C    1.032
     3   7 N    2.982 --     2 C    1.610     4 N    1.200
     4   7 N    3.001 --     5 C    1.621     3 N    1.200
     5   6 C    3.873 --     4 N    1.621    25 O    1.047     6 C    0.997
     6   6 C    3.916 --     7 O    1.558     8 N    1.273     5 C    0.997
     7   8 O    1.913 --     6 C    1.558     8 N    0.175
     8   7 N    3.352 --     6 C    1.273     9 C    0.917    29 H    0.893
                             7 O    0.175
     9   6 C    3.934 --    11 C    1.001    10 C    0.981    12 C    0.971
                             8 N    0.917
    10   6 C    3.986 --    30 H    0.985    31 H    0.983     9 C    0.981
                            32 H    0.979
    11   6 C    3.991 --     9 C    1.001    33 H    0.984    34 H    0.983
                            35 H    0.981
    12   6 C    3.935 --    13 N    1.646    24 N    1.122     9 C    0.971
    13   7 N    3.038 --    12 C    1.646    14 C    1.109
    14   6 C    3.918 --    15 C    1.331    20 C    1.151    13 N    1.109
                            16 O    0.112
    15   6 C    3.811 --    16 O    1.775    14 C    1.331    17 O    0.504
    16   8 O    2.107 --    15 C    1.775    14 C    0.112
    17   8 O    2.396 --    18 C    0.874    19 C    0.871    15 C    0.504
    18   6 C    3.844 --    38 H    0.979    36 H    0.979    37 H    0.978
                            17 O    0.874
    19   6 C    3.843 --    41 H    0.982    40 H    0.978    39 H    0.973
                            17 O    0.871
    20   6 C    3.920 --    21 O    1.629    14 C    1.151    22 C    0.939
    21   8 O    1.915 --    20 C    1.629
    22   6 C    3.888 --    23 O    1.627    24 N    1.171    20 C    0.939
    23   8 O    1.903 --    22 C    1.627    24 N    0.139
    24   7 N    3.444 --    22 C    1.171    12 C    1.122    42 H    0.853
                            23 O    0.139
    25   8 O    2.316 --     2 C    1.072     5 C    1.047
    26   1 H    0.996 --     1 C    0.964
    27   1 H    0.997 --     1 C    0.961
    28   1 H    0.998 --     1 C    0.982
    29   1 H    0.937 --     8 N    0.893
    30   1 H    1.001 --    10 C    0.985
    31   1 H    0.999 --    10 C    0.983
    32   1 H    1.009 --    10 C    0.979
    33   1 H    0.998 --    11 C    0.984
    34   1 H    1.003 --    11 C    0.983
    35   1 H    1.010 --    11 C    0.981
    36   1 H    1.004 --    18 C    0.979
    37   1 H    1.001 --    18 C    0.978
    38   1 H    1.004 --    18 C    0.979
    39   1 H    1.024 --    19 C    0.973
    40   1 H    1.001 --    19 C    0.978
    41   1 H    0.998 --    19 C    0.982
    42   1 H    0.935 --    24 N    0.853
 ---------------------------------------------------------------------------

           -------------------------------------------------
          | TOTAL ENERGY              -82.959115675513 Eh   |
          | GRADIENT NORM               0.000257175860 Eh/α |
          | HOMO-LUMO GAP               2.469162343180 eV   |
           -------------------------------------------------

 * finished run on 2023/06/21 at 17:36:19.496
