   * xtb version 6.5.1 (579679a) compiled by 'ehlert@majestix' on 2022-07-11
          program call               : /lustre/hpc/kemi/ree/PhD/git/ReactivityQM/dep/xtb-6.5.1/bin/xtb --gfn 1 /lustre/hpc/kemi/ree/PhD/git/ReactivityQM/calculations/R02methylcation/reac01prodE13/conf02/R02methylcation_reac01prodE13_conf02_gfn1.xyz --opt --vfukui --chrg -2 --uhf 0 --alpb DMSO

   ID    Z sym.   atoms
    1    6 C      1, 3, 5, 6, 8, 10, 12-15, 17, 19, 22, 23
    2    8 O      2, 4, 7, 9, 18, 24
    3    7 N      11, 16, 20, 21, 25
    4    1 H      26-42

      * Solvation model:               ALPB
        Solvent                        DMSO
        Solvent mass                       7.8130E+01 g/mol
          :  Hamiltonian                  GFN1-xTB          :
 * total energy  :   -83.5670151 Eh     change       -0.4814041E-08 Eh
 * total energy  :   -83.5793641 Eh     change       -0.1234900E-01 Eh
 * total energy  :   -83.5839146 Eh     change       -0.4550511E-02 Eh
 * total energy  :   -83.5848295 Eh     change       -0.9148282E-03 Eh
 * total energy  :   -83.5859137 Eh     change       -0.1084237E-02 Eh
 * total energy  :   -83.5866598 Eh     change       -0.7461088E-03 Eh
 * total energy  :   -83.5873607 Eh     change       -0.7008859E-03 Eh
 * total energy  :   -83.5879682 Eh     change       -0.6074669E-03 Eh
 * total energy  :   -83.5883453 Eh     change       -0.3771083E-03 Eh
 * total energy  :   -83.5885646 Eh     change       -0.2193078E-03 Eh
 * total energy  :   -83.5950959 Eh     change       -0.1127440E-04 Eh
 * total energy  :   -83.5951066 Eh     change       -0.1065043E-04 Eh
 * total energy  :   -83.5951044 Eh     change        0.2175053E-05 Eh
 * total energy  :   -83.5951134 Eh     change       -0.9027865E-05 Eh
 * total energy  :   -83.5951213 Eh     change       -0.7934243E-05 Eh
 * total energy  :   -83.5951265 Eh     change       -0.5139332E-05 Eh
 * total energy  :   -83.5951342 Eh     change       -0.7767654E-05 Eh
 * total energy  :   -83.5951393 Eh     change       -0.5076872E-05 Eh
 * total energy  :   -83.5951441 Eh     change       -0.4765917E-05 Eh
   *** GEOMETRY OPTIMIZATION CONVERGED AFTER 66 ITERATIONS ***

 final structure:
================
42
 xtb: 6.5.1 (579679a)
C           -5.29937119554933        2.20687649157878       -1.59222096059660
O           -4.03023113170566        1.64741876080908       -1.33845870368935
C           -3.80818587327492        1.26875003389442        0.00644702974229
O           -4.72019252777311        1.47584898425582        0.82347997508929
C           -2.52937366758482        0.70589822132814        0.21045722523180
C           -2.06035530798434        0.21725170484958        1.52685073254116
O           -2.78547316077363        0.22976181701767        2.56643375546772
C           -0.75466501794256       -0.29386756237305        1.51705637595857
O           -0.10687201922740       -0.78163665747687        2.65088428190412
C           -0.14316102781840       -2.19168396099286        2.81762935384154
N            0.05664657653793       -0.28200624603698        0.35977518755304
C           -0.53444841057103        0.11134717266227       -0.83555386737257
C            0.39208516626440        0.05530121525786       -2.03760352260358
C            0.36938090491225       -1.34814781207233       -2.65309403138825
C           -0.01730688852828        1.10203657423328       -3.07787894378224
N            1.76737104472447        0.32025904076705       -1.57074826000973
C            1.84722262200675        1.23196480921076       -0.48333292994163
O            1.28849830628346        2.34940993128099       -0.52741702743918
C            2.71113232428697        0.81539033500885        0.58031592123549
N            3.02310099404490        1.47820004997696        1.69011966539448
N            3.82151330947515        0.64341911319949        2.42958405648720
C            3.95747431925034       -0.45235063095292        1.76241974153835
C            4.74524604666209       -1.64952758793488        2.14504739445722
O            3.29122544834377       -0.43771124014065        0.58211001147163
N           -1.70594830749022        0.62024687540123       -0.90862149997056
H           -5.45802408897706        3.12893345681330       -1.01674449162999
H           -5.34779288570930        2.43960991180433       -2.65740123988690
H           -6.10575308168026        1.50448139528661       -1.34346795922789
H            0.34498785091323       -2.70559160653169        1.98057629958242
H            0.39630471191146       -2.42421099087120        3.73692689156882
H           -1.17464385005933       -2.55829870132449        2.90285967734239
H            0.74563640695102       -1.01592548152441        0.30239216204021
H            0.63925751177592       -2.09329864465665       -1.90554158970049
H            1.07571443741062       -1.41248044432219       -3.47969398495763
H           -0.62909082300540       -1.57480786743474       -3.02579516536299
H            0.62403058619945        1.02665428690675       -3.95478760719545
H           -1.05343839192409        0.93819708911172       -3.37524282305308
H            0.07542757001927        2.10353285647692       -2.65571033076136
H            2.25798249572963       -0.54172741905358       -1.37224173557722
H            5.16739019236447       -1.50748812993506        3.13704965871894
H            5.55324703297483       -1.81263096231484        1.43179089862668
H            4.11345279848347       -2.53739918116748        2.14300537838588

          :  Hamiltonian                  GFN1-xTB          :
         :: total energy             -83.595144088773 Eh    ::
         :: gradient norm              0.000708266367 Eh/a0 ::
         :: HOMO-LUMO gap              0.361249104726 eV    ::
         :: SCC energy               -84.317403411070 Eh    ::
         :: -> Gsolv                  -0.309444448031 Eh    ::
         :: repulsion energy           0.749956346536 Eh    ::

    * Orbital Energies and Occupations

         #    Occupation            Energy/Eh            Energy/eV
      -------------------------------------------------------------
         1        2.0000           -0.8036350             -21.8680
       ...           ...                  ...                  ...
        56        2.0000           -0.4303253             -11.7097
        57        2.0000           -0.4265396             -11.6067
        58        2.0000           -0.4221664             -11.4877
        59        2.0000           -0.4094374             -11.1414
        60        2.0000           -0.4056455             -11.0382
        61        2.0000           -0.4027773             -10.9601
        62        2.0000           -0.3987473             -10.8505
        63        2.0000           -0.3948849             -10.7454
        64        2.0000           -0.3881215             -10.5613
        65        2.0000           -0.3775769             -10.2744
        66        2.0000           -0.3376552              -9.1881
        67        2.0000           -0.3325700              -9.0497
        68        1.9982           -0.2745091              -7.4698 (HOMO)
        69        0.0018           -0.2612335              -7.1085 (LUMO)
        70                         -0.2091835              -5.6922
        71                         -0.2001944              -5.4476
        72                         -0.1641469              -4.4667
        73                         -0.1408195              -3.8319
        74                         -0.1231819              -3.3519
        75                         -0.1105899              -3.0093
        76                         -0.1072256              -2.9178
        77                         -0.1040289              -2.8308
        78                         -0.0960833              -2.6146
        79                         -0.0715637              -1.9473
       ...                                ...                  ...
       134                          0.7362928              20.0355
      -------------------------------------------------------------
                  HL-Gap            0.0132757 Eh            0.3612 eV

Wiberg/Mayer (AO) data.
largest (>0.10) Wiberg bond orders for each atom

     #   Z sym  total        # sym  WBO       # sym  WBO       # sym  WBO
 ---------------------------------------------------------------------------
     1   6 C    3.923 --    27 H    0.987    26 H    0.980    28 H    0.980
                             2 O    0.955
     2   8 O    2.054 --     1 C    0.955     3 C    0.928
     3   6 C    3.804 --     4 O    1.480     5 C    1.281     2 O    0.928
     4   8 O    1.741 --     3 C    1.480
     5   6 C    3.848 --     3 C    1.281    25 N    1.136     6 C    1.067
     6   6 C    3.953 --     7 O    1.402     8 C    1.336     5 C    1.067
     7   8 O    1.666 --     6 C    1.402     8 C    0.123
     8   6 C    3.772 --     6 C    1.336    11 N    1.013     9 O    0.948
                             7 O    0.123
     9   8 O    2.016 --     8 C    0.948    10 C    0.939
    10   6 C    3.926 --    30 H    0.986    31 H    0.982    29 H    0.982
                             9 O    0.939
    11   7 N    3.371 --    12 C    1.079     8 C    1.013    32 H    0.913
    12   6 C    3.936 --    25 N    1.644    11 N    1.079    13 C    0.971
    13   6 C    3.955 --    15 C    0.996    14 C    0.989    12 C    0.971
                            16 N    0.935
    14   6 C    3.993 --    13 C    0.989    34 H    0.986    35 H    0.985
                            33 H    0.984
    15   6 C    3.996 --    13 C    0.996    36 H    0.988    37 H    0.986
                            38 H    0.981
    16   7 N    3.121 --    17 C    1.038    13 C    0.935    39 H    0.932
    17   6 C    3.889 --    18 O    1.453    19 C    1.139    16 N    1.038
    18   8 O    1.774 --    17 C    1.453
    19   6 C    3.827 --    20 N    1.431    17 C    1.139    24 O    0.976
    20   7 N    2.854 --    19 C    1.431    21 N    1.177
    21   7 N    2.981 --    22 C    1.639    20 N    1.177
    22   6 C    3.859 --    21 N    1.639    24 O    1.041    23 C    1.024
    23   6 C    3.994 --    22 C    1.024    40 H    0.986    42 H    0.972
                            41 H    0.970
    24   8 O    2.226 --    22 C    1.041    19 C    0.976
    25   7 N    3.009 --    12 C    1.644     5 C    1.136
    26   1 H    1.021 --     1 C    0.980
    27   1 H    1.021 --     1 C    0.987
    28   1 H    1.021 --     1 C    0.980
    29   1 H    1.016 --    10 C    0.982
    30   1 H    1.021 --    10 C    0.986
    31   1 H    1.018 --    10 C    0.982
    32   1 H    0.968 --    11 N    0.913
    33   1 H    1.004 --    14 C    0.984
    34   1 H    1.003 --    14 C    0.986
    35   1 H    1.007 --    14 C    0.985
    36   1 H    1.010 --    15 C    0.988
    37   1 H    1.020 --    15 C    0.986
    38   1 H    1.028 --    15 C    0.981
    39   1 H    0.971 --    16 N    0.932
    40   1 H    1.004 --    23 C    0.986
    41   1 H    1.001 --    23 C    0.970
    42   1 H    1.001 --    23 C    0.972
 ---------------------------------------------------------------------------

           -------------------------------------------------
          | TOTAL ENERGY              -83.595144088773 Eh   |
          | GRADIENT NORM               0.000708266367 Eh/α |
          | HOMO-LUMO GAP               0.361249104726 eV   |
           -------------------------------------------------

 * finished run on 2023/06/21 at 17:25:36.445
