   * xtb version 6.5.1 (579679a) compiled by 'ehlert@majestix' on 2022-07-11
          program call               : /lustre/hpc/kemi/ree/PhD/git/ReactivityQM/dep/xtb-6.5.1/bin/xtb --gfn 1 /lustre/hpc/kemi/ree/PhD/git/ReactivityQM/calculations/R02oxygendeprot/reac01prodE13/conf11/R02oxygendeprot_reac01prodE13_conf11_gfn1.xyz --opt --vfukui --chrg -2 --uhf 0 --alpb DMSO

   ID    Z sym.   atoms
    1    6 C      1, 3, 5, 6, 8, 10, 12-15, 17, 19, 22, 23
    2    8 O      2, 4, 7, 9, 18, 24
    3    7 N      11, 16, 20, 21, 25
    4    1 H      26-42

      * Solvation model:               ALPB
        Solvent                        DMSO
        Solvent mass                       7.8130E+01 g/mol
          :  Hamiltonian                  GFN1-xTB          :
 * total energy  :   -83.5663364 Eh     change       -0.7830181E-10 Eh
 * total energy  :   -83.5804734 Eh     change       -0.1413700E-01 Eh
 * total energy  :   -83.5859755 Eh     change       -0.5502101E-02 Eh
 * total energy  :   -83.5868798 Eh     change       -0.9042134E-03 Eh
 * total energy  :   -83.5872806 Eh     change       -0.4008628E-03 Eh
 * total energy  :   -83.5873787 Eh     change       -0.9809190E-04 Eh
 * total energy  :   -83.5874308 Eh     change       -0.5212241E-04 Eh
 * total energy  :   -83.5874601 Eh     change       -0.2927279E-04 Eh
 * total energy  :   -83.5874861 Eh     change       -0.2598438E-04 Eh
 * total energy  :   -83.5875314 Eh     change       -0.4530756E-04 Eh
 * total energy  :   -83.5938566 Eh     change       -0.1924712E-04 Eh
 * total energy  :   -83.5938696 Eh     change       -0.1293558E-04 Eh
 * total energy  :   -83.5938862 Eh     change       -0.1658405E-04 Eh
 * total energy  :   -83.5938945 Eh     change       -0.8308236E-05 Eh
 * total energy  :   -83.5939035 Eh     change       -0.9037820E-05 Eh
 * total energy  :   -83.5939083 Eh     change       -0.4745186E-05 Eh
 * total energy  :   -83.5939149 Eh     change       -0.6600130E-05 Eh
 * total energy  :   -83.5939228 Eh     change       -0.7917699E-05 Eh
 * total energy  :   -83.5939261 Eh     change       -0.3340056E-05 Eh
   *** GEOMETRY OPTIMIZATION CONVERGED AFTER 94 ITERATIONS ***

 final structure:
================
42
 xtb: 6.5.1 (579679a)
C           -3.55125151135068        3.91034925425046        1.40098663484742
O           -3.53981199374491        2.55821158070055        1.00457601883214
C           -2.27554637475843        2.04840685931965        0.67300414229456
O           -1.29288650065001        2.82042236391190        0.75187799251753
C           -2.25058780197182        0.69633970077622        0.27815226400966
C           -3.42270299130173       -0.20096298579285        0.17263937391373
O           -4.60959971399537        0.15824162714681        0.45594767638107
C           -3.11814310178076       -1.48915446970288       -0.27486565654312
O           -4.04223992363179       -2.51022277487421       -0.50176328601533
C           -4.82648103173280       -2.89864801060992        0.61830594630399
N           -1.79412347246425       -1.88975249101427       -0.54534252291176
C           -0.77340293823695       -0.97982096962544       -0.43951562166541
C            0.62806108759657       -1.46852659470014       -0.78293600383827
C            0.67258298260615       -1.94932590839399       -2.24307210234495
C            1.01982880873956       -2.61472496771450        0.16914791376224
N            1.52071478738659       -0.33238664285378       -0.61592761273052
C            2.89588624421146       -0.43419718782127       -0.68339179298275
O            3.48863356374944       -1.41901396476503       -1.17550044164377
C            3.54537733963889        0.74062172860358       -0.17303018207272
N            2.94866940174737        1.80666331365401        0.35967423381296
N            3.94557917452032        2.66647578150622        0.72905481705128
C            5.06938630148544        2.10901939003226        0.41882981835562
C            6.42990795071261        2.66019479322461        0.63569727344455
O            4.91735546398500        0.89196441819875       -0.15585064320068
N           -0.96747134472808        0.22717512310340       -0.05047726500659
H           -3.17287919401484        4.56879350962335        0.60731699984073
H           -2.94170063494362        4.07366299977439        2.30004679804844
H           -4.58642804199303        4.17855262273571        1.62083676859174
H           -4.19488810588006       -3.23341690465210        1.45166282823116
H           -5.46640878467127       -2.07507081436177        0.96162854605369
H           -5.45511361975974       -3.73006258562101        0.29381819381330
H           -1.65076692391235       -2.82255590950403       -0.88401621651823
H           -0.02846961401939       -2.76872649281906       -2.39034833930978
H            0.40564249152498       -1.13130491839627       -2.91253618245777
H            1.67279163893022       -2.29977652180972       -2.49337127759637
H            1.01765571504597       -2.26174243729633        1.20031450256533
H            2.01236432482438       -2.98951575693834       -0.07618117045957
H            0.30823075612521       -3.43300465842140        0.07726280157098
H            1.13914437505989        0.42565990161542       -0.04837809631798
H            6.35368015752972        3.65180105771127        1.07555318531049
H            6.96998405668420        2.72520285283472       -0.30882927847211
H            6.99942799743493        2.01415508896917        1.30424296254046

          :  Hamiltonian                  GFN1-xTB          :
         :: total energy             -83.593926109140 Eh    ::
         :: gradient norm              0.000361381962 Eh/a0 ::
         :: HOMO-LUMO gap              0.046675293718 eV    ::
         :: SCC energy               -84.321271297287 Eh    ::
         :: -> Gsolv                  -0.283015351263 Eh    ::
         :: repulsion energy           0.752196209996 Eh    ::

    * Orbital Energies and Occupations

         #    Occupation            Energy/Eh            Energy/eV
      -------------------------------------------------------------
         1        2.0000           -0.8038395             -21.8736
       ...           ...                  ...                  ...
        56        2.0000           -0.4332363             -11.7890
        57        2.0000           -0.4311921             -11.7333
        58        2.0000           -0.4257296             -11.5847
        59        2.0000           -0.4087846             -11.1236
        60        2.0000           -0.4060675             -11.0497
        61        2.0000           -0.4051866             -11.0257
        62        2.0000           -0.3975144             -10.8169
        63        2.0000           -0.3894925             -10.5986
        64        2.0000           -0.3878152             -10.5530
        65        2.0000           -0.3833510             -10.4315
        66        2.0000           -0.3409458              -9.2776
        67        2.0000           -0.3347020              -9.1077
        68        1.4230           -0.2669184              -7.2632 (HOMO)
        69        0.5770           -0.2652031              -7.2165 (LUMO)
        70                         -0.2117075              -5.7609
        71                         -0.1992761              -5.4226
        72                         -0.1620400              -4.4093
        73                         -0.1403476              -3.8191
        74                         -0.1256556              -3.4193
        75                         -0.1067899              -2.9059
        76                         -0.1053407              -2.8665
        77                         -0.1049907              -2.8569
        78                         -0.0978310              -2.6621
        79                         -0.0733724              -1.9966
       ...                                ...                  ...
       134                          0.7133845              19.4122
      -------------------------------------------------------------
                  HL-Gap            0.0017153 Eh            0.0467 eV

Wiberg/Mayer (AO) data.
largest (>0.10) Wiberg bond orders for each atom

     #   Z sym  total        # sym  WBO       # sym  WBO       # sym  WBO
 ---------------------------------------------------------------------------
     1   6 C    3.924 --    28 H    0.987    27 H    0.980    26 H    0.980
                             2 O    0.957
     2   8 O    2.067 --     1 C    0.957     3 C    0.943
     3   6 C    3.788 --     4 O    1.438     5 C    1.302     2 O    0.943
     4   8 O    1.695 --     3 C    1.438
     5   6 C    3.754 --     3 C    1.302    25 N    1.098     6 C    1.071
     6   6 C    3.924 --     7 O    1.383     8 C    1.346     5 C    1.071
     7   8 O    1.680 --     6 C    1.383     8 C    0.119
     8   6 C    3.530 --     6 C    1.346    11 N    1.006     9 O    0.947
                             7 O    0.119
     9   8 O    2.008 --     8 C    0.947    10 C    0.935
    10   6 C    3.910 --    31 H    0.987    29 H    0.983    30 H    0.979
                             9 O    0.935
    11   7 N    3.241 --    12 C    1.126     8 C    1.006    32 H    0.911
                            25 N    0.108
    12   6 C    3.929 --    25 N    1.618    11 N    1.126    13 C    0.973
    13   6 C    3.952 --    14 C    0.985    15 C    0.980    12 C    0.973
                            16 N    0.951
    14   6 C    3.991 --    34 H    0.987    33 H    0.986    13 C    0.985
                            35 H    0.981
    15   6 C    3.990 --    36 H    0.987    38 H    0.986    37 H    0.981
                            13 C    0.980
    16   7 N    3.194 --    17 C    1.135    13 C    0.951    39 H    0.894
                            18 O    0.124
    17   6 C    3.776 --    18 O    1.443    16 N    1.135    19 C    1.128
    18   8 O    1.700 --    17 C    1.443    16 N    0.124
    19   6 C    3.693 --    20 N    1.415    17 C    1.128    24 O    0.980
    20   7 N    2.764 --    19 C    1.415    21 N    1.186
    21   7 N    2.981 --    22 C    1.628    20 N    1.186
    22   6 C    3.821 --    21 N    1.628    24 O    1.051    23 C    1.024
    23   6 C    3.994 --    22 C    1.024    40 H    0.986    41 H    0.972
                            42 H    0.970
    24   8 O    2.188 --    22 C    1.051    19 C    0.980
    25   7 N    2.982 --    12 C    1.618     5 C    1.098    11 N    0.108
    26   1 H    1.022 --     1 C    0.980
    27   1 H    1.022 --     1 C    0.980
    28   1 H    1.021 --     1 C    0.987
    29   1 H    1.014 --    10 C    0.983
    30   1 H    1.038 --    10 C    0.979
    31   1 H    1.020 --    10 C    0.987
    32   1 H    0.960 --    11 N    0.911
    33   1 H    1.006 --    14 C    0.986
    34   1 H    1.010 --    14 C    0.987
    35   1 H    1.020 --    14 C    0.981
    36   1 H    1.007 --    15 C    0.987
    37   1 H    1.016 --    15 C    0.981
    38   1 H    1.006 --    15 C    0.986
    39   1 H    0.997 --    16 N    0.894
    40   1 H    1.004 --    23 C    0.986
    41   1 H    1.001 --    23 C    0.972
    42   1 H    1.001 --    23 C    0.970
 ---------------------------------------------------------------------------

           -------------------------------------------------
          | TOTAL ENERGY              -83.593926109140 Eh   |
          | GRADIENT NORM               0.000361381962 Eh/α |
          | HOMO-LUMO GAP               0.046675293718 eV   |
           -------------------------------------------------

 * finished run on 2023/06/21 at 17:14:47.720
