   * xtb version 6.5.1 (579679a) compiled by 'ehlert@majestix' on 2022-07-11
          program call               : /lustre/hpc/kemi/ree/PhD/git/ReactivityQM/dep/xtb-6.5.1/bin/xtb --gfn 1 /lustre/hpc/kemi/ree/PhD/git/ReactivityQM/calculations/R02/reac01prodE04/conf18/R02_reac01prodE04_conf18_gfn1.xyz --opt --vfukui --chrg -1 --uhf 0 --alpb DMSO

   ID    Z sym.   atoms
    1    6 C      1, 3, 5, 6, 8-11, 13, 15, 18, 19, 22, 24
    2    8 O      2, 4, 14, 20, 23, 25
    3    7 N      7, 12, 16, 17, 21
    4    1 H      26-43

      * Solvation model:               ALPB
        Solvent                        DMSO
        Solvent mass                       7.8130E+01 g/mol
          :  Hamiltonian                  GFN1-xTB          :
 * total energy  :   -83.8469043 Eh     change       -0.4962146E-09 Eh
 * total energy  :   -83.8611729 Eh     change       -0.1426859E-01 Eh
 * total energy  :   -83.8670657 Eh     change       -0.5892772E-02 Eh
 * total energy  :   -83.8683301 Eh     change       -0.1264433E-02 Eh
 * total energy  :   -83.8693409 Eh     change       -0.1010728E-02 Eh
 * total energy  :   -83.8698523 Eh     change       -0.5114813E-03 Eh
 * total energy  :   -83.8702772 Eh     change       -0.4248688E-03 Eh
 * total energy  :   -83.8706052 Eh     change       -0.3280023E-03 Eh
 * total energy  :   -83.8708203 Eh     change       -0.2150827E-03 Eh
 * total energy  :   -83.8709658 Eh     change       -0.1454852E-03 Eh
 * total energy  :   -83.8732189 Eh     change       -0.9712350E-05 Eh
 * total energy  :   -83.8732293 Eh     change       -0.1047600E-04 Eh
 * total energy  :   -83.8732409 Eh     change       -0.1152142E-04 Eh
 * total energy  :   -83.8732501 Eh     change       -0.9231751E-05 Eh
 * total energy  :   -83.8732613 Eh     change       -0.1124739E-04 Eh
 * total energy  :   -83.8732775 Eh     change       -0.1614434E-04 Eh
 * total energy  :   -83.8732843 Eh     change       -0.6809515E-05 Eh
 * total energy  :   -83.8732948 Eh     change       -0.1052778E-04 Eh
 * total energy  :   -83.8732995 Eh     change       -0.4698443E-05 Eh
   *** GEOMETRY OPTIMIZATION CONVERGED AFTER 54 ITERATIONS ***

 final structure:
================
43
 xtb: 6.5.1 (579679a)
C           -4.62286575496168        0.18705125358624        2.33981990145272
O           -3.51774161162497        0.21816900124160        1.44004487888064
C           -3.81279288134298        0.45549717375859        0.14714360288900
O           -4.95715471127385        0.63843024148168       -0.22682892300167
C           -2.60316463934549        0.32265340789127       -0.78787020000078
C           -2.84019440725013        1.17203417633527       -2.04402892951359
N           -1.39165130387838        0.79263625510281       -0.12183667172290
C           -0.64143068140959       -0.05173239294716        0.48528580243798
C            0.58183811313667        0.50792344474316        1.22031144258111
C            0.64994700520437       -0.00291652387505        2.66278688686890
C            0.51841997436275        2.03723603083236        1.22433348996364
N            1.80566388335738        0.15008796447426        0.48088951746723
C            2.40537658107420       -1.05126523606990        0.46322574495321
O            2.01628784513607       -2.06511310640499        1.02684405592044
C            3.65161518370485       -1.05516112336543       -0.34863775345026
N            4.42683576321507       -2.06620299258390       -0.59686972984481
N            5.44460070185833       -1.60053404429885       -1.37762528222939
C            5.22886367202615       -0.33584358087629       -1.55658626909817
C            6.05056486993072        0.62340847615587       -2.32659844615502
O            4.10966773269717        0.07449624829423       -0.93546335695988
N           -0.86319941842010       -1.38482544304359        0.54702145356656
C           -1.73211660248829       -2.02263712910714       -0.42877875083610
O           -1.61473637815981       -3.27044939492402       -0.58889570340607
C           -2.54684786139192       -1.15230008730302       -1.08455745897937
O           -3.43010657941685       -1.61594472390627       -2.09199427867237
H           -5.33212174997882       -0.59531638371163        2.05340115470848
H           -5.13961340278713        1.15087098770785        2.34084061139514
H           -4.22201748657498       -0.01813461081171        3.33092816932850
H           -2.89112505216394        2.22637862173623       -1.77436287370744
H           -3.77375200696773        0.87926465334061       -2.52339577731789
H           -2.01749213282073        1.02693121227088       -2.74245757580497
H            1.54949559918915        0.37660831033704        3.14490316054375
H            0.66235277321304       -1.08961081339039        2.70781794232847
H           -0.22100383699887        0.35904176092073        3.20778895081071
H            0.47701258904408        2.41601532822702        0.20393767672812
H           -0.37821675102870        2.36530830519435        1.74827665812535
H            1.39344378613770        2.44822480533877        1.72432669856193
H            2.25719749259189        0.90102322127304       -0.01398929590983
H            6.93907057467727        0.12351612474024       -2.70426068579089
H            6.34234563400370        1.45735837798991       -1.68933145863274
H            5.47549554612405        1.02359348362274       -3.16155528439498
H           -0.14033536062254       -1.98288201241966        0.92338921266601
H           -3.29641470978109       -2.57288826756673       -2.15148030674244

          :  Hamiltonian                  GFN1-xTB          :
         :: total energy             -83.873299510364 Eh    ::
         :: gradient norm              0.000492015172 Eh/a0 ::
         :: HOMO-LUMO gap              0.237333132342 eV    ::
         :: SCC energy               -84.637253646016 Eh    ::
         :: -> Gsolv                  -0.127088599469 Eh    ::
         :: repulsion energy           0.791265280756 Eh    ::

    * Orbital Energies and Occupations

         #    Occupation            Energy/Eh            Energy/eV
      -------------------------------------------------------------
         1        2.0000           -0.8577181             -23.3397
       ...           ...                  ...                  ...
        56        2.0000           -0.4725130             -12.8577
        57        2.0000           -0.4705429             -12.8041
        58        2.0000           -0.4659811             -12.6800
        59        2.0000           -0.4582222             -12.4689
        60        2.0000           -0.4540309             -12.3548
        61        2.0000           -0.4504676             -12.2578
        62        2.0000           -0.4426872             -12.0461
        63        2.0000           -0.4382067             -11.9242
        64        2.0000           -0.4327158             -11.7748
        65        2.0000           -0.3949155             -10.7462
        66        2.0000           -0.3855323             -10.4909
        67        2.0000           -0.3753122             -10.2128
        68        1.9799           -0.3088742              -8.4049 (HOMO)
        69        0.0201           -0.3001523              -8.1676 (LUMO)
        70                         -0.2502181              -6.8088
        71                         -0.2363532              -6.4315
        72                         -0.2180930              -5.9346
        73                         -0.1878876              -5.1127
        74                         -0.1394461              -3.7945
        75                         -0.1285549              -3.4982
        76                         -0.1281297              -3.4866
        77                         -0.1146491              -3.1198
        78                         -0.1124825              -3.0608
        79                         -0.0969387              -2.6378
       ...                                ...                  ...
       136                          0.7361816              20.0325
      -------------------------------------------------------------
                  HL-Gap            0.0087218 Eh            0.2373 eV

Wiberg/Mayer (AO) data.
largest (>0.10) Wiberg bond orders for each atom

     #   Z sym  total        # sym  WBO       # sym  WBO       # sym  WBO
 ---------------------------------------------------------------------------
     1   6 C    3.891 --    28 H    0.987    27 H    0.981    26 H    0.981
                             2 O    0.913
     2   8 O    2.172 --     3 C    1.078     1 C    0.913     4 O    0.117
     3   6 C    3.809 --     4 O    1.633     2 O    1.078     5 C    0.920
     4   8 O    1.899 --     3 C    1.633     2 O    0.117
     5   6 C    3.964 --     6 C    0.987     7 N    0.970    24 C    0.957
                             3 C    0.920
     6   6 C    3.996 --    29 H    0.988    31 H    0.987     5 C    0.987
                            30 H    0.985
     7   7 N    2.972 --     8 C    1.663     5 C    0.970    21 N    0.172
     8   6 C    3.951 --     7 N    1.663    21 N    1.211     9 C    0.953
     9   6 C    3.926 --    11 C    1.003    10 C    0.993     8 C    0.953
                            12 N    0.908
    10   6 C    3.992 --     9 C    0.993    34 H    0.986    32 H    0.985
                            33 H    0.978
    11   6 C    3.994 --     9 C    1.003    37 H    0.986    36 H    0.983
                            35 H    0.982
    12   7 N    3.361 --    13 C    1.280     9 C    0.908    38 H    0.899
                            14 O    0.180
    13   6 C    3.914 --    14 O    1.560    12 N    1.280    15 C    0.990
    14   8 O    1.894 --    13 C    1.560    12 N    0.180
    15   6 C    3.859 --    16 N    1.619    20 O    1.043    13 C    0.990
    16   7 N    2.984 --    15 C    1.619    17 N    1.192
    17   7 N    2.981 --    18 C    1.618    16 N    1.192
    18   6 C    3.868 --    17 N    1.618    20 O    1.070    19 C    1.031
    19   6 C    3.988 --    18 C    1.031    39 H    0.983    40 H    0.965
                            41 H    0.963
    20   8 O    2.308 --    18 C    1.070    15 C    1.043
    21   7 N    3.328 --     8 C    1.211    22 C    0.911    42 H    0.897
                             7 N    0.172
    22   6 C    3.914 --    24 C    1.508    23 O    1.364    21 N    0.911
    23   8 O    1.701 --    22 C    1.364    24 C    0.167
    24   6 C    3.778 --    22 C    1.508     5 C    0.957    25 O    0.945
                            23 O    0.167
    25   8 O    1.914 --    24 C    0.945    43 H    0.858
    26   1 H    1.011 --     1 C    0.981
    27   1 H    1.012 --     1 C    0.981
    28   1 H    1.014 --     1 C    0.987
    29   1 H    1.010 --     6 C    0.988
    30   1 H    1.016 --     6 C    0.985
    31   1 H    1.012 --     6 C    0.987
    32   1 H    1.002 --    10 C    0.985
    33   1 H    1.013 --    10 C    0.978
    34   1 H    1.004 --    10 C    0.986
    35   1 H    1.016 --    11 C    0.982
    36   1 H    1.012 --    11 C    0.983
    37   1 H    1.001 --    11 C    0.986
    38   1 H    0.944 --    12 N    0.899
    39   1 H    0.999 --    19 C    0.983
    40   1 H    0.997 --    19 C    0.965
    41   1 H    0.997 --    19 C    0.963
    42   1 H    0.967 --    21 N    0.897
    43   1 H    0.892 --    25 O    0.858
 ---------------------------------------------------------------------------

           -------------------------------------------------
          | TOTAL ENERGY              -83.873299510364 Eh   |
          | GRADIENT NORM               0.000492015172 Eh/α |
          | HOMO-LUMO GAP               0.237333132342 eV   |
           -------------------------------------------------

 * finished run on 2023/06/20 at 14:57:34.715
