   * xtb version 6.5.1 (579679a) compiled by 'ehlert@majestix' on 2022-07-11
          program call               : /lustre/hpc/kemi/ree/PhD/git/ReactivityQM/dep/xtb-6.5.1/bin/xtb --gfn 1 /lustre/hpc/kemi/ree/PhD/git/ReactivityQM/calculations/R02methylcation/reac01prodN05/conf11/R02methylcation_reac01prodN05_conf11_gfn1.xyz --opt --vfukui --chrg 0 --uhf 0 --alpb DMSO

   ID    Z sym.   atoms
    1    6 C      1, 3, 5, 6, 8, 11-14, 16, 18, 21, 22, 25
    2    8 O      2, 4, 7, 9, 17, 23
    3    7 N      10, 15, 19, 20, 24
    4    1 H      26-42

      * Solvation model:               ALPB
        Solvent                        DMSO
        Solvent mass                       7.8130E+01 g/mol
          :  Hamiltonian                  GFN1-xTB          :
 * total energy  :   -82.9722376 Eh     change       -0.6409095E-11 Eh
 * total energy  :   -82.9830174 Eh     change       -0.1077978E-01 Eh
 * total energy  :   -82.9870211 Eh     change       -0.4003672E-02 Eh
 * total energy  :   -82.9878397 Eh     change       -0.8186255E-03 Eh
 * total energy  :   -82.9883859 Eh     change       -0.5462306E-03 Eh
 * total energy  :   -82.9887967 Eh     change       -0.4107651E-03 Eh
 * total energy  :   -82.9891783 Eh     change       -0.3815858E-03 Eh
 * total energy  :   -82.9894680 Eh     change       -0.2897805E-03 Eh
 * total energy  :   -82.9896665 Eh     change       -0.1984595E-03 Eh
 * total energy  :   -82.9898259 Eh     change       -0.1594153E-03 Eh
 * total energy  :   -82.9908698 Eh     change       -0.1612663E-04 Eh
 * total energy  :   -82.9908850 Eh     change       -0.1518157E-04 Eh
 * total energy  :   -82.9908910 Eh     change       -0.6062733E-05 Eh
 * total energy  :   -82.9909003 Eh     change       -0.9227036E-05 Eh
 * total energy  :   -82.9909114 Eh     change       -0.1109614E-04 Eh
 * total energy  :   -82.9909174 Eh     change       -0.6004924E-05 Eh
 * total energy  :   -82.9909304 Eh     change       -0.1307975E-04 Eh
 * total energy  :   -82.9909358 Eh     change       -0.5310655E-05 Eh
 * total energy  :   -82.9909408 Eh     change       -0.4997875E-05 Eh
   *** GEOMETRY OPTIMIZATION CONVERGED AFTER 39 ITERATIONS ***

 final structure:
================
42
 xtb: 6.5.1 (579679a)
C           -3.04137253499151        2.35817511059324        2.54472158147417
O           -2.50093360202039        1.33762599815847        1.69971874498361
C           -3.37913533356735        0.40181112792817        1.27392762171671
O           -4.54533139465046        0.43660445437160        1.59729828729616
C           -2.76556640164219       -0.67257847693590        0.47595466037209
C           -3.36030655388212       -1.96388839075968        0.54451982988156
O           -4.43660117956046       -2.23344283574373        1.07692604960873
C           -2.54421061649635       -3.08266497466074       -0.05060069257896
O           -2.87572438885342       -4.24848803707638       -0.10384120325357
N           -1.29450706903034       -2.70868181555811       -0.52850722724601
C           -0.82047970859086       -1.44921486833643       -0.66603731728186
C            0.50719393533237       -1.31373184068945       -1.40694118141906
C            1.38895328555475       -2.55730766812905       -1.19885345847075
C            0.21364660048252       -1.13733873530729       -2.90482305052756
N            1.24750153491105       -0.18977443872627       -0.82678258173771
C            2.23421818859830        0.48787972452055       -1.47445681840808
O            2.45073507171521        0.46587865330265       -2.67011096312032
C            3.03354679070100        1.32674119802544       -0.55018345029124
N            4.02782394278195        2.10186127585503       -0.85389199389103
N            4.47734152229481        2.64092290974773        0.31150935733014
C            3.73190846093768        2.16163575720364        1.25863328767626
C            3.82665628183129        2.43473271472933        2.70864525992811
O            2.79631213948626        1.32360395066645        0.78039324692693
N           -1.56616106588188       -0.45832235302298       -0.22184422584123
C           -1.22878803667899        0.93008737545526       -0.56375522019177
H           -3.39802964868034        1.92147769353943        3.48131935078886
H           -2.23284505395812        3.05872480841830        2.74020990605000
H           -3.86822416442627        2.86685201055761        2.04236173960441
H           -0.73986465417920       -3.47686640164627       -0.87287451563509
H            1.46388744664960       -2.80269350155932       -0.14144850243870
H            1.00368872913691       -3.41350170862118       -1.74877471323830
H            2.38548358228751       -2.33454904728672       -1.57679961821678
H           -0.55127946849533       -1.85527836258222       -3.19753484175253
H           -0.13832235827191       -0.13285284753655       -3.12793655178923
H            1.11268897189808       -1.32948289270527       -3.48598354188792
H            1.30807975228867       -0.20419774012333        0.18020937649766
H            2.90044832681372        2.88494528090545        3.06558301162195
H            3.97798752818918        1.50211184335407        3.25243623044478
H            4.65758010861283        3.11035515557682        2.89991747806391
H           -2.14875038485978        1.50311668580060       -0.64259135148962
H           -0.71950325369208        0.95398736830364       -1.52035317329750
H           -0.58974232809984        1.35572483999121        0.20588717373857

          :  Hamiltonian                  GFN1-xTB          :
         :: total energy             -82.990940757296 Eh    ::
         :: gradient norm              0.000642685683 Eh/a0 ::
         :: HOMO-LUMO gap              2.486300710154 eV    ::
         :: SCC energy               -83.772791638653 Eh    ::
         :: -> Gsolv                  -0.079118772536 Eh    ::
         :: repulsion energy           0.809110291789 Eh    ::

    * Orbital Energies and Occupations

         #    Occupation            Energy/Eh            Energy/eV
      -------------------------------------------------------------
         1        2.0000           -0.8696511             -23.6644
       ...           ...                  ...                  ...
        55        2.0000           -0.5098712             -13.8743
        56        2.0000           -0.5092481             -13.8573
        57        2.0000           -0.4925409             -13.4027
        58        2.0000           -0.4920679             -13.3899
        59        2.0000           -0.4893971             -13.3172
        60        2.0000           -0.4841827             -13.1753
        61        2.0000           -0.4754504             -12.9377
        62        2.0000           -0.4733763             -12.8812
        63        2.0000           -0.4663213             -12.6892
        64        2.0000           -0.4568669             -12.4320
        65        2.0000           -0.4544986             -12.3675
        66        2.0000           -0.4234704             -11.5232
        67        2.0000           -0.4131779             -11.2431 (HOMO)
        68                         -0.3218081              -8.7568 (LUMO)
        69                         -0.3183119              -8.6617
        70                         -0.3030454              -8.2463
        71                         -0.2602068              -7.0806
        72                         -0.2387853              -6.4977
        73                         -0.2060972              -5.6082
        74                         -0.1689164              -4.5964
        75                         -0.1485935              -4.0434
        76                         -0.1435882              -3.9072
        77                         -0.1407123              -3.8290
        78                         -0.1344814              -3.6594
       ...                                ...                  ...
       134                          0.7580350              20.6272
      -------------------------------------------------------------
                  HL-Gap            0.0913699 Eh            2.4863 eV

Wiberg/Mayer (AO) data.
largest (>0.10) Wiberg bond orders for each atom

     #   Z sym  total        # sym  WBO       # sym  WBO       # sym  WBO
 ---------------------------------------------------------------------------
     1   6 C    3.872 --    27 H    0.986    28 H    0.980    26 H    0.980
                             2 O    0.898
     2   8 O    2.170 --     3 C    1.059     1 C    0.898     4 O    0.121
     3   6 C    3.863 --     4 O    1.643     5 C    1.068     2 O    1.059
     4   8 O    1.921 --     3 C    1.643     2 O    0.121
     5   6 C    3.852 --     6 C    1.256     3 C    1.068    24 N    1.061
                             7 O    0.141
     6   6 C    3.945 --     7 O    1.574     5 C    1.256     8 C    0.954
     7   8 O    1.884 --     6 C    1.574     5 C    0.141
     8   6 C    3.866 --     9 O    1.660    10 N    1.086     6 C    0.954
     9   8 O    1.936 --     8 C    1.660    10 N    0.117
    10   7 N    3.452 --    11 C    1.207     8 C    1.086    29 H    0.878
                             9 O    0.117
    11   6 C    3.914 --    24 N    1.428    10 N    1.207    12 C    0.977
    12   6 C    3.934 --    13 C    0.984    14 C    0.977    11 C    0.977
                            15 N    0.934
    13   6 C    3.985 --    12 C    0.984    30 H    0.983    32 H    0.979
                            31 H    0.977
    14   6 C    3.981 --    33 H    0.984    12 C    0.977    34 H    0.976
                            35 H    0.976
    15   7 N    3.317 --    16 C    1.214    12 C    0.934    36 H    0.895
                            17 O    0.166
    16   6 C    3.911 --    17 O    1.612    15 N    1.214    18 C    0.997
    17   8 O    1.922 --    16 C    1.612    15 N    0.166
    18   6 C    3.874 --    19 N    1.619    23 O    1.046    16 C    0.997
    19   7 N    3.003 --    18 C    1.619    20 N    1.203
    20   7 N    2.983 --    21 C    1.607    19 N    1.203
    21   6 C    3.867 --    20 N    1.607    23 O    1.072    22 C    1.033
    22   6 C    3.986 --    21 C    1.033    39 H    0.982    38 H    0.963
                            37 H    0.962
    23   8 O    2.316 --    21 C    1.072    18 C    1.046
    24   7 N    3.588 --    11 C    1.428     5 C    1.061    25 C    0.918
    25   6 C    3.913 --    40 H    0.978    41 H    0.976    42 H    0.972
                            24 N    0.918
    26   1 H    1.008 --     1 C    0.980
    27   1 H    1.011 --     1 C    0.986
    28   1 H    1.009 --     1 C    0.980
    29   1 H    0.932 --    10 N    0.878
    30   1 H    0.996 --    13 C    0.983
    31   1 H    0.996 --    13 C    0.977
    32   1 H    0.997 --    13 C    0.979
    33   1 H    1.000 --    14 C    0.984
    34   1 H    1.004 --    14 C    0.976
    35   1 H    1.009 --    14 C    0.976
    36   1 H    0.938 --    15 N    0.895
    37   1 H    0.996 --    22 C    0.962
    38   1 H    0.996 --    22 C    0.963
    39   1 H    0.998 --    22 C    0.982
    40   1 H    1.003 --    25 C    0.978
    41   1 H    1.008 --    25 C    0.976
    42   1 H    1.012 --    25 C    0.972
 ---------------------------------------------------------------------------

           -------------------------------------------------
          | TOTAL ENERGY              -82.990940757296 Eh   |
          | GRADIENT NORM               0.000642685683 Eh/α |
          | HOMO-LUMO GAP               2.486300710154 eV   |
           -------------------------------------------------

 * finished run on 2023/06/21 at 17:35:14.354
