   * xtb version 6.5.1 (579679a) compiled by 'ehlert@majestix' on 2022-07-11
          program call               : /lustre/hpc/kemi/ree/PhD/git/ReactivityQM/dep/xtb-6.5.1/bin/xtb --gfn 1 /lustre/hpc/kemi/ree/PhD/git/ReactivityQM/calculations/R02deprot/reac01prodN16/conf14/R02deprot_reac01prodN16_conf14_gfn1.xyz --opt --vfukui --chrg 0 --uhf 0 --alpb DMSO

   ID    Z sym.   atoms
    1    6 C      1, 3, 5, 7-10, 12, 14, 17, 18, 21, 23, 24
    2    8 O      2, 4, 13, 19, 22, 25
    3    7 N      6, 11, 15, 16, 20
    4    1 H      26-42

      * Solvation model:               ALPB
        Solvent                        DMSO
        Solvent mass                       7.8130E+01 g/mol
          :  Hamiltonian                  GFN1-xTB          :
 * total energy  :   -82.9442731 Eh     change       -0.8540724E-11 Eh
 * total energy  :   -82.9559998 Eh     change       -0.1172669E-01 Eh
 * total energy  :   -82.9603393 Eh     change       -0.4339576E-02 Eh
 * total energy  :   -82.9611731 Eh     change       -0.8337670E-03 Eh
 * total energy  :   -82.9617377 Eh     change       -0.5645392E-03 Eh
 * total energy  :   -82.9621495 Eh     change       -0.4118076E-03 Eh
 * total energy  :   -82.9625045 Eh     change       -0.3550805E-03 Eh
 * total energy  :   -82.9627174 Eh     change       -0.2128102E-03 Eh
 * total energy  :   -82.9628324 Eh     change       -0.1150387E-03 Eh
 * total energy  :   -82.9628912 Eh     change       -0.5877047E-04 Eh
 * total energy  :   -82.9722110 Eh     change       -0.3496066E-04 Eh
 * total energy  :   -82.9722450 Eh     change       -0.3395574E-04 Eh
 * total energy  :   -82.9722821 Eh     change       -0.3708793E-04 Eh
 * total energy  :   -82.9723166 Eh     change       -0.3454801E-04 Eh
 * total energy  :   -82.9723470 Eh     change       -0.3036441E-04 Eh
 * total energy  :   -82.9723724 Eh     change       -0.2544112E-04 Eh
 * total energy  :   -82.9723854 Eh     change       -0.1301480E-04 Eh
 * total energy  :   -82.9723931 Eh     change       -0.7671017E-05 Eh
 * total energy  :   -82.9723968 Eh     change       -0.3735905E-05 Eh
   *** GEOMETRY OPTIMIZATION CONVERGED AFTER 96 ITERATIONS ***

 final structure:
================
42
 xtb: 6.5.1 (579679a)
C           -6.17221649744640       -0.23839947379410       -0.27588949354282
O           -4.80654817142707       -0.42164836896011        0.13138704153752
C           -4.01843666244764        0.64161625909965        0.06125650159419
O           -4.37420077194949        1.73710942410434       -0.28518611196799
C           -2.59482737458146        0.31110871141136        0.44569950323498
N           -1.68081060323951        1.03596125510505       -0.07298083019022
C           -0.34807799150906        0.68726072375556        0.19661527987255
C            0.64849659635768        1.30221318996682       -0.74797359044203
C            0.27501048504456        0.91447614151259       -2.18655614078667
C            0.61115200457215        2.82781067059127       -0.56084449959364
N            1.96353313662965        0.77493925281604       -0.40673401665473
C            3.09141520361937        1.12228654077708       -1.05401656670895
O            3.16424289645626        1.94276344267236       -1.95511981655438
C            4.28599114193271        0.39437383018805       -0.55464981454088
N            5.51805697601587        0.54126607998078       -0.93173231878893
N            6.25927041101487       -0.34574128250288       -0.20969047081297
C            5.43387378142241       -0.98112864029689        0.56251981605628
C            5.74303794060732       -2.05153432834089        1.53499218116798
O            4.16940580120487       -0.55931473242017        0.39521270713470
N            0.02162318453096       -0.04787749068387        1.17130963420813
C           -0.94946769968674       -0.58575005531026        2.03848805405403
O           -0.71602119486212       -0.81322619748718        3.19229827061181
C           -2.27551338123166       -0.88233726543154        1.33593427759410
C           -2.08270066970757       -2.10630873402331        0.41059790657662
O           -3.24698196048799       -1.12400608871870        2.30859391598584
H           -6.64438762383652        0.52411757990523        0.34632189707449
H           -6.20311401261966        0.07106180044167       -1.32205786742287
H           -6.66299836168750       -1.19919731282288       -0.14628133178744
H            0.95027832952558        1.40015907752186       -2.88843998645552
H           -0.74619037388465        1.23066013352845       -2.39159000856353
H            0.34553016894497       -0.16482739029604       -2.30818816522237
H            1.26637550224144        3.30423117899608       -1.28750498347239
H           -0.40734006669809        3.18231670767672       -0.70979987947017
H            0.93922709825168        3.08753066835427        0.44453559262610
H            1.99740528135449        0.07476980933096        0.32209734835668
H            5.41695636310800       -1.75537178865417        2.53152479882317
H            5.21164647245469       -2.96325835663999        1.26347607730287
H            6.81335649148562       -2.24236209114480        1.54173972259584
H           -3.00323982698038       -2.28741475313041       -0.13916146589651
H           -1.27060204238728       -1.92648976670604       -0.29004089838510
H           -1.85390715232583       -2.97533246389203        1.02429490928743
H           -4.06830082777120       -1.43650989648816        1.90710182151620

          :  Hamiltonian                  GFN1-xTB          :
         :: total energy             -82.972396842289 Eh    ::
         :: gradient norm              0.000747136848 Eh/a0 ::
         :: HOMO-LUMO gap              1.752294873259 eV    ::
         :: SCC energy               -83.749617906100 Eh    ::
         :: -> Gsolv                  -0.058356421885 Eh    ::
         :: repulsion energy           0.803462918898 Eh    ::

    * Orbital Energies and Occupations

         #    Occupation            Energy/Eh            Energy/eV
      -------------------------------------------------------------
         1        2.0000           -0.8662275             -23.5713
       ...           ...                  ...                  ...
        55        2.0000           -0.5071026             -13.7990
        56        2.0000           -0.5059047             -13.7664
        57        2.0000           -0.5051455             -13.7457
        58        2.0000           -0.5012281             -13.6391
        59        2.0000           -0.4952882             -13.4775
        60        2.0000           -0.4875127             -13.2659
        61        2.0000           -0.4806544             -13.0793
        62        2.0000           -0.4669691             -12.7069
        63        2.0000           -0.4626542             -12.5895
        64        2.0000           -0.4610242             -12.5451
        65        2.0000           -0.4527650             -12.3204
        66        2.0000           -0.4489211             -12.2158
        67        2.0000           -0.4355212             -11.8511 (HOMO)
        68                         -0.3711255             -10.0988 (LUMO)
        69                         -0.3109865              -8.4624
        70                         -0.3076735              -8.3722
        71                         -0.2576075              -7.0099
        72                         -0.2525928              -6.8734
        73                         -0.2346923              -6.3863
        74                         -0.1989012              -5.4124
        75                         -0.1433695              -3.9013
        76                         -0.1416468              -3.8544
        77                         -0.1338591              -3.6425
        78                         -0.1248795              -3.3981
       ...                                ...                  ...
       134                          0.7315325              19.9060
      -------------------------------------------------------------
                  HL-Gap            0.0643957 Eh            1.7523 eV

Wiberg/Mayer (AO) data.
largest (>0.10) Wiberg bond orders for each atom

     #   Z sym  total        # sym  WBO       # sym  WBO       # sym  WBO
 ---------------------------------------------------------------------------
     1   6 C    3.851 --    28 H    0.985    26 H    0.978    27 H    0.978
                             2 O    0.876
     2   8 O    2.229 --     3 C    1.131     1 C    0.876     4 O    0.145
     3   6 C    3.851 --     4 O    1.695     2 O    1.131     5 C    0.949
     4   8 O    1.959 --     3 C    1.695     2 O    0.145
     5   6 C    3.934 --     6 N    1.767    23 C    0.953     3 C    0.949
     6   7 N    3.052 --     5 C    1.767     7 C    1.057
     7   6 C    3.925 --    20 N    1.708     6 N    1.057     8 C    0.996
     8   6 C    3.940 --     7 C    0.996     9 C    0.970    10 C    0.965
                            11 N    0.937
     9   6 C    3.985 --    31 H    0.985    30 H    0.983    29 H    0.979
                             8 C    0.970
    10   6 C    3.984 --    34 H    0.986    33 H    0.984    32 H    0.978
                             8 C    0.965
    11   7 N    3.356 --    12 C    1.264     8 C    0.937    35 H    0.880
                            13 O    0.177
    12   6 C    3.918 --    13 O    1.580    11 N    1.264    14 C    0.991
    13   8 O    1.898 --    12 C    1.580    11 N    0.177
    14   6 C    3.872 --    15 N    1.623    19 O    1.047    12 C    0.991
    15   7 N    2.999 --    14 C    1.623    16 N    1.198
    16   7 N    2.981 --    17 C    1.612    15 N    1.198
    17   6 C    3.869 --    16 N    1.612    19 O    1.072    18 C    1.032
    18   6 C    3.986 --    17 C    1.032    38 H    0.982    36 H    0.964
                            37 H    0.962
    19   8 O    2.316 --    17 C    1.072    14 C    1.047
    20   7 N    3.086 --     7 C    1.708    21 C    1.044
    21   6 C    3.866 --    22 O    1.767    20 N    1.044    23 C    0.935
    22   8 O    1.993 --    21 C    1.767
    23   6 C    3.931 --    25 O    0.983     5 C    0.953    21 C    0.935
                            24 C    0.926
    24   6 C    3.983 --    40 H    0.984    39 H    0.981    41 H    0.978
                            23 C    0.926
    25   8 O    1.911 --    23 C    0.983    42 H    0.838
    26   1 H    1.004 --     1 C    0.978
    27   1 H    1.003 --     1 C    0.978
    28   1 H    1.007 --     1 C    0.985
    29   1 H    1.007 --     9 C    0.979
    30   1 H    1.006 --     9 C    0.983
    31   1 H    1.001 --     9 C    0.985
    32   1 H    1.009 --    10 C    0.978
    33   1 H    1.006 --    10 C    0.984
    34   1 H    1.001 --    10 C    0.986
    35   1 H    0.951 --    11 N    0.880
    36   1 H    0.997 --    18 C    0.964
    37   1 H    0.997 --    18 C    0.962
    38   1 H    0.998 --    18 C    0.982
    39   1 H    1.004 --    24 C    0.981
    40   1 H    1.000 --    24 C    0.984
    41   1 H    0.998 --    24 C    0.978
    42   1 H    0.869 --    25 O    0.838
 ---------------------------------------------------------------------------

           -------------------------------------------------
          | TOTAL ENERGY              -82.972396842289 Eh   |
          | GRADIENT NORM               0.000747136848 Eh/α |
          | HOMO-LUMO GAP               1.752294873259 eV   |
           -------------------------------------------------

 * finished run on 2023/06/20 at 18:26:53.418
