   * xtb version 6.5.1 (579679a) compiled by 'ehlert@majestix' on 2022-07-11
          program call               : /lustre/hpc/kemi/ree/PhD/git/ReactivityQM/dep/xtb-6.5.1/bin/xtb --gfn 1 /lustre/hpc/kemi/ree/PhD/git/ReactivityQM/calculations/R02/reac01prodE04/conf04/R02_reac01prodE04_conf04_gfn1.xyz --opt --vfukui --chrg -1 --uhf 0 --alpb DMSO

   ID    Z sym.   atoms
    1    6 C      1, 3, 5, 6, 8-11, 13, 15, 18, 19, 22, 24
    2    8 O      2, 4, 14, 20, 23, 25
    3    7 N      7, 12, 16, 17, 21
    4    1 H      26-43

      * Solvation model:               ALPB
        Solvent                        DMSO
        Solvent mass                       7.8130E+01 g/mol
          :  Hamiltonian                  GFN1-xTB          :
 * total energy  :   -83.8467453 Eh     change       -0.8645600E-09 Eh
 * total energy  :   -83.8620239 Eh     change       -0.1527857E-01 Eh
 * total energy  :   -83.8683638 Eh     change       -0.6339915E-02 Eh
 * total energy  :   -83.8698366 Eh     change       -0.1472834E-02 Eh
 * total energy  :   -83.8710489 Eh     change       -0.1212291E-02 Eh
 * total energy  :   -83.8717133 Eh     change       -0.6643374E-03 Eh
 * total energy  :   -83.8722311 Eh     change       -0.5178290E-03 Eh
 * total energy  :   -83.8726254 Eh     change       -0.3942824E-03 Eh
 * total energy  :   -83.8728781 Eh     change       -0.2527212E-03 Eh
 * total energy  :   -83.8730546 Eh     change       -0.1765347E-03 Eh
 * total energy  :   -83.8768478 Eh     change       -0.7570591E-05 Eh
 * total energy  :   -83.8768548 Eh     change       -0.6981895E-05 Eh
 * total energy  :   -83.8768612 Eh     change       -0.6357269E-05 Eh
 * total energy  :   -83.8768670 Eh     change       -0.5818834E-05 Eh
 * total energy  :   -83.8768725 Eh     change       -0.5538313E-05 Eh
 * total energy  :   -83.8768781 Eh     change       -0.5534748E-05 Eh
 * total energy  :   -83.8768838 Eh     change       -0.5730350E-05 Eh
 * total energy  :   -83.8768897 Eh     change       -0.5902333E-05 Eh
 * total energy  :   -83.8768924 Eh     change       -0.2736620E-05 Eh
   *** GEOMETRY OPTIMIZATION CONVERGED AFTER 94 ITERATIONS ***

 final structure:
================
43
 xtb: 6.5.1 (579679a)
C           -2.95917793898222        2.81178944410913       -1.39848585732504
O           -2.56230614331364        1.57251136296841       -0.81863219743367
C           -3.55166466793869        0.76034960942279       -0.41414631588016
O           -4.72428807165735        1.06490146484320       -0.53518349943796
C           -3.05077259641942       -0.49501842474287        0.31590597470715
C           -4.13850978881764       -1.57707322988712        0.24187264615219
N           -1.84243780445066       -1.00957369464835       -0.32604573075185
C           -0.69900905756673       -0.71227510088957        0.16545038293698
C            0.53044212223687       -1.33297533210252       -0.49240846488450
C            0.83842661345760       -2.64599094128814        0.23474748100836
C            0.27467962371922       -1.59262343344229       -1.97997614987736
N            1.69807252363383       -0.46210817334656       -0.32345119310868
C            1.78062959317615        0.78000812689621       -0.83791560338283
O            0.88735451677052        1.36538504381699       -1.42953993380791
C            3.10661616643916        1.41074674840976       -0.59800726151511
N            3.47885508336415        2.61372853166343       -0.91251728137683
N            4.77325050412229        2.74613509763224       -0.50018831476154
C            5.11033630993677        1.61708861845715        0.03867133464931
C            6.41289119111942        1.24958560272150        0.63563473126302
O            4.10272507724590        0.72850885304059        0.01088023329177
N           -0.48438083517219        0.06011077015030        1.25865427787153
C           -1.56151630653849        0.26778992525654        2.21745214224518
O           -1.23574799067996        0.65314212386324        3.37628563396283
C           -2.79289539264663       -0.03265924162380        1.72684020000788
O           -3.94215426259648        0.08284186309092        2.55186081943565
H           -3.57576643093752        2.63732841927186       -2.28515307118924
H           -3.53248007420907        3.40673076152129       -0.68129635156521
H           -2.04945088359373        3.34130617835032       -1.67855593563017
H           -3.82171312767560       -2.45082696374133        0.80883526956473
H           -5.07215656971941       -1.20003932368575        0.65770011299832
H           -4.30029241824919       -1.86955446871454       -0.79527989068248
H            1.04042009474247       -2.45508672696169        1.28775676437166
H           -0.01702568833107       -3.31542693531601        0.15522144652286
H            1.70662666145719       -3.12982996919320       -0.20882153241507
H           -0.57804670627848       -2.26311950481899       -2.08019053833626
H            0.04807214702555       -0.66053444887228       -2.49670397492219
H            1.14904406341772       -2.05287878184259       -2.43577271998221
H            2.52539537074782       -0.86912806726363        0.07496459710210
H            6.83205926426254        0.38992750141224        0.11339084227805
H            7.09901861418458        2.08980701043998        0.56409630031842
H            6.27957285728768        0.97422749481437        1.68154988734755
H            0.43804520258391        0.05763255053303        1.66288369184434
H           -3.62074284515022        0.25534165970039        3.44761704839213

          :  Hamiltonian                  GFN1-xTB          :
         :: total energy             -83.876892447490 Eh    ::
         :: gradient norm              0.000197924147 Eh/a0 ::
         :: HOMO-LUMO gap              0.242712579925 eV    ::
         :: SCC energy               -84.642685171126 Eh    ::
         :: -> Gsolv                  -0.134820312538 Eh    ::
         :: repulsion energy           0.793425702317 Eh    ::

    * Orbital Energies and Occupations

         #    Occupation            Energy/Eh            Energy/eV
      -------------------------------------------------------------
         1        2.0000           -0.8576107             -23.3368
       ...           ...                  ...                  ...
        56        2.0000           -0.4728165             -12.8660
        57        2.0000           -0.4666405             -12.6979
        58        2.0000           -0.4659359             -12.6788
        59        2.0000           -0.4576505             -12.4533
        60        2.0000           -0.4524745             -12.3125
        61        2.0000           -0.4509865             -12.2720
        62        2.0000           -0.4431711             -12.0593
        63        2.0000           -0.4402887             -11.9809
        64        2.0000           -0.4322107             -11.7611
        65        2.0000           -0.3951412             -10.7523
        66        2.0000           -0.3873564             -10.5405
        67        2.0000           -0.3753819             -10.2147
        68        1.9819           -0.3091363              -8.4120 (HOMO)
        69        0.0181           -0.3002168              -8.1693 (LUMO)
        70                         -0.2501235              -6.8062
        71                         -0.2367317              -6.4418
        72                         -0.2169566              -5.9037
        73                         -0.1881313              -5.1193
        74                         -0.1386509              -3.7729
        75                         -0.1295960              -3.5265
        76                         -0.1288860              -3.5072
        77                         -0.1195651              -3.2535
        78                         -0.1096091              -2.9826
        79                         -0.0967039              -2.6314
       ...                                ...                  ...
       136                          0.7375120              20.0687
      -------------------------------------------------------------
                  HL-Gap            0.0089195 Eh            0.2427 eV

Wiberg/Mayer (AO) data.
largest (>0.10) Wiberg bond orders for each atom

     #   Z sym  total        # sym  WBO       # sym  WBO       # sym  WBO
 ---------------------------------------------------------------------------
     1   6 C    3.892 --    28 H    0.987    26 H    0.981    27 H    0.981
                             2 O    0.913
     2   8 O    2.184 --     3 C    1.090     1 C    0.913     4 O    0.119
     3   6 C    3.807 --     4 O    1.636     2 O    1.090     5 C    0.920
     4   8 O    1.899 --     3 C    1.636     2 O    0.119
     5   6 C    3.965 --     6 C    0.986     7 N    0.969    24 C    0.958
                             3 C    0.920
     6   6 C    3.996 --    31 H    0.988    29 H    0.988     5 C    0.986
                            30 H    0.985
     7   7 N    2.972 --     8 C    1.672     5 C    0.969    21 N    0.164
     8   6 C    3.951 --     7 N    1.672    21 N    1.197     9 C    0.960
     9   6 C    3.929 --    11 C    0.992    10 C    0.989     8 C    0.960
                            12 N    0.919
    10   6 C    3.993 --     9 C    0.989    32 H    0.984    33 H    0.984
                            34 H    0.984
    11   6 C    3.992 --     9 C    0.992    37 H    0.987    35 H    0.983
                            36 H    0.981
    12   7 N    3.356 --    13 C    1.265     9 C    0.919    38 H    0.898
                            14 O    0.179
    13   6 C    3.914 --    14 O    1.579    12 N    1.265    15 C    0.989
    14   8 O    1.882 --    13 C    1.579    12 N    0.179
    15   6 C    3.861 --    16 N    1.620    20 O    1.045    13 C    0.989
    16   7 N    2.987 --    15 C    1.620    17 N    1.192
    17   7 N    2.980 --    18 C    1.617    16 N    1.192
    18   6 C    3.868 --    17 N    1.617    20 O    1.071    19 C    1.031
    19   6 C    3.987 --    18 C    1.031    40 H    0.983    39 H    0.964
                            41 H    0.964
    20   8 O    2.311 --    18 C    1.071    15 C    1.045
    21   7 N    3.310 --     8 C    1.197    42 H    0.912    22 C    0.904
                             7 N    0.164
    22   6 C    3.913 --    24 C    1.520    23 O    1.361    21 N    0.904
    23   8 O    1.699 --    22 C    1.361    24 C    0.171
    24   6 C    3.777 --    22 C    1.520     5 C    0.958    25 O    0.943
                            23 O    0.171
    25   8 O    1.912 --    24 C    0.943    43 H    0.859
    26   1 H    1.012 --     1 C    0.981
    27   1 H    1.012 --     1 C    0.981
    28   1 H    1.015 --     1 C    0.987
    29   1 H    1.012 --     6 C    0.988
    30   1 H    1.017 --     6 C    0.985
    31   1 H    1.011 --     6 C    0.988
    32   1 H    1.001 --    10 C    0.984
    33   1 H    1.005 --    10 C    0.984
    34   1 H    1.000 --    10 C    0.984
    35   1 H    1.019 --    11 C    0.983
    36   1 H    1.016 --    11 C    0.981
    37   1 H    1.003 --    11 C    0.987
    38   1 H    0.941 --    12 N    0.898
    39   1 H    0.997 --    19 C    0.964
    40   1 H    0.999 --    19 C    0.983
    41   1 H    0.997 --    19 C    0.964
    42   1 H    0.965 --    21 N    0.912
    43   1 H    0.891 --    25 O    0.859
 ---------------------------------------------------------------------------

           -------------------------------------------------
          | TOTAL ENERGY              -83.876892447490 Eh   |
          | GRADIENT NORM               0.000197924147 Eh/α |
          | HOMO-LUMO GAP               0.242712579925 eV   |
           -------------------------------------------------

 * finished run on 2023/06/20 at 14:57:18.594
