   * xtb version 6.5.1 (579679a) compiled by 'ehlert@majestix' on 2022-07-11
          program call               : /lustre/hpc/kemi/ree/PhD/git/ReactivityQM/dep/xtb-6.5.1/bin/xtb --gfn 1 /lustre/hpc/kemi/ree/PhD/git/ReactivityQM/calculations/R01/reac02prodE03/conf07/R01_reac02prodE03_conf07_gfn1.xyz --opt --vfukui --chrg -1 --uhf 0 --alpb DMSO

   ID    Z sym.   atoms
    1    6 C      1, 3, 5, 6, 8-11, 14, 16
    2    8 O      2, 4, 15, 17
    3    7 N      7, 12, 13
    4    1 H      18-33

      * Solvation model:               ALPB
        Solvent                        DMSO
        Solvent mass                       7.8130E+01 g/mol
          :  Hamiltonian                  GFN1-xTB          :
 * total energy  :   -58.5337205 Eh     change       -0.3709033E-11 Eh
 * total energy  :   -58.5476961 Eh     change       -0.1397556E-01 Eh
 * total energy  :   -58.5514891 Eh     change       -0.3793045E-02 Eh
 * total energy  :   -58.5521409 Eh     change       -0.6517487E-03 Eh
 * total energy  :   -58.5525966 Eh     change       -0.4557171E-03 Eh
 * total energy  :   -58.5527528 Eh     change       -0.1561934E-03 Eh
 * total energy  :   -58.5528748 Eh     change       -0.1220269E-03 Eh
 * total energy  :   -58.5529519 Eh     change       -0.7708955E-04 Eh
 * total energy  :   -58.5530135 Eh     change       -0.6157779E-04 Eh
 * total energy  :   -58.5530721 Eh     change       -0.5864261E-04 Eh
 * total energy  :   -58.5548888 Eh     change       -0.1746820E-04 Eh
 * total energy  :   -58.5549092 Eh     change       -0.2039921E-04 Eh
 * total energy  :   -58.5549175 Eh     change       -0.8241986E-05 Eh
 * total energy  :   -58.5549307 Eh     change       -0.1321608E-04 Eh
 * total energy  :   -58.5549382 Eh     change       -0.7485640E-05 Eh
 * total energy  :   -58.5549576 Eh     change       -0.1943406E-04 Eh
 * total energy  :   -58.5549779 Eh     change       -0.2029931E-04 Eh
 * total energy  :   -58.5549901 Eh     change       -0.1217727E-04 Eh
 * total energy  :   -58.5549940 Eh     change       -0.3977763E-05 Eh
   *** GEOMETRY OPTIMIZATION CONVERGED AFTER 45 ITERATIONS ***

 final structure:
================
33
 xtb: 6.5.1 (579679a)
C            2.36684310771045        2.34984091018732        1.28880340685657
O            1.59241221277264        1.34060936136756        0.64851737765554
C            2.28074369580469        0.43521938920746       -0.07949665162845
O            3.49335784133764        0.49679747155759       -0.19350043881977
C            1.41567336112673       -0.72250295686779       -0.58999953951862
C            2.05326566869614       -1.32447920144238       -1.84845475188905
N            0.06774140855114       -0.25657724079185       -0.91072298512143
C           -0.82417009773438       -0.29840864224477        0.00838998489479
C           -2.19645746490392        0.30052913102368       -0.26893351103261
C           -2.18400982586545        1.74508003728496        0.24824785990366
C           -2.49902983970872        0.27178045450153       -1.77220089034037
N           -3.20116714941557       -0.45064510786987        0.48483611313355
N           -0.62954432293093       -0.76357072631678        1.27010359106106
C            0.44877197959355       -1.70075862678545        1.52768028498495
O            0.34942035011003       -2.44406470174046        2.54680848126164
C            1.42527753687283       -1.67180145654873        0.58041028318654
O            2.53832006854170       -2.54976967515093        0.66170836583196
H            3.08872348270404        1.90380419986692        1.97938543054095
H            1.67310634768332        2.98547099074232        1.83602401283791
H            2.90722576880089        2.94516173201424        0.54746422239947
H            2.00681976654688       -0.60684328333917       -2.66723531066441
H            1.51212143596932       -2.22406845750269       -2.13861751846833
H            3.09467974175995       -1.58122518592930       -1.65589347310055
H           -3.13662092408748        2.22994928060604        0.03895773085594
H           -2.01535510655534        1.75241043527077        1.32517959010547
H           -1.38730010675418        2.30799412302982       -0.23806011568762
H           -1.73253334298913        0.82469371307403       -2.31575951293011
H           -3.47109199931622        0.72082132748232       -1.96817364006913
H           -2.50728782295973       -0.75621485459928       -2.13308345908902
H           -3.39537046997988       -1.32415810104219        0.01332513429702
H           -4.06323480386881        0.07328545512293        0.50595904115453
H           -1.46281487798443       -0.90776044980135        1.82467091795582
H            2.39148438047037       -3.10059734437410        1.44366096944152

          :  Hamiltonian                  GFN1-xTB          :
         :: total energy             -58.554994043810 Eh    ::
         :: gradient norm              0.000831932445 Eh/a0 ::
         :: HOMO-LUMO gap              2.001582095893 eV    ::
         :: SCC energy               -59.097956777118 Eh    ::
         :: -> Gsolv                  -0.112272373102 Eh    ::
         :: repulsion energy           0.562828880172 Eh    ::

    * Orbital Energies and Occupations

         #    Occupation            Energy/Eh            Energy/eV
      -------------------------------------------------------------
         1        2.0000           -0.8086962             -22.0057
       ...           ...                  ...                  ...
        36        2.0000           -0.4843508             -13.1799
        37        2.0000           -0.4780664             -13.0088
        38        2.0000           -0.4746986             -12.9172
        39        2.0000           -0.4694711             -12.7750
        40        2.0000           -0.4621545             -12.5759
        41        2.0000           -0.4519157             -12.2973
        42        2.0000           -0.4501323             -12.2487
        43        2.0000           -0.4318074             -11.7501
        44        2.0000           -0.4008629             -10.9080
        45        2.0000           -0.3879707             -10.5572
        46        2.0000           -0.3820419             -10.3959
        47        2.0000           -0.3707016             -10.0873
        48        2.0000           -0.3062680              -8.3340 (HOMO)
        49                         -0.2327113              -6.3324 (LUMO)
        50                         -0.2103158              -5.7230
        51                         -0.1286521              -3.5008
        52                         -0.1253081              -3.4098
        53                         -0.1105514              -3.0083
        54                         -0.1069151              -2.9093
        55                         -0.0963915              -2.6229
        56                         -0.0866024              -2.3566
        57                         -0.0681255              -1.8538
        58                         -0.0649815              -1.7682
        59                         -0.0609050              -1.6573
       ...                                ...                  ...
       100                          0.7042388              19.1633
      -------------------------------------------------------------
                  HL-Gap            0.0735568 Eh            2.0016 eV

Wiberg/Mayer (AO) data.
largest (>0.10) Wiberg bond orders for each atom

     #   Z sym  total        # sym  WBO       # sym  WBO       # sym  WBO
 ---------------------------------------------------------------------------
     1   6 C    3.894 --    19 H    0.987    20 H    0.981    18 H    0.981
                             2 O    0.916
     2   8 O    2.168 --     3 C    1.070     1 C    0.916     4 O    0.114
     3   6 C    3.811 --     4 O    1.623     2 O    1.070     5 C    0.923
     4   8 O    1.893 --     3 C    1.623     2 O    0.114
     5   6 C    3.967 --     6 C    0.989     7 N    0.973    16 C    0.953
                             3 C    0.923
     6   6 C    3.997 --     5 C    0.989    21 H    0.988    22 H    0.987
                            23 H    0.985
     7   7 N    2.965 --     8 C    1.669     5 C    0.973    13 N    0.158
     8   6 C    3.947 --     7 N    1.669    13 N    1.191     9 C    0.969
     9   6 C    3.965 --    11 C    0.992    10 C    0.986    12 N    0.980
                             8 C    0.969
    10   6 C    3.996 --    26 H    0.986    25 H    0.986     9 C    0.986
                            24 H    0.985
    11   6 C    3.996 --     9 C    0.992    28 H    0.987    29 H    0.985
                            27 H    0.983
    12   7 N    2.975 --     9 C    0.980    31 H    0.947    30 H    0.946
    13   7 N    3.312 --     8 C    1.191    14 C    0.916    32 H    0.906
                             7 N    0.158
    14   6 C    3.921 --    16 C    1.512    15 O    1.358    13 N    0.916
    15   8 O    1.698 --    14 C    1.358    16 C    0.168
    16   6 C    3.791 --    14 C    1.512     5 C    0.953    17 O    0.941
                            15 O    0.168
    17   8 O    1.913 --    16 C    0.941    33 H    0.860
    18   1 H    1.012 --     1 C    0.981
    19   1 H    1.015 --     1 C    0.987
    20   1 H    1.013 --     1 C    0.981
    21   1 H    1.011 --     6 C    0.988
    22   1 H    1.012 --     6 C    0.987
    23   1 H    1.017 --     6 C    0.985
    24   1 H    1.003 --    10 C    0.985
    25   1 H    1.008 --    10 C    0.986
    26   1 H    1.009 --    10 C    0.986
    27   1 H    1.019 --    11 C    0.983
    28   1 H    1.006 --    11 C    0.987
    29   1 H    1.009 --    11 C    0.985
    30   1 H    0.963 --    12 N    0.946
    31   1 H    0.961 --    12 N    0.947
    32   1 H    0.980 --    13 N    0.906
    33   1 H    0.893 --    17 O    0.860
 ---------------------------------------------------------------------------

           -------------------------------------------------
          | TOTAL ENERGY              -58.554994043810 Eh   |
          | GRADIENT NORM               0.000831932445 Eh/α |
          | HOMO-LUMO GAP               2.001582095893 eV   |
           -------------------------------------------------

 * finished run on 2023/06/20 at 14:58:58.689
