                         Program Version 5.0.1 -  RELEASE  -
|  1> # ORCA input file
|  2> ! SP r2SCAN-3c CPCM
|  3>
|  4> %maxcore 1875.0
|  5> %pal nprocs 4 end
|  6> %cpcm smd true SMDsolvent "DMSO" end
|  7>
|  8> *xyz -1 1
|  9> C      -4.277457   -1.545209    0.440653
| 10> N      -2.819201   -1.475334    0.495148
| 11> C      -2.171806   -2.336397    1.368921
| 12> O      -2.836595   -3.087595    2.113322
| 13> C      -0.740284   -2.310107    1.301885
| 14> O      -0.052943   -3.142061    2.189256
| 15> C      -0.107195   -1.587425    0.297368
| 16> C       1.357941   -1.701675    0.076671
| 17> O       2.131195   -2.349884    0.793918
| 18> N       1.791719   -1.045501   -1.023559
| 19> C       3.203644   -0.908174   -1.329563
| 20> C       3.801869    0.277193   -0.598505
| 21> C       3.996283    1.488621   -1.257141
| 22> C       4.526572    2.582947   -0.586088
| 23> C       4.848595    2.436811    0.750488
| 24> F       5.363219    3.491576    1.409439
| 25> C       4.669068    1.249068    1.436803
| 26> C       4.141517    0.165871    0.749007
| 27> N      -0.731792   -0.783950   -0.561277
| 28> C      -2.133268   -0.494031   -0.365573
| 29> C      -2.762436   -0.529473   -1.776467
| 30> C      -2.237592    0.958889    0.262499
| 31> C      -1.815854    0.923028    1.736195
| 32> C      -1.320695    1.931672   -0.497606
| 33> N      -3.619656    1.451106    0.206071
| 34> H      -4.646032   -2.022971    1.352499
| 35> H      -4.706120   -0.543957    0.375966
| 36> H      -4.616557   -2.133281   -0.419764
| 37> H       0.897986   -3.087514    1.971781
| 38> H       1.132293   -0.432344   -1.488370
| 39> H       3.311664   -0.782401   -2.409780
| 40> H       3.708646   -1.831406   -1.024460
| 41> H       3.739131    1.583013   -2.305986
| 42> H       4.686609    3.528084   -1.087755
| 43> H       4.939690    1.177736    2.482510
| 44> H       3.993469   -0.777378    1.263794
| 45> H      -2.177381    0.105274   -2.438440
| 46> H      -3.795608   -0.190728   -1.786286
| 47> H      -2.718919   -1.549359   -2.158742
| 48> H      -1.826434    1.931175    2.151778
| 49> H      -2.502083    0.304938    2.316628
| 50> H      -0.807118    0.520522    1.832201
| 51> H      -1.665732    2.068713   -1.521511
| 52> H      -0.301436    1.544844   -0.523001
| 53> H      -1.320067    2.904319   -0.005416
| 54> H      -3.831424    1.750000   -0.737066
| 55> H      -3.699430    2.272755    0.790377
| 56> **                         ****END OF INPUT****

CARTESIAN COORDINATES (ANGSTROEM)
---------------------------------
  C     -4.277457   -1.545209    0.440653
  N     -2.819201   -1.475334    0.495148
  C     -2.171806   -2.336397    1.368921
  O     -2.836595   -3.087595    2.113322
  C     -0.740284   -2.310107    1.301885
  O     -0.052943   -3.142061    2.189256
  C     -0.107195   -1.587425    0.297368
  C      1.357941   -1.701675    0.076671
  O      2.131195   -2.349884    0.793918
  N      1.791719   -1.045501   -1.023559
  C      3.203644   -0.908174   -1.329563
  C      3.801869    0.277193   -0.598505
  C      3.996283    1.488621   -1.257141
  C      4.526572    2.582947   -0.586088
  C      4.848595    2.436811    0.750488
  F      5.363219    3.491576    1.409439
  C      4.669068    1.249068    1.436803
  C      4.141517    0.165871    0.749007
  N     -0.731792   -0.783950   -0.561277
  C     -2.133268   -0.494031   -0.365573
  C     -2.762436   -0.529473   -1.776467
  C     -2.237592    0.958889    0.262499
  C     -1.815854    0.923028    1.736195
  C     -1.320695    1.931672   -0.497606
  N     -3.619656    1.451106    0.206071
  H     -4.646032   -2.022971    1.352499
  H     -4.706120   -0.543957    0.375966
  H     -4.616557   -2.133281   -0.419764
  H      0.897986   -3.087514    1.971781
  H      1.132293   -0.432344   -1.488370
  H      3.311664   -0.782401   -2.409780
  H      3.708646   -1.831406   -1.024460
  H      3.739131    1.583013   -2.305986
  H      4.686609    3.528084   -1.087755
  H      4.939690    1.177736    2.482510
  H      3.993469   -0.777378    1.263794
  H     -2.177381    0.105274   -2.438440
  H     -3.795608   -0.190728   -1.786286
  H     -2.718919   -1.549359   -2.158742
  H     -1.826434    1.931175    2.151778
  H     -2.502083    0.304938    2.316628
  H     -0.807118    0.520522    1.832201
  H     -1.665732    2.068713   -1.521511
  H     -0.301436    1.544844   -0.523001
  H     -1.320067    2.904319   -0.005416
  H     -3.831424    1.750000   -0.737066
  H     -3.699430    2.272755    0.790377

 Total Charge           Charge          ....   -1
 Multiplicity           Mult            ....    1
 Number of Electrons    NEL             ....  186
 Basis Dimension        Dim             ....  625

ORBITAL ENERGIES
----------------

  NO   OCC          E(Eh)            E(eV)
   0   2.0000     -24.500254      -666.6858
   1   2.0000     -18.927487      -515.0431
   2   2.0000     -18.913399      -514.6598
   3   2.0000     -18.873019      -513.5610
   4   2.0000     -14.167783      -385.5250
   5   2.0000     -14.150362      -385.0509
   6   2.0000     -14.118919      -384.1953
   7   2.0000     -14.084439      -383.2571
   8   2.0000     -10.116443      -275.2824
   9   2.0000     -10.115321      -275.2519
  10   2.0000     -10.084725      -274.4193
  11   2.0000     -10.075821      -274.1770
  12   2.0000     -10.060247      -273.7532
  13   2.0000     -10.045103      -273.3411
  14   2.0000     -10.041095      -273.2321
  15   2.0000     -10.039378      -273.1854
  16   2.0000     -10.038687      -273.1666
  17   2.0000     -10.038569      -273.1633
  18   2.0000     -10.037250      -273.1275
  19   2.0000     -10.036879      -273.1174
  20   2.0000     -10.034320      -273.0477
  21   2.0000     -10.023716      -272.7592
  22   2.0000      -9.999847      -272.1097
  23   2.0000      -9.998231      -272.0657
  24   2.0000      -9.994960      -271.9767
  25   2.0000      -1.190606       -32.3980
  26   2.0000      -0.997391       -27.1404
  27   2.0000      -0.967850       -26.3365
  28   2.0000      -0.945322       -25.7235
  29   2.0000      -0.888741       -24.1839
  30   2.0000      -0.877705       -23.8836
  31   2.0000      -0.837293       -22.7839
  32   2.0000      -0.831480       -22.6257
  33   2.0000      -0.812600       -22.1120
  34   2.0000      -0.736657       -20.0455
  35   2.0000      -0.724437       -19.7129
  36   2.0000      -0.719702       -19.5841
  37   2.0000      -0.690323       -18.7846
  38   2.0000      -0.668052       -18.1786
  39   2.0000      -0.650921       -17.7125
  40   2.0000      -0.636409       -17.3176
  41   2.0000      -0.628545       -17.1036
  42   2.0000      -0.591895       -16.1063
  43   2.0000      -0.582748       -15.8574
  44   2.0000      -0.568163       -15.4605
  45   2.0000      -0.559496       -15.2247
  46   2.0000      -0.531190       -14.4544
  47   2.0000      -0.512534       -13.9468
  48   2.0000      -0.510954       -13.9038
  49   2.0000      -0.481136       -13.0924
  50   2.0000      -0.471233       -12.8229
  51   2.0000      -0.457836       -12.4584
  52   2.0000      -0.454057       -12.3555
  53   2.0000      -0.449070       -12.2198
  54   2.0000      -0.441801       -12.0220
  55   2.0000      -0.433184       -11.7875
  56   2.0000      -0.417948       -11.3729
  57   2.0000      -0.414699       -11.2845
  58   2.0000      -0.409479       -11.1425
  59   2.0000      -0.404367       -11.0034
  60   2.0000      -0.397207       -10.8086
  61   2.0000      -0.392901       -10.6914
  62   2.0000      -0.380112       -10.3434
  63   2.0000      -0.375045       -10.2055
  64   2.0000      -0.371667       -10.1136
  65   2.0000      -0.370658       -10.0861
  66   2.0000      -0.361221        -9.8293
  67   2.0000      -0.355859        -9.6834
  68   2.0000      -0.349808        -9.5188
  69   2.0000      -0.343225        -9.3396
  70   2.0000      -0.339545        -9.2395
  71   2.0000      -0.338406        -9.2085
  72   2.0000      -0.333792        -9.0829
  73   2.0000      -0.333150        -9.0655
  74   2.0000      -0.329492        -8.9659
  75   2.0000      -0.325189        -8.8488
  76   2.0000      -0.322767        -8.7829
  77   2.0000      -0.315436        -8.5835
  78   2.0000      -0.308194        -8.3864
  79   2.0000      -0.307789        -8.3754
  80   2.0000      -0.290960        -7.9174
  81   2.0000      -0.286252        -7.7893
  82   2.0000      -0.282596        -7.6898
  83   2.0000      -0.245716        -6.6863
  84   2.0000      -0.244072        -6.6415
  85   2.0000      -0.236603        -6.4383
  86   2.0000      -0.224435        -6.1072
  87   2.0000      -0.212561        -5.7841
  88   2.0000      -0.204882        -5.5751
  89   2.0000      -0.192376        -5.2348
  90   2.0000      -0.186551        -5.0763
  91   2.0000      -0.175439        -4.7739
  92   2.0000      -0.106324        -2.8932
  93   0.0000      -0.043754        -1.1906
  94   0.0000      -0.039902        -1.0858
  95   0.0000      -0.025377        -0.6906
  96   0.0000       0.051928         1.4130
  97   0.0000       0.061384         1.6703

MULLIKEN ATOMIC CHARGES
-----------------------
   0 C :   -0.517180
   1 N :    0.265012
   2 C :   -0.020387
   3 O :   -0.476373
   4 C :   -0.106144
   5 O :   -0.410179
   6 C :    0.092204
   7 C :    0.076339
   8 O :   -0.527704
   9 N :   -0.078155
  10 C :   -0.382953
  11 C :    0.094894
  12 C :   -0.211946
  13 C :   -0.290798
  14 C :    0.361538
  15 F :   -0.239708
  16 C :   -0.319570
  17 C :   -0.173524
  18 N :   -0.174194
  19 C :   -0.160406
  20 C :   -0.643656
  21 C :    0.427987
  22 C :   -0.717160
  23 C :   -0.611353
  24 N :   -0.701299
  25 H :    0.182041
  26 H :    0.192513
  27 H :    0.159003
  28 H :    0.343933
  29 H :    0.292442
  30 H :    0.178028
  31 H :    0.201323
  32 H :    0.187462
  33 H :    0.195554
  34 H :    0.195883
  35 H :    0.203820
  36 H :    0.176931
  37 H :    0.173250
  38 H :    0.177454
  39 H :    0.163760
  40 H :    0.174751
  41 H :    0.183685
  42 H :    0.164213
  43 H :    0.175212
  44 H :    0.161838
  45 H :    0.287764
  46 H :    0.273857
Sum of atomic charges:   -1.0000000

LOEWDIN ATOMIC CHARGES
----------------------
   0 C :   -0.139606
   1 N :   -0.761156
   2 C :    0.344116
   3 O :   -0.564809
   4 C :    0.142195
   5 O :   -0.555099
   6 C :    0.171593
   7 C :    0.369755
   8 O :   -0.546566
   9 N :   -0.623749
  10 C :   -0.006498
  11 C :   -0.080188
  12 C :   -0.147689
  13 C :   -0.162564
  14 C :    0.198077
  15 F :   -0.299973
  16 C :   -0.160970
  17 C :   -0.141565
  18 N :   -0.779932
  19 C :    0.248793
  20 C :   -0.352084
  21 C :    0.046769
  22 C :   -0.364607
  23 C :   -0.390004
  24 N :   -0.730877
  25 H :    0.195812
  26 H :    0.190750
  27 H :    0.165092
  28 H :    0.289972
  29 H :    0.296466
  30 H :    0.196846
  31 H :    0.205569
  32 H :    0.186345
  33 H :    0.193340
  34 H :    0.193318
  35 H :    0.195474
  36 H :    0.168136
  37 H :    0.161641
  38 H :    0.165733
  39 H :    0.157309
  40 H :    0.170389
  41 H :    0.172783
  42 H :    0.159857
  43 H :    0.170184
  44 H :    0.155916
  45 H :    0.247600
  46 H :    0.248104

  Mayer bond orders larger than 0.100000
B(  0-C ,  1-N ) :   0.8449 B(  0-C , 25-H ) :   0.9557 B(  0-C , 26-H ) :   0.9428
B(  0-C , 27-H ) :   0.9608 B(  1-N ,  2-C ) :   1.0786 B(  1-N , 19-C ) :   0.9067
B(  2-C ,  3-O ) :   1.9344 B(  2-C ,  4-C ) :   1.0781 B(  4-C ,  5-O ) :   1.0673
B(  4-C ,  6-C ) :   1.1458 B(  4-C , 18-N ) :   0.1026 B(  5-O , 28-H ) :   0.7922
B(  6-C ,  7-C ) :   0.9810 B(  6-C , 18-N ) :   1.2884 B(  7-C ,  8-O ) :   1.7281
B(  7-C ,  9-N ) :   1.2371 B(  8-O , 10-C ) :   0.1081 B(  9-N , 10-C ) :   0.8475
B(  9-N , 29-H ) :   0.8626 B( 10-C , 11-C ) :   0.8340 B( 10-C , 30-H ) :   0.9802
B( 10-C , 31-H ) :   0.9871 B( 11-C , 12-C ) :   1.4042 B( 11-C , 17-C ) :   1.3843
B( 12-C , 13-C ) :   1.3635 B( 12-C , 32-H ) :   0.9447 B( 13-C , 14-C ) :   1.4070
B( 13-C , 33-H ) :   0.9358 B( 14-C , 15-F ) :   0.8787 B( 14-C , 16-C ) :   1.3877
B( 16-C , 17-C ) :   1.3757 B( 16-C , 34-H ) :   0.9352 B( 17-C , 35-H ) :   0.9390
B( 18-N , 19-C ) :   0.7451 B( 19-C , 20-C ) :   0.9184 B( 19-C , 21-C ) :   0.8247
B( 20-C , 36-H ) :   0.9686 B( 20-C , 37-H ) :   0.9717 B( 20-C , 38-H ) :   0.9883
B( 21-C , 22-C ) :   0.8346 B( 21-C , 23-C ) :   0.9316 B( 21-C , 24-N ) :   0.8390
B( 22-C , 39-H ) :   0.9696 B( 22-C , 40-H ) :   0.9859 B( 22-C , 41-H ) :   0.9803
B( 23-C , 42-H ) :   0.9680 B( 23-C , 43-H ) :   0.9816 B( 23-C , 44-H ) :   0.9737
B( 24-N , 45-H ) :   0.9037 B( 24-N , 46-H ) :   0.9111

Dispersion correction           -0.023017206
FINAL SINGLE POINT ENERGY     -1205.503974618192

DIPOLE MOMENT
-------------
                                X             Y             Z
Electronic contribution:     28.16315      -2.47840       7.78159
Nuclear contribution   :    -25.40530       7.29057     -11.00169
                        -----------------------------------------
Total Dipole Moment    :      2.75785       4.81218      -3.22010
                        -----------------------------------------
Magnitude (a.u.)       :      6.41341
Magnitude (Debye)      :     16.30159

Rotational constants in cm-1:     0.012434     0.004106     0.003646
Rotational constants in MHz :   372.759619   123.093371   109.292289

                             ****ORCA TERMINATED NORMALLY****
TOTAL RUN TIME: 0 days 0 hours 2 minutes 52 seconds 386 msec
