   * xtb version 6.5.1 (579679a) compiled by 'ehlert@majestix' on 2022-07-11
          program call               : /lustre/hpc/kemi/ree/PhD/git/ReactivityQM/dep/xtb-6.5.1/bin/xtb --gfn 1 /lustre/hpc/kemi/ree/PhD/git/ReactivityQM/calculations/RaltegravirCLI/reac02prodE02/conf20/RaltegravirCLI_reac02prodE02_conf20_gfn1.xyz --opt --vfukui --chrg -1 --uhf 0 --alpb DMSO

   ID    Z sym.   atoms
    1    6 C      1, 3, 5, 7, 8, 11-15, 17, 18, 20-24
    2    7 N      2, 10, 19, 25
    3    8 O      4, 6, 9
    4    9 F      16
    5    1 H      26-47

      * Solvation model:               ALPB
        Solvent                        DMSO
        Solvent mass                       7.8130E+01 g/mol
          :  Hamiltonian                  GFN1-xTB          :
 * total energy  :   -80.2161922 Eh     change       -0.1737988E-10 Eh
 * total energy  :   -80.2232199 Eh     change       -0.7027687E-02 Eh
 * total energy  :   -80.2250197 Eh     change       -0.1799801E-02 Eh
 * total energy  :   -80.2253230 Eh     change       -0.3033021E-03 Eh
 * total energy  :   -80.2255852 Eh     change       -0.2622164E-03 Eh
 * total energy  :   -80.2257011 Eh     change       -0.1159556E-03 Eh
 * total energy  :   -80.2258162 Eh     change       -0.1150512E-03 Eh
 * total energy  :   -80.2258927 Eh     change       -0.7651216E-04 Eh
 * total energy  :   -80.2259469 Eh     change       -0.5419793E-04 Eh
 * total energy  :   -80.2259926 Eh     change       -0.4569108E-04 Eh
 * total energy  :   -80.2264718 Eh     change       -0.2288429E-04 Eh
 * total energy  :   -80.2264812 Eh     change       -0.9442855E-05 Eh
 * total energy  :   -80.2265139 Eh     change       -0.3267035E-04 Eh
 * total energy  :   -80.2265307 Eh     change       -0.1678092E-04 Eh
 * total energy  :   -80.2265427 Eh     change       -0.1203682E-04 Eh
 * total energy  :   -80.2265567 Eh     change       -0.1398206E-04 Eh
 * total energy  :   -80.2265622 Eh     change       -0.5491191E-05 Eh
 * total energy  :   -80.2265686 Eh     change       -0.6446204E-05 Eh
 * total energy  :   -80.2265726 Eh     change       -0.4008431E-05 Eh
   *** GEOMETRY OPTIMIZATION CONVERGED AFTER 33 ITERATIONS ***

 final structure:
================
47
 xtb: 6.5.1 (579679a)
C           -4.27745654456897       -1.54520938504393        0.44065272528459
N           -2.81920098870791       -1.47533448948524        0.49514833558195
C           -2.17180637984831       -2.33639666411078        1.36892055944998
O           -2.83659500333207       -3.08759495613038        2.11332193591168
C           -0.74028427813599       -2.31010687649532        1.30188539715718
O           -0.05294270075286       -3.14206138238801        2.18925577453030
C           -0.10719500496399       -1.58742521711953        0.29736836555949
C            1.35794091627407       -1.70167540775955        0.07667110395183
O            2.13119521297733       -2.34988399460109        0.79391779879533
N            1.79171927097390       -1.04550145017895       -1.02355919664456
C            3.20364449084119       -0.90817386791207       -1.32956309424345
C            3.80186920386842        0.27719296671198       -0.59850471584289
C            3.99628301488333        1.48862143500041       -1.25714052365518
C            4.52657209175302        2.58294681915022       -0.58608759091590
C            4.84859547473603        2.43681090979269        0.75048796215960
F            5.36321917494438        3.49157574479540        1.40943927455998
C            4.66906836270016        1.24906823171155        1.43680325633036
C            4.14151663997374        0.16587113238725        0.74900672449493
N           -0.73179170408141       -0.78394967746988       -0.56127678328492
C           -2.13326829045439       -0.49403148139804       -0.36557314446262
C           -2.76243604769619       -0.52947266826129       -1.77646701693990
C           -2.23759196349925        0.95888891330485        0.26249856288376
C           -1.81585423170130        0.92302838752183        1.73619524771512
C           -1.32069517594410        1.93167178274890       -0.49760630138214
N           -3.61965617262806        1.45110620322793        0.20607100460625
H           -4.64603240434013       -2.02297129430868        1.35249938703298
H           -4.70611987853951       -0.54395668418556        0.37596558957233
H           -4.61655690720264       -2.13328122651837       -0.41976443126701
H            0.89798595343399       -3.08751396567608        1.97178079852547
H            1.13229341195055       -0.43234427316314       -1.48837006154950
H            3.31166441750174       -0.78240097214893       -2.40977952489186
H            3.70864631737317       -1.83140619930682       -1.02445979955440
H            3.73913142580966        1.58301334495291       -2.30598605815173
H            4.68660928007743        3.52808449213560       -1.08775524578751
H            4.93969042610410        1.17773573283127        2.48250996332413
H            3.99346918339509       -0.77737847426748        1.26379414302276
H           -2.17738060213464        0.10527434908773       -2.43844037786014
H           -3.79560757693703       -0.19072771583065       -1.78628646297984
H           -2.71891893278245       -1.54935928039096       -2.15874230287831
H           -1.82643428928133        1.93117510157145        2.15177809624264
H           -2.50208285840443        0.30493795251575        2.31662796239642
H           -0.80711828570884        0.52052201847173        1.83220149108070
H           -1.66573190587945        2.06871302649671       -1.52151142369863
H           -0.30143589505930        1.54484408813894       -0.52300064213881
H           -1.32006715733593        2.90431918624473       -0.00541556232820
H           -3.83142399595257        1.75000040774011       -0.73706557868023
H           -3.69943009371155        2.27275537761197        0.79037737896079

          :  Hamiltonian                  GFN1-xTB          :
         :: total energy             -80.226572615669 Eh    ::
         :: gradient norm              0.000737066900 Eh/a0 ::
         :: HOMO-LUMO gap              1.157312138177 eV    ::
         :: SCC energy               -81.078299631066 Eh    ::
         :: -> Gsolv                  -0.107019155419 Eh    ::
         :: repulsion energy           0.884480417315 Eh    ::

    * Orbital Energies and Occupations

         #    Occupation            Energy/Eh            Energy/eV
      -------------------------------------------------------------
         1        2.0000           -0.8564605             -23.3055
       ...           ...                  ...                  ...
        56        2.0000           -0.4624957             -12.5851
        57        2.0000           -0.4507959             -12.2668
        58        2.0000           -0.4479929             -12.1905
        59        2.0000           -0.4424131             -12.0387
        60        2.0000           -0.4308162             -11.7231
        61        2.0000           -0.4222628             -11.4904
        62        2.0000           -0.4182286             -11.3806
        63        2.0000           -0.4049662             -11.0197
        64        2.0000           -0.3935809             -10.7099
        65        2.0000           -0.3866049             -10.5201
        66        2.0000           -0.3729806             -10.1493
        67        2.0000           -0.3630422              -9.8789
        68        2.0000           -0.3069226              -8.3518 (HOMO)
        69                         -0.2643922              -7.1945 (LUMO)
        70                         -0.2585210              -7.0347
        71                         -0.2505238              -6.8171
        72                         -0.1752180              -4.7679
        73                         -0.1364134              -3.7120
        74                         -0.1102395              -2.9998
        75                         -0.1086483              -2.9565
        76                         -0.1026524              -2.7933
        77                         -0.1008228              -2.7435
        78                         -0.0986650              -2.6848
        79                         -0.0958536              -2.6083
       ...                                ...                  ...
       144                          0.7291768              19.8419
      -------------------------------------------------------------
                  HL-Gap            0.0425304 Eh            1.1573 eV

Wiberg/Mayer (AO) data.
largest (>0.10) Wiberg bond orders for each atom

     #   Z sym  total        # sym  WBO       # sym  WBO       # sym  WBO
 ---------------------------------------------------------------------------
     1   6 C    3.964 --    28 H    0.984    27 H    0.979    26 H    0.979
                             2 N    0.961
     2   7 N    3.294 --     3 C    1.133     1 C    0.961    20 C    0.917
                             4 O    0.123
     3   6 C    3.919 --     4 O    1.458     5 C    1.165     2 N    1.133
     4   8 O    1.776 --     3 C    1.458     2 N    0.123
     5   6 C    3.871 --     7 C    1.359     3 C    1.165     6 O    0.982
                            19 N    0.178
     6   8 O    1.947 --     5 C    0.982    29 H    0.828
     7   6 C    3.973 --    19 N    1.379     5 C    1.359     8 C    1.018
     8   6 C    3.882 --     9 O    1.518    10 N    1.247     7 C    1.018
     9   8 O    1.881 --     8 C    1.518    10 N    0.146
    10   7 N    3.328 --     8 C    1.247    11 C    0.951    30 H    0.890
                             9 O    0.146
    11   6 C    3.960 --    12 C    0.992    31 H    0.978    32 H    0.970
                            10 N    0.951
    12   6 C    3.987 --    13 C    1.423    18 C    1.414    11 C    0.992
    13   6 C    3.994 --    14 C    1.439    12 C    1.423    33 H    0.971
                            17 C    0.110
    14   6 C    3.992 --    13 C    1.439    15 C    1.405    34 H    0.970
                            18 C    0.111
    15   6 C    3.858 --    14 C    1.405    17 C    1.399    16 F    0.919
    16   9 F    1.045 --    15 C    0.919
    17   6 C    3.992 --    18 C    1.447    15 C    1.399    35 H    0.970
                            13 C    0.110
    18   6 C    3.992 --    17 C    1.447    12 C    1.414    36 H    0.968
                            14 C    0.111
    19   7 N    2.933 --     7 C    1.379    20 C    1.007     5 C    0.178
    20   6 C    3.939 --    19 N    1.007    21 C    0.985    22 C    0.928
                             2 N    0.917
    21   6 C    3.996 --    20 C    0.985    39 H    0.985    38 H    0.984
                            37 H    0.983
    22   6 C    3.957 --    23 C    1.003    24 C    0.994    25 N    0.976
                            20 C    0.928
    23   6 C    3.997 --    22 C    1.003    40 H    0.986    41 H    0.985
                            42 H    0.984
    24   6 C    3.996 --    22 C    0.994    45 H    0.986    43 H    0.982
                            44 H    0.979
    25   7 N    2.987 --    22 C    0.976    46 H    0.950    47 H    0.948
    26   1 H    1.023 --     1 C    0.979
    27   1 H    1.037 --     1 C    0.979
    28   1 H    1.010 --     1 C    0.984
    29   1 H    0.897 --     6 O    0.828
    30   1 H    0.981 --    10 N    0.890
    31   1 H    1.006 --    11 C    0.978
    32   1 H    1.013 --    11 C    0.970
    33   1 H    1.000 --    13 C    0.971
    34   1 H    0.999 --    14 C    0.970
    35   1 H    0.999 --    17 C    0.970
    36   1 H    1.014 --    18 C    0.968
    37   1 H    1.016 --    21 C    0.983
    38   1 H    1.006 --    21 C    0.984
    39   1 H    1.014 --    21 C    0.985
    40   1 H    1.006 --    23 C    0.986
    41   1 H    1.012 --    23 C    0.985
    42   1 H    1.012 --    23 C    0.984
    43   1 H    1.008 --    24 C    0.982
    44   1 H    1.027 --    24 C    0.979
    45   1 H    1.007 --    24 C    0.986
    46   1 H    0.970 --    25 N    0.950
    47   1 H    0.966 --    25 N    0.948
 ---------------------------------------------------------------------------

           -------------------------------------------------
          | TOTAL ENERGY              -80.226572615669 Eh   |
          | GRADIENT NORM               0.000737066900 Eh/α |
          | HOMO-LUMO GAP               1.157312138177 eV   |
           -------------------------------------------------

 * finished run on 2023/06/20 at 14:56:45.433
