   * xtb version 6.5.1 (579679a) compiled by 'ehlert@majestix' on 2022-07-11
          program call               : /lustre/hpc/kemi/ree/PhD/git/ReactivityQM/dep/xtb-6.5.1/bin/xtb --gfn 1 /lustre/hpc/kemi/ree/PhD/git/ReactivityQM/calculations/RaltegravirCLI/reac02prodE02/conf10/RaltegravirCLI_reac02prodE02_conf10_gfn1.xyz --opt --vfukui --chrg -1 --uhf 0 --alpb DMSO

   ID    Z sym.   atoms
    1    6 C      1, 3, 5, 7, 8, 11-15, 17, 18, 20-24
    2    7 N      2, 10, 19, 25
    3    8 O      4, 6, 9
    4    9 F      16
    5    1 H      26-47

      * Solvation model:               ALPB
        Solvent                        DMSO
        Solvent mass                       7.8130E+01 g/mol
          :  Hamiltonian                  GFN1-xTB          :
 * total energy  :   -80.2067763 Eh     change       -0.4547474E-11 Eh
 * total energy  :   -80.2145611 Eh     change       -0.7784777E-02 Eh
 * total energy  :   -80.2167065 Eh     change       -0.2145430E-02 Eh
 * total energy  :   -80.2171344 Eh     change       -0.4278547E-03 Eh
 * total energy  :   -80.2175065 Eh     change       -0.3721005E-03 Eh
 * total energy  :   -80.2176837 Eh     change       -0.1772441E-03 Eh
 * total energy  :   -80.2178707 Eh     change       -0.1869360E-03 Eh
 * total energy  :   -80.2180136 Eh     change       -0.1428921E-03 Eh
 * total energy  :   -80.2181006 Eh     change       -0.8702533E-04 Eh
 * total energy  :   -80.2181494 Eh     change       -0.4882478E-04 Eh
 * total energy  :   -80.2189873 Eh     change       -0.8816661E-05 Eh
 * total energy  :   -80.2189974 Eh     change       -0.1012489E-04 Eh
 * total energy  :   -80.2190071 Eh     change       -0.9753315E-05 Eh
 * total energy  :   -80.2190156 Eh     change       -0.8471761E-05 Eh
 * total energy  :   -80.2190182 Eh     change       -0.2539608E-05 Eh
 * total energy  :   -80.2190306 Eh     change       -0.1244689E-04 Eh
 * total energy  :   -80.2190374 Eh     change       -0.6776642E-05 Eh
 * total energy  :   -80.2190433 Eh     change       -0.5954467E-05 Eh
 * total energy  :   -80.2190477 Eh     change       -0.4403348E-05 Eh
   *** GEOMETRY OPTIMIZATION CONVERGED AFTER 61 ITERATIONS ***

 final structure:
================
47
 xtb: 6.5.1 (579679a)
C           -3.77754539188059       -1.90017102538113        0.88623627508408
N           -2.55122278644399       -1.16480913179761        0.58772273879311
C           -1.40960331647187       -1.60762957504174        1.24255455855318
O           -1.49066591197039       -2.33292808785551        2.26290601171842
C           -0.16915704911888       -1.21853389675802        0.68054972307090
O            0.98252203317513       -1.63408846698108        1.38177863916610
C           -0.11338724929984       -0.62469652666583       -0.57684724339448
C            1.18008082222623       -0.40116946309836       -1.31006291864127
O            1.34134114116828        0.51462273756017       -2.11495782906983
N            2.15738078275405       -1.31813493801080       -1.08231924188633
C            3.50836201513489       -1.08081102430395       -1.57079196885709
C            4.26176246065516       -0.19249961993227       -0.60303109092316
C            4.13585166401291        1.19341011778179       -0.68350121006893
C            4.78494817145797        2.01604201513746        0.22579885270604
C            5.55630636669190        1.42467216147954        1.21010716250591
F            6.19078321072753        2.21607137177899        2.09503615437062
C            5.70608136250147        0.05453226964592        1.31911674682818
C            5.04647876182841       -0.75275831896570        0.40181767353816
N           -1.18595354231150       -0.21490908417038       -1.22857573415145
C           -2.48358251168852       -0.27031504111528       -0.58819611826463
C           -3.45076263676512       -0.74987329967072       -1.69268920865484
C           -2.83116092551848        1.21416535046496       -0.16382879820735
C           -1.82383609850222        1.72034676971984        0.88450653002414
C           -4.24506354303063        1.38643088936088        0.40089182913209
N           -2.73333018760346        2.02169242471771       -1.38135424858718
H           -3.87952039122257       -2.78701955627833        0.24882657965622
H           -3.73855112981721       -2.22477874074595        1.92855641218267
H           -4.65755247294398       -1.27233219521189        0.75595889537378
H            0.65000703818594       -2.15256274524079        2.13493651922659
H            2.08073610977450       -1.94159134034066       -0.29211325833148
H            4.01027671264740       -2.04581941904407       -1.67593781582176
H            3.44121078886801       -0.60397436264937       -2.55409691290510
H            3.52410123494174        1.63315932561582       -1.46416960782150
H            4.69952335676853        3.09380508161992        0.17480946466683
H            6.32325213784452       -0.36855719993400        2.10069852137238
H            5.15159356883221       -1.82958090649708        0.46980357776511
H           -4.48943929557990       -0.77535345499560       -1.37238821319011
H           -3.15625735701647       -1.74670272903572       -2.01967869004493
H           -3.36596312411770       -0.06775472609957       -2.53793609389255
H           -2.05357659681949        2.75232594801711        1.14985517262588
H           -1.87403664195561        1.11040203072022        1.78684652190338
H           -0.80950997455780        1.68485988114103        0.48770203386460
H           -5.00021132562108        1.05998963135916       -0.31289498830418
H           -4.36310010682197        0.83072641325690        1.32999422471282
H           -4.42203790553476        2.44141979245544        0.61567522585022
H           -1.79076940839787        1.91391366247272       -1.75558494319716
H           -2.86680385917684        2.99677000151532       -1.15031891047569

          :  Hamiltonian                  GFN1-xTB          :
         :: total energy             -80.219047737439 Eh    ::
         :: gradient norm              0.000557519506 Eh/a0 ::
         :: HOMO-LUMO gap              1.221415905911 eV    ::
         :: SCC energy               -81.072987510145 Eh    ::
         :: -> Gsolv                  -0.098774720139 Eh    ::
         :: repulsion energy           0.886305995809 Eh    ::

    * Orbital Energies and Occupations

         #    Occupation            Energy/Eh            Energy/eV
      -------------------------------------------------------------
         1        2.0000           -0.8565745             -23.3086
       ...           ...                  ...                  ...
        56        2.0000           -0.4614712             -12.5573
        57        2.0000           -0.4536053             -12.3432
        58        2.0000           -0.4445581             -12.0970
        59        2.0000           -0.4423208             -12.0362
        60        2.0000           -0.4311573             -11.7324
        61        2.0000           -0.4200069             -11.4290
        62        2.0000           -0.4162349             -11.3263
        63        2.0000           -0.4066016             -11.0642
        64        2.0000           -0.3894583             -10.5977
        65        2.0000           -0.3847740             -10.4702
        66        2.0000           -0.3774209             -10.2701
        67        2.0000           -0.3608883              -9.8203
        68        2.0000           -0.3091614              -8.4127 (HOMO)
        69                         -0.2642752              -7.1913 (LUMO)
        70                         -0.2580809              -7.0227
        71                         -0.2456023              -6.6832
        72                         -0.1820435              -4.9537
        73                         -0.1362841              -3.7085
        74                         -0.1179349              -3.2092
        75                         -0.1090408              -2.9672
        76                         -0.1053760              -2.8674
        77                         -0.1040849              -2.8323
        78                         -0.0967024              -2.6314
        79                         -0.0945992              -2.5742
       ...                                ...                  ...
       144                          0.7225452              19.6615
      -------------------------------------------------------------
                  HL-Gap            0.0448862 Eh            1.2214 eV

Wiberg/Mayer (AO) data.
largest (>0.10) Wiberg bond orders for each atom

     #   Z sym  total        # sym  WBO       # sym  WBO       # sym  WBO
 ---------------------------------------------------------------------------
     1   6 C    3.967 --    28 H    0.984    26 H    0.982    27 H    0.979
                             2 N    0.960
     2   7 N    3.260 --     3 C    1.113     1 C    0.960    20 C    0.915
                             4 O    0.108
     3   6 C    3.922 --     4 O    1.429     5 C    1.213     2 N    1.113
     4   8 O    1.783 --     3 C    1.429     2 N    0.108
     5   6 C    3.842 --     7 C    1.335     3 C    1.213     6 O    0.950
                            19 N    0.163
     6   8 O    1.942 --     5 C    0.950    29 H    0.842
     7   6 C    3.974 --    19 N    1.448     5 C    1.335     8 C    0.982
     8   6 C    3.877 --     9 O    1.575    10 N    1.229     7 C    0.982
     9   8 O    1.864 --     8 C    1.575    10 N    0.151
    10   7 N    3.307 --     8 C    1.229    11 C    0.951    30 H    0.891
                             9 O    0.151
    11   6 C    3.961 --    12 C    0.994    31 H    0.978    32 H    0.972
                            10 N    0.951
    12   6 C    3.988 --    18 C    1.421    13 C    1.415    11 C    0.994
    13   6 C    3.992 --    14 C    1.446    12 C    1.415    33 H    0.969
                            17 C    0.111
    14   6 C    3.992 --    13 C    1.446    15 C    1.400    34 H    0.970
                            18 C    0.110
    15   6 C    3.857 --    17 C    1.404    14 C    1.400    16 F    0.918
    16   9 F    1.044 --    15 C    0.918
    17   6 C    3.992 --    18 C    1.440    15 C    1.404    35 H    0.970
                            13 C    0.111
    18   6 C    3.994 --    17 C    1.440    12 C    1.421    36 H    0.972
                            14 C    0.110
    19   7 N    2.938 --     7 C    1.448    20 C    1.008     5 C    0.163
    20   6 C    3.940 --    19 N    1.008    21 C    0.988    22 C    0.931
                             2 N    0.915
    21   6 C    3.996 --    20 C    0.988    38 H    0.985    39 H    0.983
                            37 H    0.982
    22   6 C    3.961 --    24 C    1.000    23 C    0.991    25 N    0.983
                            20 C    0.931
    23   6 C    3.996 --    22 C    0.991    40 H    0.987    41 H    0.984
                            42 H    0.983
    24   6 C    3.996 --    22 C    1.000    45 H    0.983    44 H    0.983
                            43 H    0.982
    25   7 N    2.969 --    22 C    0.983    47 H    0.954    46 H    0.940
    26   1 H    1.008 --     1 C    0.982
    27   1 H    1.023 --     1 C    0.979
    28   1 H    1.016 --     1 C    0.984
    29   1 H    0.888 --     6 O    0.842
    30   1 H    0.960 --    10 N    0.891
    31   1 H    1.007 --    11 C    0.978
    32   1 H    1.015 --    11 C    0.972
    33   1 H    1.014 --    13 C    0.969
    34   1 H    0.999 --    14 C    0.970
    35   1 H    0.999 --    17 C    0.970
    36   1 H    1.000 --    18 C    0.972
    37   1 H    1.008 --    21 C    0.982
    38   1 H    1.014 --    21 C    0.985
    39   1 H    1.028 --    21 C    0.983
    40   1 H    1.008 --    23 C    0.987
    41   1 H    1.012 --    23 C    0.984
    42   1 H    1.014 --    23 C    0.983
    43   1 H    1.011 --    24 C    0.982
    44   1 H    1.007 --    24 C    0.983
    45   1 H    1.005 --    24 C    0.983
    46   1 H    0.989 --    25 N    0.940
    47   1 H    0.970 --    25 N    0.954
 ---------------------------------------------------------------------------

           -------------------------------------------------
          | TOTAL ENERGY              -80.219047737439 Eh   |
          | GRADIENT NORM               0.000557519506 Eh/α |
          | HOMO-LUMO GAP               1.221415905911 eV   |
           -------------------------------------------------

 * finished run on 2023/06/20 at 14:56:41.999
