   * xtb version 6.5.1 (579679a) compiled by 'ehlert@majestix' on 2022-07-11
          program call               : /lustre/hpc/kemi/ree/PhD/git/ReactivityQM/dep/xtb-6.5.1/bin/xtb --gfn 1 /lustre/hpc/kemi/ree/PhD/git/ReactivityQM/calculations/RaltegravirCLI/reac02prodE04/conf18/RaltegravirCLI_reac02prodE04_conf18_gfn1.xyz --opt --vfukui --chrg -1 --uhf 0 --alpb DMSO

   ID    Z sym.   atoms
    1    6 C      1, 3, 5, 7-9, 12-16, 18, 19, 21-24
    2    7 N      2, 11, 20, 25
    3    8 O      4, 6, 10
    4    9 F      17
    5    1 H      26-47

      * Solvation model:               ALPB
        Solvent                        DMSO
        Solvent mass                       7.8130E+01 g/mol
          :  Hamiltonian                  GFN1-xTB          :
 * total energy  :   -80.1914965 Eh     change       -0.2350475E-10 Eh
 * total energy  :   -80.2050506 Eh     change       -0.1355405E-01 Eh
 * total energy  :   -80.2087793 Eh     change       -0.3728710E-02 Eh
 * total energy  :   -80.2093821 Eh     change       -0.6028152E-03 Eh
 * total energy  :   -80.2098696 Eh     change       -0.4875028E-03 Eh
 * total energy  :   -80.2100206 Eh     change       -0.1510218E-03 Eh
 * total energy  :   -80.2101424 Eh     change       -0.1217378E-03 Eh
 * total energy  :   -80.2102302 Eh     change       -0.8778902E-04 Eh
 * total energy  :   -80.2103234 Eh     change       -0.9322293E-04 Eh
 * total energy  :   -80.2104114 Eh     change       -0.8801804E-04 Eh
 * total energy  :   -80.2120270 Eh     change       -0.1030666E-04 Eh
 * total energy  :   -80.2120376 Eh     change       -0.1059022E-04 Eh
 * total energy  :   -80.2120468 Eh     change       -0.9185958E-05 Eh
 * total energy  :   -80.2120544 Eh     change       -0.7627058E-05 Eh
 * total energy  :   -80.2120627 Eh     change       -0.8274129E-05 Eh
 * total energy  :   -80.2120722 Eh     change       -0.9447909E-05 Eh
 * total energy  :   -80.2120803 Eh     change       -0.8125071E-05 Eh
 * total energy  :   -80.2120861 Eh     change       -0.5846782E-05 Eh
 * total energy  :   -80.2120902 Eh     change       -0.4024485E-05 Eh
   *** GEOMETRY OPTIMIZATION CONVERGED AFTER 66 ITERATIONS ***

 final structure:
================
47
 xtb: 6.5.1 (579679a)
C           -3.40684136440207        0.35758815290438       -2.30990477180316
N           -2.44866589537125       -0.41454650178326       -1.52957397566031
C           -2.00667509263773       -1.66245188834652       -2.16235843893249
O           -2.58800125068498       -2.02847976609077       -3.23346061980733
C           -1.02430863723444       -2.32715796058454       -1.50803269997916
O           -0.55934476886294       -3.56172704302470       -2.03981550752302
C           -0.34599476824118       -1.85961610234070       -0.25403655325165
C           -0.33489305623270       -2.94706334463812        0.84031863552693
C            1.11912590721022       -1.51945799829907       -0.61021132139816
O            2.01959789081936       -2.34859352925879       -0.67008816795753
N            1.30269869534130       -0.21848925285336       -0.97460120048931
C            2.65474039307575        0.29458798341909       -1.14635549104581
C            3.30646479246849        0.51210697910000        0.20237509247837
C            4.13303041906163       -0.46636290760463        0.74989013768714
C            4.70714790050743       -0.28777500545628        2.00078391044446
C            4.42927064795367        0.87987236865356        2.68781452034332
F            4.98417067677834        1.06291381919990        3.90003804331589
C            3.60680069693394        1.86858172187939        2.17954063794965
C            3.04355474075498        1.67306641027122        0.92612931362569
N           -0.97633334796445       -0.65803894888459        0.27963211001976
C           -1.91799498015836       -0.02992407971569       -0.34351439563263
C           -2.39201441872076        1.24597106692259        0.37110425539459
C           -1.89785311739525        2.48404257312221       -0.38909868699439
C           -1.80830337145050        1.28570724286972        1.79474316330061
N           -3.85433662518802        1.28571991568259        0.45791319217634
H           -4.09720752932227        0.89652926956197       -1.66448737876547
H           -2.89033714104603        1.06832718519451       -2.96366719331153
H           -3.97860511377469       -0.33203045220613       -2.93713339207215
H           -1.10915070522182       -3.72964734161940       -2.82104936969464
H            0.22850565656283       -3.81358119963689        0.49332045997627
H           -1.35605299456751       -3.25078340380899        1.06721903241429
H            0.12671048823473       -2.55749809005212        1.74741215581126
H            0.63768619250115        0.44226051127538       -0.58831891080773
H            3.22668345274458       -0.42902233950409       -1.73572425147177
H            2.59170353026189        1.23572727872348       -1.69823779865438
H            4.32779268234509       -1.37733234659553        0.19397322142246
H            5.35696901591895       -1.03523622651321        2.43720058785432
H            3.41460931435919        2.76737138357360        2.74995161999119
H            2.39579088830088        2.43522105363303        0.50854759839794
H           -0.81717886943249        2.42681276507193       -0.52266019629841
H           -2.36832072032958        2.56719516379480       -1.36678414440298
H           -2.12969341633831        3.38472390891637        0.17873387554041
H           -2.09447824859317        0.39099643179293        2.34688444338900
H           -2.18838834184189        2.16110635059402        2.31981998569922
H           -0.72044946761421        1.33771612178931        1.75708915218891
H           -4.17105077189444        0.59838305459476        1.13011493184907
H           -4.13057996762603        2.19228501628153        0.80605938915048

          :  Hamiltonian                  GFN1-xTB          :
         :: total energy             -80.212090156907 Eh    ::
         :: gradient norm              0.000459596227 Eh/a0 ::
         :: HOMO-LUMO gap              0.916442927141 eV    ::
         :: SCC energy               -81.071418110268 Eh    ::
         :: -> Gsolv                  -0.113302339733 Eh    ::
         :: repulsion energy           0.891960958111 Eh    ::

    * Orbital Energies and Occupations

         #    Occupation            Energy/Eh            Energy/eV
      -------------------------------------------------------------
         1        2.0000           -0.8581661             -23.3519
       ...           ...                  ...                  ...
        56        2.0000           -0.4612586             -12.5515
        57        2.0000           -0.4555640             -12.3965
        58        2.0000           -0.4498730             -12.2417
        59        2.0000           -0.4444335             -12.0937
        60        2.0000           -0.4430266             -12.0554
        61        2.0000           -0.4328333             -11.7780
        62        2.0000           -0.4201249             -11.4322
        63        2.0000           -0.4128154             -11.2333
        64        2.0000           -0.3956939             -10.7674
        65        2.0000           -0.3794978             -10.3267
        66        2.0000           -0.3728102             -10.1447
        67        2.0000           -0.3645321              -9.9194
        68        2.0000           -0.3001262              -8.1669 (HOMO)
        69                         -0.2664476              -7.2504 (LUMO)
        70                         -0.2592728              -7.0552
        71                         -0.2234715              -6.0810
        72                         -0.2092137              -5.6930
        73                         -0.1384946              -3.7686
        74                         -0.1245732              -3.3898
        75                         -0.1221693              -3.3244
        76                         -0.1091722              -2.9707
        77                         -0.1057372              -2.8773
        78                         -0.1002903              -2.7290
        79                         -0.0972665              -2.6468
       ...                                ...                  ...
       144                          0.6905483              18.7908
      -------------------------------------------------------------
                  HL-Gap            0.0336787 Eh            0.9164 eV

Wiberg/Mayer (AO) data.
largest (>0.10) Wiberg bond orders for each atom

     #   Z sym  total        # sym  WBO       # sym  WBO       # sym  WBO
 ---------------------------------------------------------------------------
     1   6 C    3.957 --    27 H    0.981    28 H    0.976    26 H    0.975
                             2 N    0.955
     2   7 N    3.386 --    21 C    1.225     1 C    0.955     3 C    0.897
                            20 N    0.174
     3   6 C    3.918 --     5 C    1.550     4 O    1.332     2 N    0.897
     4   8 O    1.699 --     3 C    1.332     5 C    0.176
     5   6 C    3.797 --     3 C    1.550     7 C    0.970     6 O    0.940
                             4 O    0.176
     6   8 O    1.912 --     5 C    0.940    29 H    0.861
     7   6 C    3.966 --     8 C    0.975    20 N    0.975     5 C    0.970
                             9 C    0.919
     8   6 C    3.997 --    32 H    0.988    31 H    0.988    30 H    0.985
                             7 C    0.975
     9   6 C    3.863 --    10 O    1.598    11 N    1.212     7 C    0.919
    10   8 O    1.885 --     9 C    1.598    11 N    0.140
    11   7 N    3.286 --     9 C    1.212    12 C    0.949    33 H    0.900
                            10 O    0.140
    12   6 C    3.962 --    13 C    0.995    35 H    0.977    34 H    0.975
                            11 N    0.949
    13   6 C    3.988 --    19 C    1.418    14 C    1.417    12 C    0.995
    14   6 C    3.993 --    15 C    1.443    13 C    1.417    36 H    0.970
                            18 C    0.111
    15   6 C    3.992 --    14 C    1.443    16 C    1.402    37 H    0.970
                            19 C    0.110
    16   6 C    3.859 --    15 C    1.402    18 C    1.402    17 F    0.919
    17   9 F    1.045 --    16 C    0.919
    18   6 C    3.992 --    19 C    1.443    16 C    1.402    38 H    0.970
                            14 C    0.111
    19   6 C    3.994 --    18 C    1.443    13 C    1.418    39 H    0.972
                            15 C    0.110
    20   7 N    2.971 --    21 C    1.605     7 C    0.975     2 N    0.174
    21   6 C    3.947 --    20 N    1.605     2 N    1.225    22 C    0.964
    22   6 C    3.964 --    24 C    0.993    23 C    0.991    25 N    0.977
                            21 C    0.964
    23   6 C    3.996 --    22 C    0.991    40 H    0.985    42 H    0.984
                            41 H    0.981
    24   6 C    3.997 --    22 C    0.993    44 H    0.986    43 H    0.984
                            45 H    0.984
    25   7 N    2.991 --    22 C    0.977    47 H    0.948    46 H    0.946
    26   1 H    1.034 --     1 C    0.975
    27   1 H    1.012 --     1 C    0.981
    28   1 H    1.027 --     1 C    0.976
    29   1 H    0.901 --     6 O    0.861
    30   1 H    1.017 --     8 C    0.985
    31   1 H    1.015 --     8 C    0.988
    32   1 H    1.011 --     8 C    0.988
    33   1 H    0.976 --    11 N    0.900
    34   1 H    1.013 --    12 C    0.975
    35   1 H    1.007 --    12 C    0.977
    36   1 H    1.013 --    14 C    0.970
    37   1 H    0.999 --    15 C    0.970
    38   1 H    0.999 --    18 C    0.970
    39   1 H    1.000 --    19 C    0.972
    40   1 H    1.007 --    23 C    0.985
    41   1 H    1.008 --    23 C    0.981
    42   1 H    1.003 --    23 C    0.984
    43   1 H    1.018 --    24 C    0.984
    44   1 H    1.006 --    24 C    0.986
    45   1 H    1.022 --    24 C    0.984
    46   1 H    0.963 --    25 N    0.946
    47   1 H    0.963 --    25 N    0.948
 ---------------------------------------------------------------------------

           -------------------------------------------------
          | TOTAL ENERGY              -80.212090156907 Eh   |
          | GRADIENT NORM               0.000459596227 Eh/α |
          | HOMO-LUMO GAP               0.916442927141 eV   |
           -------------------------------------------------

 * finished run on 2023/06/20 at 15:00:22.996
