   * xtb version 6.5.1 (579679a) compiled by 'ehlert@majestix' on 2022-07-11
          program call               : /lustre/hpc/kemi/ree/PhD/git/ReactivityQM/dep/xtb-6.5.1/bin/xtb --gfn 1 /lustre/hpc/kemi/ree/PhD/git/ReactivityQM/calculations/R01/reac01prodE04/conf05/R01_reac01prodE04_conf05_gfn1.xyz --opt --vfukui --chrg -1 --uhf 0 --alpb DMSO

   ID    Z sym.   atoms
    1    6 C      1, 3, 5, 7, 8, 11
    2    8 O      2, 4, 6
    3    7 N      9, 10
    4    1 H      12-20

      * Solvation model:               ALPB
        Solvent                        DMSO
        Solvent mass                       7.8130E+01 g/mol
          :  Hamiltonian                  GFN1-xTB          :
 * total energy  :   -38.2885833 Eh     change       -0.5407230E-11 Eh
 * total energy  :   -38.3027270 Eh     change       -0.1414368E-01 Eh
 * total energy  :   -38.3061942 Eh     change       -0.3467216E-02 Eh
 * total energy  :   -38.3069569 Eh     change       -0.7627070E-03 Eh
 * total energy  :   -38.3083588 Eh     change       -0.1401931E-02 Eh
 * total energy  :   -38.3096823 Eh     change       -0.1323449E-02 Eh
 * total energy  :   -38.3116957 Eh     change       -0.2013391E-02 Eh
 * total energy  :   -38.3155562 Eh     change       -0.3860488E-02 Eh
 * total energy  :   -38.3182532 Eh     change       -0.2696999E-02 Eh
 * total energy  :   -38.3191975 Eh     change       -0.9443266E-03 Eh
 * total energy  :   -38.3246305 Eh     change       -0.5298656E-04 Eh
 * total energy  :   -38.3246750 Eh     change       -0.4451620E-04 Eh
 * total energy  :   -38.3247001 Eh     change       -0.2509136E-04 Eh
 * total energy  :   -38.3247141 Eh     change       -0.1401102E-04 Eh
 * total energy  :   -38.3247216 Eh     change       -0.7494633E-05 Eh
 * total energy  :   -38.3247304 Eh     change       -0.8733352E-05 Eh
 * total energy  :   -38.3247320 Eh     change       -0.1647330E-05 Eh
 * total energy  :   -38.3247380 Eh     change       -0.5975685E-05 Eh
 * total energy  :   -38.3247410 Eh     change       -0.2991923E-05 Eh
   *** GEOMETRY OPTIMIZATION CONVERGED AFTER 38 ITERATIONS ***

 final structure:
================
20
 xtb: 6.5.1 (579679a)
C           -3.63458620428987       -0.04976433646556       -0.37161329671168
O           -2.26211611316726        0.23515789053887       -0.53031620765055
C           -1.38921001756809       -0.71453087375512        0.09336297142510
O           -1.89653614286226       -1.70182955096349        0.68099581154954
C           -0.09424936641242       -0.25750936034773        0.11384929187293
O            0.99805879849762       -1.11591803917496        0.45772160772334
C            2.02994708810572       -0.64813678077329       -0.24857046128102
C            3.34038224978816       -1.35026787351577       -0.13616934577404
N            1.82548295417616        0.37966770279089       -0.98105636626225
N            0.44048458977613        0.74975475266344       -0.80854316694620
C            0.42581398330426        2.10117695777737       -0.22363423352065
H           -4.19260871802433        0.72485005746186       -0.90171114674356
H           -3.89665692657648       -1.02982803783269       -0.79338749887176
H           -3.92944918048527       -0.04141172439088        0.68661778141874
H            4.11239365654006       -0.77073381107415       -0.63575624079765
H            3.60257261384685       -1.47933415573109        0.91255657995679
H            3.28142980860305       -2.33740496561689       -0.59438097625824
H            0.96469799368143        2.13440934677250        0.72832181595751
H           -0.61431222816958        2.38052427767096       -0.06536374255652
H            0.88846116123640        2.79112952396551       -0.92835717652981

          :  Hamiltonian                  GFN1-xTB          :
         :: total energy             -38.324740983767 Eh    ::
         :: gradient norm              0.000758487143 Eh/a0 ::
         :: HOMO-LUMO gap              2.442746462413 eV    ::
         :: SCC energy               -38.639143743234 Eh    ::
         :: -> Gsolv                  -0.102660247550 Eh    ::
         :: repulsion energy           0.322828885331 Eh    ::

    * Orbital Energies and Occupations

         #    Occupation            Energy/Eh            Energy/eV
      -------------------------------------------------------------
         1        2.0000           -0.7804049             -21.2359
       ...           ...                  ...                  ...
        19        2.0000           -0.5081919             -13.8286
        20        2.0000           -0.5036225             -13.7043
        21        2.0000           -0.4890881             -13.3088
        22        2.0000           -0.4833091             -13.1515
        23        2.0000           -0.4756094             -12.9420
        24        2.0000           -0.4680745             -12.7370
        25        2.0000           -0.4522613             -12.3067
        26        2.0000           -0.4257474             -11.5852
        27        2.0000           -0.4211769             -11.4608
        28        2.0000           -0.4155892             -11.3088
        29        2.0000           -0.3879959             -10.5579
        30        2.0000           -0.3850685             -10.4782
        31        2.0000           -0.2983586              -8.1188 (HOMO)
        32                         -0.2085893              -5.6760 (LUMO)
        33                         -0.1407307              -3.8295
        34                         -0.1234583              -3.3595
        35                         -0.1059168              -2.8821
        36                         -0.0933362              -2.5398
        37                         -0.0569991              -1.5510
        38                         -0.0559260              -1.5218
        39                         -0.0450859              -1.2268
        40                         -0.0424034              -1.1539
        41                         -0.0420584              -1.1445
        42                         -0.0376192              -1.0237
       ...                                ...                  ...
        62                          0.6974130              18.9776
      -------------------------------------------------------------
                  HL-Gap            0.0897693 Eh            2.4427 eV

Wiberg/Mayer (AO) data.
largest (>0.10) Wiberg bond orders for each atom

     #   Z sym  total        # sym  WBO       # sym  WBO       # sym  WBO
 ---------------------------------------------------------------------------
     1   6 C    3.923 --    12 H    0.986    14 H    0.981    13 H    0.980
                             2 O    0.957
     2   8 O    2.030 --     1 C    0.957     3 C    0.888
     3   6 C    3.879 --     5 C    1.482     4 O    1.394     2 O    0.888
     4   8 O    1.720 --     3 C    1.394     5 C    0.173
     5   6 C    3.628 --     3 C    1.482    10 N    0.950     6 O    0.874
                             4 O    0.173
     6   8 O    2.186 --     7 C    1.096     5 C    0.874     9 N    0.135
     7   6 C    3.908 --     9 N    1.708     6 O    1.096     8 C    1.013
     8   6 C    3.995 --     7 C    1.013    15 H    0.987    16 H    0.975
                            17 H    0.971
     9   7 N    2.944 --     7 C    1.708    10 N    0.984     6 O    0.135
    10   7 N    3.057 --     9 N    0.984    11 C    0.970     5 C    0.950
    11   6 C    3.982 --    20 H    0.989    19 H    0.987    18 H    0.984
                            10 N    0.970
    12   1 H    1.021 --     1 C    0.986
    13   1 H    1.024 --     1 C    0.980
    14   1 H    1.022 --     1 C    0.981
    15   1 H    1.006 --     8 C    0.987
    16   1 H    1.003 --     8 C    0.975
    17   1 H    1.004 --     8 C    0.971
    18   1 H    1.021 --    11 C    0.984
    19   1 H    1.032 --    11 C    0.987
    20   1 H    1.025 --    11 C    0.989
 ---------------------------------------------------------------------------

           -------------------------------------------------
          | TOTAL ENERGY              -38.324740983767 Eh   |
          | GRADIENT NORM               0.000758487143 Eh/α |
          | HOMO-LUMO GAP               2.442746462413 eV   |
           -------------------------------------------------

 * finished run on 2023/06/20 at 14:53:37.692
