   * xtb version 6.5.1 (579679a) compiled by 'ehlert@majestix' on 2022-07-11
          program call               : /lustre/hpc/kemi/ree/PhD/git/ReactivityQM/dep/xtb-6.5.1/bin/xtb --gfn 1 /lustre/hpc/kemi/ree/PhD/git/ReactivityQM/calculations/RaltegravirCLI/reac01prodN01/conf09/RaltegravirCLI_reac01prodN01_conf09_gfn1.xyz --opt --vfukui --chrg 1 --uhf 0 --alpb DMSO

   ID    Z sym.   atoms
    1    6 C      1, 2, 5, 6, 10
    2    7 N      3, 4
    3    8 O      7, 9
    4   17 Cl     8
    5    1 H      11-16

      * Solvation model:               ALPB
        Solvent                        DMSO
        Solvent mass                       7.8130E+01 g/mol
          :  Hamiltonian                  GFN1-xTB          :
 * total energy  :   -33.3493981 Eh     change       -0.6338041E-11 Eh
 * total energy  :   -33.3632834 Eh     change       -0.1388532E-01 Eh
 * total energy  :   -33.3691931 Eh     change       -0.5909725E-02 Eh
 * total energy  :   -33.3707087 Eh     change       -0.1515509E-02 Eh
 * total energy  :   -33.3716145 Eh     change       -0.9058341E-03 Eh
 * total energy  :   -33.3720983 Eh     change       -0.4838586E-03 Eh
 * total energy  :   -33.3724449 Eh     change       -0.3465810E-03 Eh
 * total energy  :   -33.3727731 Eh     change       -0.3281536E-03 Eh
 * total energy  :   -33.3730011 Eh     change       -0.2280291E-03 Eh
 * total energy  :   -33.3731663 Eh     change       -0.1651423E-03 Eh
 * total energy  :   -33.3743782 Eh     change       -0.3326367E-04 Eh
 * total energy  :   -33.3742409 Eh     change        0.1372537E-03 Eh
 * total energy  :   -33.3744395 Eh     change       -0.1985899E-03 Eh
 * total energy  :   -33.3744550 Eh     change       -0.1547925E-04 Eh
 * total energy  :   -33.3743328 Eh     change        0.1221433E-03 Eh
 * total energy  :   -33.3744916 Eh     change       -0.1587861E-03 Eh
 * total energy  :   -33.3744992 Eh     change       -0.7555420E-05 Eh
 * total energy  :   -33.3745044 Eh     change       -0.5266790E-05 Eh
 * total energy  :   -33.3745069 Eh     change       -0.2426929E-05 Eh
   *** GEOMETRY OPTIMIZATION CONVERGED AFTER 38 ITERATIONS ***

 final structure:
================
16
 xtb: 6.5.1 (579679a)
C            2.35104038670803       -0.20553249085053        0.23766932113486
C            1.03387134904820       -0.68142746518355       -0.20513369612490
N            0.72902896747189       -1.76803074787003       -0.81279450655988
N           -0.61338642560813       -1.79976611952242       -1.02258791256293
C           -1.13588392017072       -0.73184190132282       -0.54482406869288
C           -2.55257621322062       -0.29305224868898       -0.51028269308709
O           -2.89128429959758        0.74834519394802       -0.03101264507834
Cl          -3.61625241236638       -1.41760011512307       -1.21198734628427
O           -0.12570409914092        0.06371430509942        0.01296593306154
C           -0.28273993579195        1.37280529233612        0.65505085990525
H            2.59434397519754        0.74357002757449       -0.24149483655821
H            3.09887695867490       -0.95090699044277       -0.02830062458312
H            2.35662994320290       -0.05176959023795        1.31740464586899
H           -0.69533463937056        2.05110424062157       -0.08845814221278
H            0.70699905495760        1.67982269229879        0.97631692909291
H           -0.95762968999429        1.24056691736367        1.49746878268079

          :  Hamiltonian                  GFN1-xTB          :
         :: total energy             -33.374506870346 Eh    ::
         :: gradient norm              0.000385373054 Eh/a0 ::
         :: HOMO-LUMO gap              3.145677984887 eV    ::
         :: SCC energy               -33.663825473142 Eh    ::
         :: -> Gsolv                  -0.092263572471 Eh    ::
         :: repulsion energy           0.297136140282 Eh    ::

    * Orbital Energies and Occupations

         #    Occupation            Energy/Eh            Energy/eV
      -------------------------------------------------------------
         1        2.0000           -0.9859065             -26.8279
       ...           ...                  ...                  ...
        15        2.0000           -0.6278928             -17.0858
        16        2.0000           -0.6100927             -16.6015
        17        2.0000           -0.6091453             -16.5757
        18        2.0000           -0.5954412             -16.2028
        19        2.0000           -0.5887416             -16.0205
        20        2.0000           -0.5742790             -15.6269
        21        2.0000           -0.5664396             -15.4136
        22        2.0000           -0.5528516             -15.0439
        23        2.0000           -0.5291175             -14.3980
        24        2.0000           -0.5273363             -14.3496
        25        2.0000           -0.5182620             -14.1026
        26        2.0000           -0.5180582             -14.0971
        27        2.0000           -0.5092765             -13.8581 (HOMO)
        28                         -0.3936749             -10.7124 (LUMO)
        29                         -0.3273464              -8.9075
        30                         -0.2837352              -7.7208
        31                         -0.2440901              -6.6420
        32                         -0.1956215              -5.3231
        33                         -0.1794022              -4.8818
        34                         -0.1317921              -3.5862
        35                         -0.1221527              -3.3239
        36                         -0.1194970              -3.2517
        37                         -0.1115866              -3.0364
        38                         -0.1110223              -3.0211
       ...                                ...                  ...
        57                          0.7018040              19.0971
      -------------------------------------------------------------
                  HL-Gap            0.1156015 Eh            3.1457 eV

Wiberg/Mayer (AO) data.
largest (>0.10) Wiberg bond orders for each atom

     #   Z sym  total        # sym  WBO       # sym  WBO       # sym  WBO
 ---------------------------------------------------------------------------
     1   6 C    3.965 --     2 C    1.047    12 H    0.968    13 H    0.946
                            11 H    0.946
     2   6 C    3.800 --     3 N    1.668     1 C    1.047     9 O    0.888
     3   7 N    3.024 --     2 C    1.668     4 N    1.172
     4   7 N    3.041 --     5 C    1.686     3 N    1.172
     5   6 C    3.814 --     4 N    1.686     6 C    1.005     9 O    0.879
     6   6 C    3.905 --     7 O    1.759     8 Cl   1.095     5 C    1.005
     7   8 O    2.058 --     6 C    1.759     8 Cl   0.169
     8  17 Cl   1.329 --     6 C    1.095     7 O    0.169
     9   8 O    2.658 --     2 C    0.888     5 C    0.879    10 C    0.740
    10   6 C    3.714 --    15 H    0.973    14 H    0.967    16 H    0.966
                             9 O    0.740
    11   1 H    0.986 --     1 C    0.946
    12   1 H    0.987 --     1 C    0.968
    13   1 H    0.986 --     1 C    0.946
    14   1 H    0.993 --    10 C    0.967
    15   1 H    0.988 --    10 C    0.973
    16   1 H    0.994 --    10 C    0.966
 ---------------------------------------------------------------------------

           -------------------------------------------------
          | TOTAL ENERGY              -33.374506870346 Eh   |
          | GRADIENT NORM               0.000385373054 Eh/α |
          | HOMO-LUMO GAP               3.145677984887 eV   |
           -------------------------------------------------

 * finished run on 2023/06/20 at 14:54:03.961
