   * xtb version 6.5.1 (579679a) compiled by 'ehlert@majestix' on 2022-07-11
          program call               : /lustre/hpc/kemi/ree/PhD/git/ReactivityQM/dep/xtb-6.5.1/bin/xtb --gfn 1 /lustre/hpc/kemi/ree/PhD/git/ReactivityQM/calculations/R02deprot/reac01prodE04/conf01/R02deprot_reac01prodE04_conf01_gfn1.xyz --opt --vfukui --chrg -2 --uhf 0 --alpb DMSO

   ID    Z sym.   atoms
    1    6 C      1, 3, 5, 6, 8-11, 13, 15, 18, 19, 22, 24
    2    8 O      2, 4, 14, 20, 23, 25
    3    7 N      7, 12, 16, 17, 21
    4    1 H      26-42

      * Solvation model:               ALPB
        Solvent                        DMSO
        Solvent mass                       7.8130E+01 g/mol
          :  Hamiltonian                  GFN1-xTB          :
 * total energy  :   -83.5731001 Eh     change       -0.1152500E-10 Eh
 * total energy  :   -83.5907254 Eh     change       -0.1762526E-01 Eh
 * total energy  :   -83.5974619 Eh     change       -0.6736514E-02 Eh
 * total energy  :   -83.5988398 Eh     change       -0.1377875E-02 Eh
 * total energy  :   -83.5995075 Eh     change       -0.6677479E-03 Eh
 * total energy  :   -83.5997765 Eh     change       -0.2689833E-03 Eh
 * total energy  :   -83.5999551 Eh     change       -0.1785565E-03 Eh
 * total energy  :   -83.6000954 Eh     change       -0.1403282E-03 Eh
 * total energy  :   -83.6002116 Eh     change       -0.1162121E-03 Eh
 * total energy  :   -83.6003177 Eh     change       -0.1061005E-03 Eh
 * total energy  :   -83.6022258 Eh     change       -0.1072611E-04 Eh
 * total energy  :   -83.6022324 Eh     change       -0.6640655E-05 Eh
 * total energy  :   -83.6022403 Eh     change       -0.7864966E-05 Eh
 * total energy  :   -83.6022449 Eh     change       -0.4629333E-05 Eh
 * total energy  :   -83.6022553 Eh     change       -0.1039836E-04 Eh
 * total energy  :   -83.6022624 Eh     change       -0.7108620E-05 Eh
 * total energy  :   -83.6022694 Eh     change       -0.7018716E-05 Eh
 * total energy  :   -83.6022745 Eh     change       -0.5026639E-05 Eh
 * total energy  :   -83.6022783 Eh     change       -0.3859101E-05 Eh
   *** GEOMETRY OPTIMIZATION CONVERGED AFTER 51 ITERATIONS ***

 final structure:
================
42
 xtb: 6.5.1 (579679a)
C           -2.99368096207036        2.52649770014276       -1.74870451349947
O           -2.43018877854087        1.40746363641726       -1.08014162056400
C           -2.97738101990145        1.09905911545521        0.12172858812048
O           -3.88451736176528        1.77209460087191        0.59373025922071
C           -2.47929306795386       -0.23573126349010        0.69959981598786
C           -2.64002291912311       -0.20560727173851        2.23189237545599
N           -1.09249787639355       -0.47729950030263        0.34965577760854
C           -0.85269965923644       -1.30016858358820       -0.64524595935612
C            0.62905076977869       -1.46818786381567       -1.02850780107612
C            1.06075640300471       -2.90773356562407       -0.70872702667048
C            0.79360205998545       -1.18309736680791       -2.52839879304438
N            1.40992397684329       -0.51846233414009       -0.24489248893168
C            2.74607981967219       -0.35023728859982       -0.31174709015371
O            3.50810280615405       -0.99861632643945       -1.04387073588657
C            3.20045808737761        0.71253212585187        0.58913070322109
N            2.44095354742603        1.44474212162149        1.37732767016055
N            3.27143577719783        2.32304437406458        2.01725493158115
C            4.47004611394451        2.08436898905530        1.59310031907881
C            5.71656914957557        2.78052669944792        1.99072422959814
O            4.51142361999902        1.08294213217174        0.69095843630747
N           -1.66920803293476       -2.04485815587800       -1.37490700519007
C           -3.02322369414322       -2.04688440939157       -1.01285686993199
O           -3.85139954426509       -2.83102854123626       -1.58157923233100
C           -3.40478149716372       -1.20334298489957        0.02892135468806
O           -4.74855151893103       -1.22170062671072        0.46052656512483
H           -2.47035790060225        2.63530785816728       -2.69784429984410
H           -4.06254260029280        2.37539523118142       -1.93069359303387
H           -2.86619072894499        3.43635842059875       -1.15337848658870
H           -3.66875321357997        0.03808780014146        2.49615782055401
H           -1.97354436764560        0.54124181586140        2.66336332537575
H           -2.38693722583349       -1.18182581159399        2.64358993399639
H            2.08127256126110       -3.09383552756809       -1.04179629062589
H            0.38695949351479       -3.59774810935534       -1.21817457466982
H            1.00219363111184       -3.08672127354089        0.36512620613288
H            0.56486430347984       -0.13769359024233       -2.73781780801049
H            1.80955732643010       -1.39517773159442       -2.85965091323543
H            0.09742250902246       -1.81334128704760       -3.08342794363455
H            0.86639522654986        0.04670043343713        0.40884741084715
H            6.42303835804834        2.07318801459803        2.42428153402921
H            6.18807575617687        3.23721990060469        1.12076791264012
H            5.48450782864272        3.55167496311310        2.72095045820780
H           -5.18691715587244       -1.86914551919879       -0.11842958165838

          :  Hamiltonian                  GFN1-xTB          :
         :: total energy             -83.602278325953 Eh    ::
         :: gradient norm              0.000472174413 Eh/a0 ::
         :: HOMO-LUMO gap              0.089630839000 eV    ::
         :: SCC energy               -84.326954158134 Eh    ::
         :: -> Gsolv                  -0.274459322198 Eh    ::
         :: repulsion energy           0.751135641815 Eh    ::

    * Orbital Energies and Occupations

         #    Occupation            Energy/Eh            Energy/eV
      -------------------------------------------------------------
         1        2.0000           -0.8246212             -22.4391
       ...           ...                  ...                  ...
        56        2.0000           -0.4405738             -11.9886
        57        2.0000           -0.4333282             -11.7915
        58        2.0000           -0.4238921             -11.5347
        59        2.0000           -0.4232755             -11.5179
        60        2.0000           -0.4214733             -11.4689
        61        2.0000           -0.4090678             -11.1313
        62        2.0000           -0.4033882             -10.9768
        63        2.0000           -0.3931421             -10.6979
        64        2.0000           -0.3831452             -10.4259
        65        2.0000           -0.3515670              -9.5666
        66        2.0000           -0.3242525              -8.8234
        67        2.0000           -0.3231209              -8.7926
        68        1.6997           -0.2769568              -7.5364 (HOMO)
        69        0.3003           -0.2736629              -7.4467 (LUMO)
        70                         -0.2269548              -6.1758
        71                         -0.2147231              -5.8429
        72                         -0.1702693              -4.6333
        73                         -0.1547577              -4.2112
        74                         -0.1314362              -3.5766
        75                         -0.1201049              -3.2682
        76                         -0.0942987              -2.5660
        77                         -0.0905648              -2.4644
        78                         -0.0878385              -2.3902
        79                         -0.0818587              -2.2275
       ...                                ...                  ...
       134                          0.7105035              19.3338
      -------------------------------------------------------------
                  HL-Gap            0.0032939 Eh            0.0896 eV

Wiberg/Mayer (AO) data.
largest (>0.10) Wiberg bond orders for each atom

     #   Z sym  total        # sym  WBO       # sym  WBO       # sym  WBO
 ---------------------------------------------------------------------------
     1   6 C    3.902 --    26 H    0.987    28 H    0.981    27 H    0.980
                             2 O    0.925
     2   8 O    2.157 --     3 C    1.054     1 C    0.925     4 O    0.108
     3   6 C    3.768 --     4 O    1.601     2 O    1.054     5 C    0.912
     4   8 O    1.865 --     3 C    1.601     2 O    0.108
     5   6 C    3.972 --     7 N    0.992     6 C    0.975    24 C    0.964
                             3 C    0.912
     6   6 C    3.983 --    30 H    0.988    31 H    0.988    29 H    0.986
                             5 C    0.975
     7   7 N    2.883 --     8 C    1.486     5 C    0.992    21 N    0.174
     8   6 C    3.958 --     7 N    1.486    21 N    1.400     9 C    0.953
     9   6 C    3.925 --    11 C    0.987    10 C    0.985     8 C    0.953
                            12 N    0.927
    10   6 C    3.994 --    34 H    0.987    33 H    0.985    32 H    0.985
                             9 C    0.985
    11   6 C    3.994 --     9 C    0.987    35 H    0.987    36 H    0.985
                            37 H    0.983
    12   7 N    3.308 --    13 C    1.246     9 C    0.927    38 H    0.880
                            14 O    0.162
    13   6 C    3.849 --    14 O    1.487    12 N    1.246    15 C    1.044
    14   8 O    1.770 --    13 C    1.487    12 N    0.162
    15   6 C    3.746 --    16 N    1.508    13 C    1.044    20 O    1.014
    16   7 N    2.864 --    15 C    1.508    17 N    1.184
    17   7 N    2.980 --    18 C    1.626    16 N    1.184
    18   6 C    3.844 --    17 N    1.626    20 O    1.064    19 C    1.026
    19   6 C    3.992 --    18 C    1.026    41 H    0.985    39 H    0.969
                            40 H    0.969
    20   8 O    2.243 --    18 C    1.064    15 C    1.014
    21   7 N    2.867 --     8 C    1.400    22 C    1.087     7 N    0.174
    22   6 C    3.912 --    23 O    1.356    24 C    1.349    21 N    1.087
    23   8 O    1.651 --    22 C    1.356    24 C    0.104
    24   6 C    3.601 --    22 C    1.349     5 C    0.964    25 O    0.954
                            23 O    0.104
    25   8 O    1.896 --    24 C    0.954    42 H    0.853
    26   1 H    1.016 --     1 C    0.987
    27   1 H    1.014 --     1 C    0.980
    28   1 H    1.015 --     1 C    0.981
    29   1 H    1.018 --     6 C    0.986
    30   1 H    1.013 --     6 C    0.988
    31   1 H    1.016 --     6 C    0.988
    32   1 H    1.016 --    10 C    0.985
    33   1 H    1.024 --    10 C    0.985
    34   1 H    1.009 --    10 C    0.987
    35   1 H    1.010 --    11 C    0.987
    36   1 H    1.017 --    11 C    0.985
    37   1 H    1.029 --    11 C    0.983
    38   1 H    1.001 --    12 N    0.880
    39   1 H    0.999 --    19 C    0.969
    40   1 H    1.000 --    19 C    0.969
    41   1 H    1.002 --    19 C    0.985
    42   1 H    0.905 --    25 O    0.853
 ---------------------------------------------------------------------------

           -------------------------------------------------
          | TOTAL ENERGY              -83.602278325953 Eh   |
          | GRADIENT NORM               0.000472174413 Eh/α |
          | HOMO-LUMO GAP               0.089630839000 eV   |
           -------------------------------------------------

 * finished run on 2023/06/20 at 17:37:45.205
