   * xtb version 6.5.1 (579679a) compiled by 'ehlert@majestix' on 2022-07-11
          program call               : /lustre/hpc/kemi/ree/PhD/git/ReactivityQM/dep/xtb-6.5.1/bin/xtb --gfn 1 /lustre/hpc/kemi/ree/PhD/git/ReactivityQM/calculations/R03/reac02prodE04/conf15/R03_reac02prodE04_conf15_gfn1.xyz --opt --vfukui --chrg -1 --uhf 0 --alpb DMSO

   ID    Z sym.   atoms
    1    6 C      1, 3, 5, 6, 8-11, 13, 15, 18, 19, 22, 23, 25
    2    8 O      2, 4, 14, 20, 24, 26
    3    7 N      7, 12, 16, 17, 21
    4    1 H      27-46

      * Solvation model:               ALPB
        Solvent                        DMSO
        Solvent mass                       7.8130E+01 g/mol
          :  Hamiltonian                  GFN1-xTB          :
 * total energy  :   -87.0246589 Eh     change       -0.1048903E-09 Eh
 * total energy  :   -87.0392358 Eh     change       -0.1457689E-01 Eh
 * total energy  :   -87.0449884 Eh     change       -0.5752655E-02 Eh
 * total energy  :   -87.0461772 Eh     change       -0.1188755E-02 Eh
 * total energy  :   -87.0471151 Eh     change       -0.9378677E-03 Eh
 * total energy  :   -87.0475382 Eh     change       -0.4231442E-03 Eh
 * total energy  :   -87.0478836 Eh     change       -0.3454202E-03 Eh
 * total energy  :   -87.0481308 Eh     change       -0.2471631E-03 Eh
 * total energy  :   -87.0482983 Eh     change       -0.1675052E-03 Eh
 * total energy  :   -87.0484323 Eh     change       -0.1340139E-03 Eh
 * total energy  :   -87.0512036 Eh     change       -0.2985266E-04 Eh
 * total energy  :   -87.0512227 Eh     change       -0.1910749E-04 Eh
 * total energy  :   -87.0512312 Eh     change       -0.8512287E-05 Eh
 * total energy  :   -87.0512426 Eh     change       -0.1140275E-04 Eh
 * total energy  :   -87.0512519 Eh     change       -0.9284075E-05 Eh
 * total energy  :   -87.0512584 Eh     change       -0.6568476E-05 Eh
 * total energy  :   -87.0512649 Eh     change       -0.6488588E-05 Eh
 * total energy  :   -87.0512713 Eh     change       -0.6354530E-05 Eh
 * total energy  :   -87.0512761 Eh     change       -0.4828071E-05 Eh
   *** GEOMETRY OPTIMIZATION CONVERGED AFTER 74 ITERATIONS ***

 final structure:
================
46
 xtb: 6.5.1 (579679a)
C           -3.62834457346811        2.01037221711439        2.81566794002635
O           -3.75007793993520        1.16815478558140        1.67226112859672
C           -2.60426290678648        0.85488003206086        1.03272932726965
O           -1.52672296650377        1.29350945852542        1.39049916282859
C           -2.80825661182290       -0.21581842949080       -0.04872380058102
C           -4.13350189025938       -0.03084959247869       -0.79594834973332
N           -1.71018350396031       -0.13746284693408       -1.00003226913844
C           -0.60442573493796       -0.74980949484047       -0.76031394795495
C            0.50015675657286       -0.49944638449338       -1.79739666229896
C            0.01660010352033        0.54157411914498       -2.81849574531157
C            0.86119289584228       -1.79797161926961       -2.53268461566186
N            1.66567308685656        0.06308232769290       -1.09683295303854
C            2.84784679842726        0.30124231295044       -1.69022691465919
O            3.14668264732383        0.00230811576809       -2.83845868931415
C            3.82491248680410        0.96786899437446       -0.78840678566350
N            5.03361351856028        1.34335084300241       -1.07938947942537
N            5.55503209995770        1.90276076205657        0.05049457899905
C            4.63425632810580        1.83303646494804        0.96036419839345
C            4.71152356105846        2.30290302543288        2.36092655904653
O            3.51421142676748        1.25395820387508        0.49570230108824
N           -0.40342267304819       -1.57138707499903        0.30635029756790
C            0.82437343678804       -2.29873632550571        0.59992888302289
C           -1.57529353298121       -2.14893925211533        0.97659890268216
O           -1.40148233452217       -3.20258027045737        1.65469656822212
C           -2.74030923444145       -1.49059819345002        0.74003089974531
O           -3.95142217451450       -1.95217860508676        1.30734565017873
H           -3.26910647383348        3.00130097985078        2.52250560664236
H           -2.92985932315180        1.57852813954039        3.53877145075837
H           -4.62033702463942        2.09265481643664        3.25760888210484
H           -4.97214761150987       -0.09523488988747       -0.10459774370118
H           -4.15014842411424        0.93963558032178       -1.29082679312291
H           -4.23451198983776       -0.81138827044441       -1.54938145266137
H            0.80583500425497        0.74885411232078       -3.53936894453837
H           -0.25859171761487        1.46540388698914       -2.31156320245789
H           -0.85621117717442        0.15927658407363       -3.34495503934525
H            1.40762781814323       -1.57746336762034       -3.44813587065376
H           -0.05603778791133       -2.32466634480966       -2.79483460271397
H            1.47778351167820       -2.44810423780610       -1.91709917465865
H            1.50304232286739        0.47243181105741       -0.18821990054272
H            5.69184930745056        2.73467098327078        2.54586647108515
H            4.54511901441131        1.47033335747650        3.04412368836704
H            3.94239334585377        3.05224130644792        2.54740094653856
H            0.81546126610560       -3.28639170295874        0.12883577571752
H            1.69824199856667       -1.74344594802330        0.27182339312013
H            0.88528996156306       -2.43936099615359        1.68142550566880
H           -3.72406109051991       -2.73249737348740        1.83393281949607

          :  Hamiltonian                  GFN1-xTB          :
         :: total energy             -87.051276112468 Eh    ::
         :: gradient norm              0.000674677739 Eh/a0 ::
         :: HOMO-LUMO gap              0.242473050254 eV    ::
         :: SCC energy               -87.849041158791 Eh    ::
         :: -> Gsolv                  -0.112548457216 Eh    ::
         :: repulsion energy           0.827884231644 Eh    ::

    * Orbital Energies and Occupations

         #    Occupation            Energy/Eh            Energy/eV
      -------------------------------------------------------------
         1        2.0000           -0.8579604             -23.3463
       ...           ...                  ...                  ...
        59        2.0000           -0.4716245             -12.8336
        60        2.0000           -0.4666868             -12.6992
        61        2.0000           -0.4624301             -12.5834
        62        2.0000           -0.4556214             -12.3981
        63        2.0000           -0.4519245             -12.2975
        64        2.0000           -0.4506662             -12.2633
        65        2.0000           -0.4423846             -12.0379
        66        2.0000           -0.4351524             -11.8411
        67        2.0000           -0.4311931             -11.7334
        68        2.0000           -0.3931315             -10.6977
        69        2.0000           -0.3844741             -10.4621
        70        2.0000           -0.3718567             -10.1187
        71        1.9818           -0.3098575              -8.4317 (HOMO)
        72        0.0182           -0.3009467              -8.1892 (LUMO)
        73                         -0.2507424              -6.8230
        74                         -0.2337177              -6.3598
        75                         -0.2192348              -5.9657
        76                         -0.1889532              -5.1417
        77                         -0.1393110              -3.7908
        78                         -0.1306065              -3.5540
        79                         -0.1266885              -3.4474
        80                         -0.1147272              -3.1219
        81                         -0.1071922              -2.9168
        82                         -0.1007057              -2.7403
       ...                                ...                  ...
       144                          0.7300194              19.8648
      -------------------------------------------------------------
                  HL-Gap            0.0089107 Eh            0.2425 eV

Wiberg/Mayer (AO) data.
largest (>0.10) Wiberg bond orders for each atom

     #   Z sym  total        # sym  WBO       # sym  WBO       # sym  WBO
 ---------------------------------------------------------------------------
     1   6 C    3.890 --    29 H    0.987    27 H    0.981    28 H    0.981
                             2 O    0.912
     2   8 O    2.173 --     3 C    1.071     1 C    0.912     4 O    0.116
     3   6 C    3.812 --     4 O    1.633     2 O    1.071     5 C    0.917
     4   8 O    1.893 --     3 C    1.633     2 O    0.116
     5   6 C    3.966 --     6 C    0.989     7 N    0.974    25 C    0.956
                             3 C    0.917
     6   6 C    3.996 --     5 C    0.989    31 H    0.988    32 H    0.987
                            30 H    0.985
     7   7 N    2.977 --     8 C    1.647     5 C    0.974    21 N    0.173
     8   6 C    3.950 --     7 N    1.647    21 N    1.201     9 C    0.961
     9   6 C    3.926 --    10 C    0.992    11 C    0.990     8 C    0.961
                            12 N    0.911
    10   6 C    3.993 --     9 C    0.992    35 H    0.985    34 H    0.984
                            33 H    0.984
    11   6 C    3.992 --     9 C    0.990    37 H    0.986    38 H    0.982
                            36 H    0.981
    12   7 N    3.371 --    13 C    1.275     9 C    0.911    39 H    0.899
                            14 O    0.179
    13   6 C    3.915 --    14 O    1.566    12 N    1.275    15 C    0.990
    14   8 O    1.882 --    13 C    1.566    12 N    0.179
    15   6 C    3.862 --    16 N    1.618    20 O    1.046    13 C    0.990
    16   7 N    2.986 --    15 C    1.618    17 N    1.194
    17   7 N    2.980 --    18 C    1.615    16 N    1.194
    18   6 C    3.868 --    17 N    1.615    20 O    1.072    19 C    1.031
    19   6 C    3.987 --    18 C    1.031    40 H    0.983    41 H    0.964
                            42 H    0.964
    20   8 O    2.312 --    18 C    1.072    15 C    1.046
    21   7 N    3.364 --     8 C    1.201    22 C    0.957    23 C    0.894
                             7 N    0.173
    22   6 C    3.958 --    44 H    0.982    45 H    0.980    43 H    0.979
                            21 N    0.957
    23   6 C    3.915 --    25 C    1.511    24 O    1.361    21 N    0.894
    24   8 O    1.721 --    23 C    1.361    25 C    0.164
    25   6 C    3.789 --    23 C    1.511     5 C    0.956    26 O    0.949
                            24 O    0.164
    26   8 O    1.919 --    25 C    0.949    46 H    0.855
    27   1 H    1.011 --     1 C    0.981
    28   1 H    1.011 --     1 C    0.981
    29   1 H    1.014 --     1 C    0.987
    30   1 H    1.016 --     6 C    0.985
    31   1 H    1.010 --     6 C    0.988
    32   1 H    1.012 --     6 C    0.987
    33   1 H    1.009 --    10 C    0.984
    34   1 H    1.018 --    10 C    0.984
    35   1 H    1.018 --    10 C    0.985
    36   1 H    1.015 --    11 C    0.981
    37   1 H    1.004 --    11 C    0.986
    38   1 H    1.006 --    11 C    0.982
    39   1 H    0.948 --    12 N    0.899
    40   1 H    0.999 --    19 C    0.983
    41   1 H    0.997 --    19 C    0.964
    42   1 H    0.997 --    19 C    0.964
    43   1 H    1.015 --    22 C    0.979
    44   1 H    1.013 --    22 C    0.982
    45   1 H    1.022 --    22 C    0.980
    46   1 H    0.890 --    26 O    0.855
 ---------------------------------------------------------------------------

           -------------------------------------------------
          | TOTAL ENERGY              -87.051276112468 Eh   |
          | GRADIENT NORM               0.000674677739 Eh/α |
          | HOMO-LUMO GAP               0.242473050254 eV   |
           -------------------------------------------------

 * finished run on 2023/06/20 at 15:18:02.243
