   * xtb version 6.5.1 (579679a) compiled by 'ehlert@majestix' on 2022-07-11
          program call               : /lustre/hpc/kemi/ree/PhD/git/ReactivityQM/dep/xtb-6.5.1/bin/xtb --gfn 1 /lustre/hpc/kemi/ree/PhD/git/ReactivityQM/calculations/R01/reac02prodE07/conf10/R01_reac02prodE07_conf10_gfn1.xyz --opt --vfukui --chrg -1 --uhf 0 --alpb DMSO

   ID    Z sym.   atoms
    1    6 C      1, 3, 5, 6, 8, 10, 12-15
    2    8 O      2, 4, 7, 9
    3    7 N      11, 16, 17
    4    1 H      18-33

      * Solvation model:               ALPB
        Solvent                        DMSO
        Solvent mass                       7.8130E+01 g/mol
          :  Hamiltonian                  GFN1-xTB          :
 * total energy  :   -58.4915669 Eh     change       -0.2835066E-11 Eh
 * total energy  :   -58.5082278 Eh     change       -0.1666088E-01 Eh
 * total energy  :   -58.5133984 Eh     change       -0.5170597E-02 Eh
 * total energy  :   -58.5143187 Eh     change       -0.9202535E-03 Eh
 * total energy  :   -58.5148503 Eh     change       -0.5316823E-03 Eh
 * total energy  :   -58.5150001 Eh     change       -0.1497224E-03 Eh
 * total energy  :   -58.5150905 Eh     change       -0.9039144E-04 Eh
 * total energy  :   -58.5151680 Eh     change       -0.7755612E-04 Eh
 * total energy  :   -58.5152706 Eh     change       -0.1025778E-03 Eh
 * total energy  :   -58.5154322 Eh     change       -0.1615835E-03 Eh
 * total energy  :   -58.5192374 Eh     change       -0.3053812E-04 Eh
 * total energy  :   -58.5192587 Eh     change       -0.2127693E-04 Eh
 * total energy  :   -58.5192825 Eh     change       -0.2383489E-04 Eh
 * total energy  :   -58.5193115 Eh     change       -0.2893071E-04 Eh
 * total energy  :   -58.5193096 Eh     change        0.1896987E-05 Eh
 * total energy  :   -58.5193344 Eh     change       -0.2480614E-04 Eh
 * total energy  :   -58.5193415 Eh     change       -0.7174181E-05 Eh
 * total energy  :   -58.5193479 Eh     change       -0.6409671E-05 Eh
 * total energy  :   -58.5193512 Eh     change       -0.3223855E-05 Eh
   *** GEOMETRY OPTIMIZATION CONVERGED AFTER 36 ITERATIONS ***

 final structure:
================
33
 xtb: 6.5.1 (579679a)
C            4.50616092469826       -1.88413849563730        0.93511083155038
O            3.50036489366032       -0.94949427808252        0.59332960567582
C            2.19560088447965       -1.51214594520605        0.46836611339314
O            2.06949307536147       -2.73800434545359        0.67586566357720
C            1.21020893853639       -0.58610609099133        0.15286411966607
C            1.38102554064876        0.83120648939038       -0.16313469915632
O            2.62126102467246        1.36087353605766       -0.46349418000815
C            0.29781977413162        1.61974238303881       -0.27765935790673
O            0.27418176923433        2.93672640667514       -0.71637230445534
C            0.89303025466499        3.89206760008748        0.13528871571611
N           -1.00564477091119        1.10822905832993        0.05900855888911
C           -1.09892625957958       -0.30220459663617       -0.09347614312892
C           -2.49470647715923       -0.86564276828115       -0.31719728412035
C           -3.46581846665686       -0.36598252659481        0.75976859518853
C           -3.00256792123941       -0.46767122583759       -1.71221350180388
N           -2.45005211664805       -2.32572074119857       -0.25461480689985
N           -0.10631201238646       -1.08740763473189       -0.00422124793575
H            4.28400508309904       -2.37566371159594        1.89115408941974
H            5.44603826666723       -1.33756160666081        1.02427635250627
H            4.61128963017934       -2.65727118575851        0.16303462199151
H            3.31512017933868        0.73451169436332       -0.18952211123146
H            1.97584662211732        3.72553142287290        0.19826467741982
H            0.46789393524086        3.86126633760202        1.14681923961185
H            0.70696419390923        4.87470576496431       -0.30090241973638
H           -1.73093028766215        1.62119260072543       -0.42750806613872
H           -3.55855018639386        0.71833694767718        0.71935436913132
H           -3.11075478576722       -0.64839082773110        1.75102814005808
H           -4.44992502973702       -0.80758273742833        0.60296799080146
H           -3.13299938313753        0.61140819040032       -1.78108888197595
H           -2.29091582460172       -0.78462629703214       -2.47482834486787
H           -3.96091958072229       -0.94922396188047       -1.90595141150238
H           -1.71448111651534       -2.64850859301031       -0.87867715562081
H           -2.18280177152254       -2.60245486243617        0.68436023189282

          :  Hamiltonian                  GFN1-xTB          :
         :: total energy             -58.519351170900 Eh    ::
         :: gradient norm              0.000781209019 Eh/a0 ::
         :: HOMO-LUMO gap              2.266759179563 eV    ::
         :: SCC energy               -59.056360225745 Eh    ::
         :: -> Gsolv                  -0.101076289156 Eh    ::
         :: repulsion energy           0.555083473703 Eh    ::

    * Orbital Energies and Occupations

         #    Occupation            Energy/Eh            Energy/eV
      -------------------------------------------------------------
         1        2.0000           -0.7657779             -20.8379
       ...           ...                  ...                  ...
        36        2.0000           -0.4733664             -12.8810
        37        2.0000           -0.4700769             -12.7914
        38        2.0000           -0.4557379             -12.4013
        39        2.0000           -0.4544122             -12.3652
        40        2.0000           -0.4537199             -12.3463
        41        2.0000           -0.4321960             -11.7607
        42        2.0000           -0.4295916             -11.6898
        43        2.0000           -0.4121699             -11.2157
        44        2.0000           -0.3929269             -10.6921
        45        2.0000           -0.3859703             -10.5028
        46        2.0000           -0.3800920             -10.3428
        47        2.0000           -0.3695034             -10.0547
        48        2.0000           -0.2926634              -7.9638 (HOMO)
        49                         -0.2093615              -5.6970 (LUMO)
        50                         -0.1818769              -4.9491
        51                         -0.1153131              -3.1378
        52                         -0.1124088              -3.0588
        53                         -0.1078611              -2.9351
        54                         -0.1057793              -2.8784
        55                         -0.0901251              -2.4524
        56                         -0.0815699              -2.2196
        57                         -0.0696326              -1.8948
        58                         -0.0560940              -1.5264
        59                         -0.0538900              -1.4664
       ...                                ...                  ...
       100                          0.7307298              19.8842
      -------------------------------------------------------------
                  HL-Gap            0.0833019 Eh            2.2668 eV

Wiberg/Mayer (AO) data.
largest (>0.10) Wiberg bond orders for each atom

     #   Z sym  total        # sym  WBO       # sym  WBO       # sym  WBO
 ---------------------------------------------------------------------------
     1   6 C    3.915 --    19 H    0.987    20 H    0.981    18 H    0.981
                             2 O    0.944
     2   8 O    2.071 --     1 C    0.944     3 C    0.895
     3   6 C    3.869 --     4 O    1.433     5 C    1.385     2 O    0.895
     4   8 O    1.753 --     3 C    1.433     5 C    0.131
     5   6 C    3.842 --     3 C    1.385     6 C    1.081    17 N    1.049
                             4 O    0.131
     6   6 C    3.897 --     8 C    1.654     5 C    1.081     7 O    0.999
     7   8 O    1.977 --     6 C    0.999    21 H    0.825
     8   6 C    3.829 --     6 C    1.654    11 N    0.964     9 O    0.954
     9   8 O    2.024 --     8 C    0.954    10 C    0.933
    10   6 C    3.916 --    24 H    0.986    23 H    0.983    22 H    0.981
                             9 O    0.933
    11   7 N    3.166 --    12 C    1.015     8 C    0.964    25 H    0.927
                            17 N    0.101
    12   6 C    3.943 --    17 N    1.748    11 N    1.015    13 C    0.968
    13   6 C    3.967 --    14 C    0.992    15 C    0.987    16 N    0.986
                            12 C    0.968
    14   6 C    3.995 --    13 C    0.992    28 H    0.987    27 H    0.986
                            26 H    0.986
    15   6 C    3.994 --    13 C    0.987    30 H    0.986    31 H    0.986
                            29 H    0.985
    16   7 N    2.951 --    13 C    0.986    33 H    0.950    32 H    0.946
    17   7 N    3.045 --    12 C    1.748     5 C    1.049    11 N    0.101
    18   1 H    1.022 --     1 C    0.981
    19   1 H    1.019 --     1 C    0.987
    20   1 H    1.021 --     1 C    0.981
    21   1 H    0.891 --     7 O    0.825
    22   1 H    1.025 --    10 C    0.981
    23   1 H    1.014 --    10 C    0.983
    24   1 H    1.019 --    10 C    0.986
    25   1 H    0.972 --    11 N    0.927
    26   1 H    1.007 --    14 C    0.986
    27   1 H    1.005 --    14 C    0.986
    28   1 H    1.007 --    14 C    0.987
    29   1 H    1.005 --    15 C    0.985
    30   1 H    1.006 --    15 C    0.986
    31   1 H    1.009 --    15 C    0.986
    32   1 H    0.983 --    16 N    0.946
    33   1 H    0.975 --    16 N    0.950
 ---------------------------------------------------------------------------

           -------------------------------------------------
          | TOTAL ENERGY              -58.519351170900 Eh   |
          | GRADIENT NORM               0.000781209019 Eh/α |
          | HOMO-LUMO GAP               2.266759179563 eV   |
           -------------------------------------------------

 * finished run on 2023/06/20 at 15:01:50.801
