   * xtb version 6.5.1 (579679a) compiled by 'ehlert@majestix' on 2022-07-11
          program call               : /lustre/hpc/kemi/ree/PhD/git/ReactivityQM/dep/xtb-6.5.1/bin/xtb --gfn 1 /lustre/hpc/kemi/ree/PhD/git/ReactivityQM/calculations/R01/reac02prodN11/conf08/R01_reac02prodN11_conf08_gfn1.xyz --opt --vfukui --chrg 1 --uhf 0 --alpb DMSO

   ID    Z sym.   atoms
    1    6 C      1, 3, 5, 6, 8, 11-15
    2    8 O      2, 4, 7, 9
    3    7 N      10, 16, 17
    4    1 H      18-33

      * Solvation model:               ALPB
        Solvent                        DMSO
        Solvent mass                       7.8130E+01 g/mol
          :  Hamiltonian                  GFN1-xTB          :
 * total energy  :   -57.7948111 Eh     change       -0.3030465E-10 Eh
 * total energy  :   -57.8059155 Eh     change       -0.1110441E-01 Eh
 * total energy  :   -57.8098840 Eh     change       -0.3968447E-02 Eh
 * total energy  :   -57.8107425 Eh     change       -0.8584930E-03 Eh
 * total energy  :   -57.8112045 Eh     change       -0.4620345E-03 Eh
 * total energy  :   -57.8113945 Eh     change       -0.1899538E-03 Eh
 * total energy  :   -57.8115493 Eh     change       -0.1548181E-03 Eh
 * total energy  :   -57.8116706 Eh     change       -0.1213242E-03 Eh
 * total energy  :   -57.8117646 Eh     change       -0.9403042E-04 Eh
 * total energy  :   -57.8118307 Eh     change       -0.6608828E-04 Eh
 * total energy  :   -57.8668875 Eh     change       -0.9420255E-05 Eh
 * total energy  :   -57.8669021 Eh     change       -0.1456986E-04 Eh
 * total energy  :   -57.8669135 Eh     change       -0.1138757E-04 Eh
 * total energy  :   -57.8669214 Eh     change       -0.7942924E-05 Eh
 * total energy  :   -57.8669291 Eh     change       -0.7697554E-05 Eh
 * total energy  :   -57.8669370 Eh     change       -0.7943957E-05 Eh
 * total energy  :   -57.8669434 Eh     change       -0.6364845E-05 Eh
 * total energy  :   -57.8669493 Eh     change       -0.5935251E-05 Eh
 * total energy  :   -57.8669528 Eh     change       -0.3431120E-05 Eh
   *** GEOMETRY OPTIMIZATION CONVERGED AFTER 85 ITERATIONS ***

 final structure:
================
33
 xtb: 6.5.1 (579679a)
C            4.35290406236038        1.79052198388860        0.21958858164638
O            3.07764862927026        1.14489261166610        0.12371068343571
C            3.08514755671834       -0.13428721092502       -0.24911280147492
O            4.09276472428467       -0.74936454369603       -0.50155021350744
C            1.70483150553210       -0.70128010103084       -0.31605475094640
C            1.41792612625706       -1.98270857552350       -0.69454525439159
O            2.32745051439298       -2.88842441417039       -1.04572863005202
C            0.03228204991027       -2.43824786750464       -0.72816719410927
O           -0.25737541743934       -3.58142914502752       -1.04915347088235
N           -0.92680147769584       -1.49005822512596       -0.38507055351996
C           -2.30691373266095       -1.97057091687004       -0.43219139661669
C           -0.55119096949911       -0.22718686545124        0.00678725300153
C           -1.53111502935908        0.88424100815788        0.36432500901028
C           -2.22966473923719        1.44671317219632       -0.87471673537113
C           -0.78355024672076        1.99970322727353        1.10018588978181
N           -2.59358527027093        0.40563497309192        1.32889192386791
N            0.68487065400783        0.14202034697104        0.03081857816108
H            4.84749671831201        1.78940860341359       -0.75525644071648
H            4.98209505446351        1.27210620721740        0.94780022211784
H            4.15818968626966        2.81041253857462        0.54496112090717
H            1.87564630363982       -3.72465251991041       -1.26678313001263
H           -2.19375442916584       -0.15296159436136        2.07563518762183
H           -2.32043370964562       -2.88014272323807       -1.03280789728029
H           -2.94952511126312       -1.22839969381482       -0.89250224221797
H           -2.64814435032094       -2.20406306347229        0.57407621354036
H           -2.87239324263708        2.27741172924210       -0.58834574248177
H           -2.83396197426723        0.69337007656943       -1.37396646716657
H           -1.47373514307681        1.80788417217032       -1.57159082859117
H           -0.30253029884768        1.60613550058948        1.99369413618610
H           -1.47946547297899        2.78775378047399        1.38060536385297
H           -0.01902683901625        2.41646107607910        0.44656041874422
H           -3.04628022014564        1.21061599810059        1.75046910030824
H           -3.31980691117165       -0.13150854555413        0.86943406716353

          :  Hamiltonian                  GFN1-xTB          :
         :: total energy             -57.866952773890 Eh    ::
         :: gradient norm              0.000656563878 Eh/a0 ::
         :: HOMO-LUMO gap              2.953444915940 eV    ::
         :: SCC energy               -58.446381135003 Eh    ::
         :: -> Gsolv                  -0.137968017330 Eh    ::
         :: repulsion energy           0.598754580854 Eh    ::

    * Orbital Energies and Occupations

         #    Occupation            Energy/Eh            Energy/eV
      -------------------------------------------------------------
         1        2.0000           -0.8981804             -24.4407
       ...           ...                  ...                  ...
        35        2.0000           -0.5532582             -15.0549
        36        2.0000           -0.5483914             -14.9225
        37        2.0000           -0.5465793             -14.8732
        38        2.0000           -0.5452432             -14.8368
        39        2.0000           -0.5348196             -14.5532
        40        2.0000           -0.5290215             -14.3954
        41        2.0000           -0.5202755             -14.1574
        42        2.0000           -0.5034060             -13.6984
        43        2.0000           -0.4961166             -13.5000
        44        2.0000           -0.4927190             -13.4076
        45        2.0000           -0.4791019             -13.0370
        46        2.0000           -0.4629557             -12.5977
        47        2.0000           -0.4464713             -12.1491 (HOMO)
        48                         -0.3379341              -9.1957 (LUMO)
        49                         -0.3075811              -8.3697
        50                         -0.2529037              -6.8819
        51                         -0.2086975              -5.6789
        52                         -0.1753686              -4.7720
        53                         -0.1717296              -4.6730
        54                         -0.1599601              -4.3527
        55                         -0.1469512              -3.9987
        56                         -0.1423770              -3.8743
        57                         -0.1367881              -3.7222
        58                         -0.1194371              -3.2500
       ...                                ...                  ...
       100                          0.7370929              20.0573
      -------------------------------------------------------------
                  HL-Gap            0.1085371 Eh            2.9534 eV

Wiberg/Mayer (AO) data.
largest (>0.10) Wiberg bond orders for each atom

     #   Z sym  total        # sym  WBO       # sym  WBO       # sym  WBO
 ---------------------------------------------------------------------------
     1   6 C    3.867 --    20 H    0.986    19 H    0.979    18 H    0.979
                             2 O    0.893
     2   8 O    2.201 --     3 C    1.116     1 C    0.893     4 O    0.137
     3   6 C    3.855 --     4 O    1.667     2 O    1.116     5 C    0.995
     4   8 O    1.932 --     3 C    1.667     2 O    0.137
     5   6 C    3.959 --     6 C    1.491    17 N    1.182     3 C    0.995
     6   6 C    3.922 --     5 C    1.491     7 O    1.127     8 C    1.065
     7   8 O    2.103 --     6 C    1.127    21 H    0.800
     8   6 C    3.910 --     9 O    1.579    10 N    1.116     6 C    1.065
     9   8 O    1.926 --     8 C    1.579    10 N    0.135
    10   7 N    3.499 --    12 C    1.163     8 C    1.116    11 C    0.928
                             9 O    0.135
    11   6 C    3.917 --    24 H    0.974    25 H    0.974    23 H    0.966
                            10 N    0.928
    12   6 C    3.942 --    17 N    1.587    10 N    1.163    13 C    0.979
    13   6 C    3.884 --    15 C    1.000    14 C    0.990    12 C    0.979
                            16 N    0.874
    14   6 C    3.981 --    13 C    0.990    26 H    0.979    28 H    0.976
                            27 H    0.975
    15   6 C    3.981 --    13 C    1.000    29 H    0.982    30 H    0.981
                            31 H    0.975
    16   7 N    3.564 --    22 H    0.887    33 H    0.887    32 H    0.883
                            13 C    0.874
    17   7 N    3.040 --    12 C    1.587     5 C    1.182
    18   1 H    1.006 --     1 C    0.979
    19   1 H    1.006 --     1 C    0.979
    20   1 H    1.010 --     1 C    0.986
    21   1 H    0.840 --     7 O    0.800
    22   1 H    0.905 --    16 N    0.887
    23   1 H    1.000 --    11 C    0.966
    24   1 H    1.000 --    11 C    0.974
    25   1 H    0.995 --    11 C    0.974
    26   1 H    0.992 --    14 C    0.979
    27   1 H    0.997 --    14 C    0.975
    28   1 H    0.995 --    14 C    0.976
    29   1 H    1.000 --    15 C    0.982
    30   1 H    0.995 --    15 C    0.981
    31   1 H    1.009 --    15 C    0.975
    32   1 H    0.904 --    16 N    0.883
    33   1 H    0.919 --    16 N    0.887
 ---------------------------------------------------------------------------

           -------------------------------------------------
          | TOTAL ENERGY              -57.866952773890 Eh   |
          | GRADIENT NORM               0.000656563878 Eh/α |
          | HOMO-LUMO GAP               2.953444915940 eV   |
           -------------------------------------------------

 * finished run on 2023/06/20 at 15:11:38.147
