                         Program Version 5.0.1 -  RELEASE  -
|  1> # ORCA input file
|  2> ! SP r2SCAN-3c CPCM
|  3>
|  4> %maxcore 1875.0
|  5> %pal nprocs 4 end
|  6> %cpcm smd true SMDsolvent "DMSO" end
|  7>
|  8> *xyz -2 1
|  9> C      -5.682065   -2.395068    0.739370
| 10> O      -4.402779   -1.804742    0.583629
| 11> C      -4.365553   -0.442264    0.646999
| 12> O      -5.414737    0.189277    0.825389
| 13> C      -3.046259    0.132005    0.499560
| 14> C      -2.853616    1.489098    0.561477
| 15> O      -3.879074    2.366632    0.720771
| 16> C      -1.427932    2.139621    0.582540
| 17> C      -1.417419    3.213244   -0.583925
| 18> O      -1.136129    2.646822    1.761372
| 19> N      -0.441602    1.086309    0.122670
| 20> C      -0.800469   -0.159184    0.083054
| 21> C       0.318040   -1.164396   -0.275497
| 22> C       0.124974   -1.634952   -1.724143
| 23> C       0.289070   -2.357760    0.685639
| 24> N       1.576189   -0.435513   -0.149690
| 25> C       2.799824   -0.930577   -0.309330
| 26> O       3.082054   -2.093796   -0.599395
| 27> C       3.841775    0.107631   -0.067013
| 28> N       3.633289    1.343882    0.282560
| 29> N       4.861213    1.927722    0.424246
| 30> C       5.737236    1.013699    0.154972
| 31> C       7.211589    1.146510    0.172642
| 32> O       5.164771   -0.159728   -0.163136
| 33> N      -1.985773   -0.747990    0.266820
| 34> H      -6.371480   -2.043372   -0.035064
| 35> H      -6.106296   -2.154662    1.720066
| 36> H      -5.552553   -3.473394    0.651304
| 37> H      -4.729038    1.880622    0.782609
| 38> H      -1.675104    2.753140   -1.538017
| 39> H      -0.419002    3.645212   -0.649839
| 40> H      -2.132165    4.002863   -0.353351
| 41> H       0.872443   -2.379559   -1.997800
| 42> H      -0.868185   -2.073782   -1.822392
| 43> H       0.204958   -0.788577   -2.406891
| 44> H       0.537111   -2.034221    1.697323
| 45> H       0.993872   -3.130101    0.379157
| 46> H      -0.718291   -2.775901    0.689092
| 47> H       1.430364    0.569794    0.028863
| 48> H       7.623516    0.891238   -0.802824
| 49> H       7.482624    2.168322    0.425228
| 50> H       7.640612    0.465900    0.907475
| 51> **                         ****END OF INPUT****

CARTESIAN COORDINATES (ANGSTROEM)
---------------------------------
  C     -5.682065   -2.395068    0.739370
  O     -4.402779   -1.804742    0.583629
  C     -4.365553   -0.442264    0.646999
  O     -5.414737    0.189277    0.825389
  C     -3.046259    0.132005    0.499560
  C     -2.853616    1.489098    0.561477
  O     -3.879074    2.366632    0.720771
  C     -1.427932    2.139621    0.582540
  C     -1.417419    3.213244   -0.583925
  O     -1.136129    2.646822    1.761372
  N     -0.441602    1.086309    0.122670
  C     -0.800469   -0.159184    0.083054
  C      0.318040   -1.164396   -0.275497
  C      0.124974   -1.634952   -1.724143
  C      0.289070   -2.357760    0.685639
  N      1.576189   -0.435513   -0.149690
  C      2.799824   -0.930577   -0.309330
  O      3.082054   -2.093796   -0.599395
  C      3.841775    0.107631   -0.067013
  N      3.633289    1.343882    0.282560
  N      4.861213    1.927722    0.424246
  C      5.737236    1.013699    0.154972
  C      7.211589    1.146510    0.172642
  O      5.164771   -0.159728   -0.163136
  N     -1.985773   -0.747990    0.266820
  H     -6.371480   -2.043372   -0.035064
  H     -6.106296   -2.154662    1.720066
  H     -5.552553   -3.473394    0.651304
  H     -4.729038    1.880622    0.782609
  H     -1.675104    2.753140   -1.538017
  H     -0.419002    3.645212   -0.649839
  H     -2.132165    4.002863   -0.353351
  H      0.872443   -2.379559   -1.997800
  H     -0.868185   -2.073782   -1.822392
  H      0.204958   -0.788577   -2.406891
  H      0.537111   -2.034221    1.697323
  H      0.993872   -3.130101    0.379157
  H     -0.718291   -2.775901    0.689092
  H      1.430364    0.569794    0.028863
  H      7.623516    0.891238   -0.802824
  H      7.482624    2.168322    0.425228
  H      7.640612    0.465900    0.907475

 Total Charge           Charge          ....   -2
 Multiplicity           Mult            ....    1
 Number of Electrons    NEL             ....  186
 Basis Dimension        Dim             ....  615

ORBITAL ENERGIES
----------------

  NO   OCC          E(Eh)            E(eV)
   0   2.0000     -19.054022      -518.4863
   1   2.0000     -18.971471      -516.2400
   2   2.0000     -18.944532      -515.5069
   3   2.0000     -18.914480      -514.6892
   4   2.0000     -18.910412      -514.5785
   5   2.0000     -18.800593      -511.5901
   6   2.0000     -14.193973      -386.2377
   7   2.0000     -14.188554      -386.0902
   8   2.0000     -14.164931      -385.4474
   9   2.0000     -14.071585      -382.9073
  10   2.0000     -14.069504      -382.8507
  11   2.0000     -10.136953      -275.8405
  12   2.0000     -10.133094      -275.7355
  13   2.0000     -10.131940      -275.7041
  14   2.0000     -10.126947      -275.5682
  15   2.0000     -10.061322      -273.7825
  16   2.0000     -10.057882      -273.6889
  17   2.0000     -10.051193      -273.5069
  18   2.0000     -10.050072      -273.4763
  19   2.0000     -10.040121      -273.2056
  20   2.0000     -10.031972      -272.9838
  21   2.0000     -10.016770      -272.5702
  22   2.0000     -10.001751      -272.1615
  23   2.0000      -9.997273      -272.0396
  24   2.0000      -9.974372      -271.4165
  25   2.0000      -1.141520       -31.0624
  26   2.0000      -1.041742       -28.3472
  27   2.0000      -0.994839       -27.0709
  28   2.0000      -0.988160       -26.8892
  29   2.0000      -0.963748       -26.2249
  30   2.0000      -0.949377       -25.8339
  31   2.0000      -0.892627       -24.2896
  32   2.0000      -0.869161       -23.6511
  33   2.0000      -0.838340       -22.8124
  34   2.0000      -0.819138       -22.2899
  35   2.0000      -0.759460       -20.6660
  36   2.0000      -0.734868       -19.9968
  37   2.0000      -0.703535       -19.1442
  38   2.0000      -0.684325       -18.6214
  39   2.0000      -0.660178       -17.9644
  40   2.0000      -0.648582       -17.6488
  41   2.0000      -0.637567       -17.3491
  42   2.0000      -0.630622       -17.1601
  43   2.0000      -0.602943       -16.4069
  44   2.0000      -0.574622       -15.6363
  45   2.0000      -0.572779       -15.5861
  46   2.0000      -0.538640       -14.6571
  47   2.0000      -0.515526       -14.0282
  48   2.0000      -0.506725       -13.7887
  49   2.0000      -0.489652       -13.3241
  50   2.0000      -0.482604       -13.1323
  51   2.0000      -0.461905       -12.5691
  52   2.0000      -0.454971       -12.3804
  53   2.0000      -0.446620       -12.1532
  54   2.0000      -0.425772       -11.5858
  55   2.0000      -0.422665       -11.5013
  56   2.0000      -0.408645       -11.1198
  57   2.0000      -0.403482       -10.9793
  58   2.0000      -0.401644       -10.9293
  59   2.0000      -0.393606       -10.7106
  60   2.0000      -0.390885       -10.6365
  61   2.0000      -0.384111       -10.4522
  62   2.0000      -0.379021       -10.3137
  63   2.0000      -0.372634       -10.1399
  64   2.0000      -0.367725       -10.0063
  65   2.0000      -0.363589        -9.8938
  66   2.0000      -0.356477        -9.7002
  67   2.0000      -0.345452        -9.4002
  68   2.0000      -0.334237        -9.0950
  69   2.0000      -0.333427        -9.0730
  70   2.0000      -0.331075        -9.0090
  71   2.0000      -0.326705        -8.8901
  72   2.0000      -0.323009        -8.7895
  73   2.0000      -0.317471        -8.6388
  74   2.0000      -0.307872        -8.3776
  75   2.0000      -0.304922        -8.2973
  76   2.0000      -0.300579        -8.1792
  77   2.0000      -0.295578        -8.0431
  78   2.0000      -0.292851        -7.9689
  79   2.0000      -0.273221        -7.4347
  80   2.0000      -0.269448        -7.3320
  81   2.0000      -0.259731        -7.0676
  82   2.0000      -0.253739        -6.9046
  83   2.0000      -0.251306        -6.8384
  84   2.0000      -0.229507        -6.2452
  85   2.0000      -0.224048        -6.0967
  86   2.0000      -0.220418        -5.9979
  87   2.0000      -0.215754        -5.8710
  88   2.0000      -0.200204        -5.4478
  89   2.0000      -0.163512        -4.4494
  90   2.0000      -0.129767        -3.5311
  91   2.0000      -0.120833        -3.2880
  92   2.0000      -0.109586        -2.9820
  93   0.0000      -0.070501        -1.9184
  94   0.0000      -0.024730        -0.6729
  95   0.0000      -0.011215        -0.3052
  96   0.0000       0.053768         1.4631
  97   0.0000       0.062529         1.7015

MULLIKEN ATOMIC CHARGES
-----------------------
   0 C :   -0.334415
   1 O :   -0.192393
   2 C :    0.205216
   3 O :   -0.504063
   4 C :   -0.134411
   5 C :    0.014205
   6 O :   -0.372686
   7 C :   -0.233190
   8 C :   -0.647999
   9 O :   -0.467424
  10 N :   -0.272416
  11 C :    0.359732
  12 C :   -0.077852
  13 C :   -0.681725
  14 C :   -0.669410
  15 N :    0.049131
  16 C :   -0.156414
  17 O :   -0.464756
  18 C :    0.372782
  19 N :   -0.154331
  20 N :   -0.317892
  21 C :    0.405496
  22 C :   -0.643680
  23 O :   -0.034151
  24 N :   -0.304042
  25 H :    0.164786
  26 H :    0.164641
  27 H :    0.164117
  28 H :    0.341239
  29 H :    0.145582
  30 H :    0.155439
  31 H :    0.150949
  32 H :    0.179599
  33 H :    0.181203
  34 H :    0.175197
  35 H :    0.167726
  36 H :    0.180104
  37 H :    0.183236
  38 H :    0.304545
  39 H :    0.197365
  40 H :    0.202616
  41 H :    0.198344
Sum of atomic charges:   -2.0000000

LOEWDIN ATOMIC CHARGES
----------------------
   0 C :   -0.054540
   1 O :   -0.604364
   2 C :    0.394581
   3 O :   -0.536116
   4 C :    0.095795
   5 C :    0.251587
   6 O :   -0.510933
   7 C :    0.198629
   8 C :   -0.422114
   9 O :   -0.761543
  10 N :   -0.710422
  11 C :    0.266790
  12 C :    0.106230
  13 C :   -0.364401
  14 C :   -0.368407
  15 N :   -0.610814
  16 C :    0.367527
  17 O :   -0.490362
  18 C :    0.422110
  19 N :   -0.368720
  20 N :   -0.371307
  21 C :    0.369350
  22 C :   -0.320032
  23 O :   -0.368433
  24 N :   -0.760331
  25 H :    0.173896
  26 H :    0.173592
  27 H :    0.177948
  28 H :    0.296680
  29 H :    0.145342
  30 H :    0.149521
  31 H :    0.151310
  32 H :    0.164884
  33 H :    0.166507
  34 H :    0.164933
  35 H :    0.164802
  36 H :    0.164500
  37 H :    0.173218
  38 H :    0.314873
  39 H :    0.189200
  40 H :    0.189416
  41 H :    0.189620

  Mayer bond orders larger than 0.100000
B(  0-C ,  1-O ) :   0.8467 B(  0-C , 25-H ) :   0.9634 B(  0-C , 26-H ) :   0.9629
B(  0-C , 27-H ) :   0.9670 B(  1-O ,  2-C ) :   1.1076 B(  2-C ,  3-O ) :   1.6818
B(  2-C ,  4-C ) :   1.1905 B(  4-C ,  5-C ) :   1.3887 B(  4-C , 24-N ) :   1.0010
B(  5-C ,  6-O ) :   1.1134 B(  5-C ,  7-C ) :   0.8309 B(  6-O , 28-H ) :   0.7807
B(  7-C ,  8-C ) :   0.8904 B(  7-C ,  9-O ) :   1.9799 B(  7-C , 10-N ) :   0.7491
B(  8-C , 29-H ) :   0.9856 B(  8-C , 30-H ) :   0.9847 B(  8-C , 31-H ) :   0.9909
B(  9-O , 10-N ) :  -0.1750 B( 10-N , 11-C ) :   1.5878 B( 10-N , 12-C ) :   0.1317
B( 10-N , 38-H ) :   0.1053 B( 11-C , 12-C ) :   0.7570 B( 11-C , 15-N ) :  -0.1203
B( 11-C , 24-N ) :   1.3148 B( 12-C , 13-C ) :   0.8771 B( 12-C , 14-C ) :   0.8847
B( 12-C , 15-N ) :   0.9211 B( 13-C , 32-H ) :   0.9673 B( 13-C , 33-H ) :   0.9774
B( 13-C , 34-H ) :   0.9832 B( 14-C , 35-H ) :   0.9829 B( 14-C , 36-H ) :   0.9755
B( 14-C , 37-H ) :   0.9666 B( 15-N , 16-C ) :   1.2229 B( 15-N , 38-H ) :   0.7978
B( 16-C , 17-O ) :   1.8955 B( 16-C , 18-C ) :   0.8513 B( 18-C , 19-N ) :   1.6824
B( 18-C , 23-O ) :   1.1209 B( 19-N , 20-N ) :   1.2178 B( 20-N , 21-C ) :   1.6314
B( 21-C , 22-C ) :   0.8312 B( 21-C , 23-O ) :   1.0721 B( 22-C , 39-H ) :   0.9453
B( 22-C , 40-H ) :   0.9911 B( 22-C , 41-H ) :   0.9429

Dispersion correction           -0.018777286
FINAL SINGLE POINT ENERGY     -1268.834991704281

DIPOLE MOMENT
-------------
                                X             Y             Z
Electronic contribution:      6.99738       3.08112       3.42598
Nuclear contribution   :     -2.12701      -6.91611      -5.55852
                        -----------------------------------------
Total Dipole Moment    :      4.87038      -3.83500      -2.13254
                        -----------------------------------------
Magnitude (a.u.)       :      6.55557
Magnitude (Debye)      :     16.66294

Rotational constants in cm-1:     0.015582     0.003453     0.002950
Rotational constants in MHz :   467.145597   103.527870    88.428395

                             ****ORCA TERMINATED NORMALLY****
TOTAL RUN TIME: 0 days 0 hours 2 minutes 23 seconds 736 msec
