   * xtb version 6.5.1 (579679a) compiled by 'ehlert@majestix' on 2022-07-11
          program call               : /lustre/hpc/kemi/ree/PhD/git/ReactivityQM/dep/xtb-6.5.1/bin/xtb --gfn 1 /lustre/hpc/kemi/ree/PhD/git/ReactivityQM/calculations/R02deprot/reac01prodE12/conf20/R02deprot_reac01prodE12_conf20_gfn1.xyz --opt --vfukui --chrg -2 --uhf 0 --alpb DMSO

   ID    Z sym.   atoms
    1    6 C      1, 3, 5, 6, 8, 9, 12-15, 17, 19, 22, 23
    2    8 O      2, 4, 7, 10, 18, 24
    3    7 N      11, 16, 20, 21, 25
    4    1 H      26-42

      * Solvation model:               ALPB
        Solvent                        DMSO
        Solvent mass                       7.8130E+01 g/mol
          :  Hamiltonian                  GFN1-xTB          :
 * total energy  :   -83.5689887 Eh     change       -0.8967049E-11 Eh
 * total energy  :   -83.5812426 Eh     change       -0.1225387E-01 Eh
 * total energy  :   -83.5865470 Eh     change       -0.5304346E-02 Eh
 * total energy  :   -83.5876462 Eh     change       -0.1099234E-02 Eh
 * total energy  :   -83.5884080 Eh     change       -0.7618189E-03 Eh
 * total energy  :   -83.5886991 Eh     change       -0.2911357E-03 Eh
 * total energy  :   -83.5888988 Eh     change       -0.1996714E-03 Eh
 * total energy  :   -83.5890367 Eh     change       -0.1378647E-03 Eh
 * total energy  :   -83.5891551 Eh     change       -0.1184663E-03 Eh
 * total energy  :   -83.5892848 Eh     change       -0.1296161E-03 Eh
 * total energy  :   -83.5907977 Eh     change       -0.8197804E-05 Eh
 * total energy  :   -83.5908058 Eh     change       -0.8098080E-05 Eh
 * total energy  :   -83.5908163 Eh     change       -0.1049851E-04 Eh
 * total energy  :   -83.5908274 Eh     change       -0.1100928E-04 Eh
 * total energy  :   -83.5908363 Eh     change       -0.8935276E-05 Eh
 * total energy  :   -83.5908429 Eh     change       -0.6649950E-05 Eh
 * total energy  :   -83.5908486 Eh     change       -0.5684744E-05 Eh
 * total energy  :   -83.5908538 Eh     change       -0.5224071E-05 Eh
 * total energy  :   -83.5908584 Eh     change       -0.4531943E-05 Eh
   *** GEOMETRY OPTIMIZATION CONVERGED AFTER 55 ITERATIONS ***

 final structure:
================
42
 xtb: 6.5.1 (579679a)
C           -5.68206545823930       -2.39506847218313        0.73937007961393
O           -4.40277944934014       -1.80474236814026        0.58362904288721
C           -4.36555348103915       -0.44226401423544        0.64699916926796
O           -5.41473677961086        0.18927687506448        0.82538920713902
C           -3.04625861764224        0.13200519919786        0.49956026494500
C           -2.85361556619657        1.48909771238794        0.56147705581052
O           -3.87907428272547        2.36663184400590        0.72077133226717
C           -1.42793185707779        2.13962055109429        0.58253986908542
C           -1.41741855233874        3.21324365234089       -0.58392508219981
O           -1.13612856687472        2.64682160427843        1.76137241941260
N           -0.44160166576793        1.08630862908034        0.12266958993974
C           -0.80046898536665       -0.15918423915320        0.08305429915558
C            0.31803987924185       -1.16439599952901       -0.27549676396928
C            0.12497366563461       -1.63495224068725       -1.72414323022389
C            0.28906968660680       -2.35775976279925        0.68563895038088
N            1.57618854217349       -0.43551310042913       -0.14969039451896
C            2.79982442978972       -0.93057670715229       -0.30933035689474
O            3.08205367527140       -2.09379636129765       -0.59939488823368
C            3.84177519685896        0.10763060403717       -0.06701287616036
N            3.63328931744870        1.34388216423796        0.28256034558881
N            4.86121261974809        1.92772221540864        0.42424565546726
C            5.73723582044303        1.01369921791237        0.15497172413319
C            7.21158863116991        1.14650998583226        0.17264180836739
O            5.16477085091202       -0.15972846644033       -0.16313647136677
N           -1.98577276059460       -0.74799005382813        0.26681955842061
H           -6.37148023345429       -2.04337243036152       -0.03506354873711
H           -6.10629601345474       -2.15466218960789        1.72006608476698
H           -5.55255257763571       -3.47339396808961        0.65130376356954
H           -4.72903765959248        1.88062192710912        0.78260935013635
H           -1.67510427908822        2.75313964923686       -1.53801690856348
H           -0.41900194525388        3.64521195635161       -0.64983861242240
H           -2.13216549325553        4.00286316255241       -0.35335126308846
H            0.87244321708419       -2.37955920821227       -1.99780046667658
H           -0.86818499092120       -2.07378192770611       -1.82239158965871
H            0.20495835887535       -0.78857749264195       -2.40689103601796
H            0.53711138415601       -2.03422093299158        1.69732347059617
H            0.99387231653304       -3.13010087898948        0.37915719692872
H           -0.71829073532153       -2.77590106251611        0.68909153530731
H            1.43036427787856        0.56979440472582        0.02886323645325
H            7.62351567675458        0.89123839015983       -0.80282425386900
H            7.48262406703230        2.16832216848989        0.42522811796915
H            7.64061233716993        0.46589996348938        0.90747461499512

          :  Hamiltonian                  GFN1-xTB          :
         :: total energy             -83.590858380123 Eh    ::
         :: gradient norm              0.000223386480 Eh/a0 ::
         :: HOMO-LUMO gap              0.181321402487 eV    ::
         :: SCC energy               -84.318479515743 Eh    ::
         :: -> Gsolv                  -0.293000451967 Eh    ::
         :: repulsion energy           0.752972072990 Eh    ::

    * Orbital Energies and Occupations

         #    Occupation            Energy/Eh            Energy/eV
      -------------------------------------------------------------
         1        2.0000           -0.8423602             -22.9218
       ...           ...                  ...                  ...
        56        2.0000           -0.4377622             -11.9121
        57        2.0000           -0.4350764             -11.8390
        58        2.0000           -0.4247936             -11.5592
        59        2.0000           -0.4171545             -11.3514
        60        2.0000           -0.4103093             -11.1651
        61        2.0000           -0.4065724             -11.0634
        62        2.0000           -0.4033625             -10.9761
        63        2.0000           -0.3734632             -10.1625
        64        2.0000           -0.3643415              -9.9142
        65        2.0000           -0.3312088              -9.0126
        66        2.0000           -0.3057376              -8.3195
        67        2.0000           -0.3008764              -8.1873
        68        1.9418           -0.2884585              -7.8494 (HOMO)
        69        0.0582           -0.2817951              -7.6680 (LUMO)
        70                         -0.2392063              -6.5091
        71                         -0.2344279              -6.3791
        72                         -0.1689790              -4.5982
        73                         -0.1585407              -4.3141
        74                         -0.1361863              -3.7058
        75                         -0.1159208              -3.1544
        76                         -0.0969325              -2.6377
        77                         -0.0923872              -2.5140
        78                         -0.0883837              -2.4050
        79                         -0.0685830              -1.8662
       ...                                ...                  ...
       134                          0.7293603              19.8469
      -------------------------------------------------------------
                  HL-Gap            0.0066634 Eh            0.1813 eV

Wiberg/Mayer (AO) data.
largest (>0.10) Wiberg bond orders for each atom

     #   Z sym  total        # sym  WBO       # sym  WBO       # sym  WBO
 ---------------------------------------------------------------------------
     1   6 C    3.905 --    28 H    0.987    27 H    0.980    26 H    0.980
                             2 O    0.931
     2   8 O    2.149 --     3 C    1.035     1 C    0.931
     3   6 C    3.830 --     4 O    1.519     5 C    1.126     2 O    1.035
     4   8 O    1.875 --     3 C    1.519
     5   6 C    3.951 --     6 C    1.493     3 C    1.126    25 N    1.112
     6   6 C    3.836 --     5 C    1.493     7 O    1.065     8 C    0.896
     7   8 O    2.043 --     6 C    1.065    29 H    0.810
     8   6 C    3.940 --    10 O    1.181     9 C    0.917     6 C    0.896
                            11 N    0.880
     9   6 C    3.979 --    30 H    0.991    32 H    0.989    31 H    0.988
                             8 C    0.917
    10   8 O    1.453 --     8 C    1.181
    11   7 N    2.946 --    12 C    1.563     8 C    0.880    25 N    0.181
    12   6 C    3.962 --    11 N    1.563    25 N    1.341    13 C    0.939
    13   6 C    3.911 --    15 C    0.992    14 C    0.984    12 C    0.939
                            16 N    0.917
    14   6 C    3.995 --    35 H    0.987    34 H    0.986    33 H    0.985
                            13 C    0.984
    15   6 C    3.995 --    13 C    0.992    36 H    0.987    37 H    0.985
                            38 H    0.982
    16   7 N    3.394 --    17 C    1.321    13 C    0.917    39 H    0.858
                            18 O    0.188
    17   6 C    3.913 --    18 O    1.523    16 N    1.321    19 C    0.988
    18   8 O    1.836 --    17 C    1.523    16 N    0.188
    19   6 C    3.834 --    20 N    1.599    24 O    1.046    17 C    0.988
    20   7 N    2.973 --    19 C    1.599    21 N    1.185
    21   7 N    2.980 --    22 C    1.623    20 N    1.185
    22   6 C    3.869 --    21 N    1.623    24 O    1.075    23 C    1.028
    23   6 C    3.990 --    22 C    1.028    41 H    0.984    40 H    0.967
                            42 H    0.966
    24   8 O    2.300 --    22 C    1.075    19 C    1.046
    25   7 N    2.836 --    12 C    1.341     5 C    1.112    11 N    0.181
    26   1 H    1.016 --     1 C    0.980
    27   1 H    1.015 --     1 C    0.980
    28   1 H    1.017 --     1 C    0.987
    29   1 H    0.893 --     7 O    0.810
    30   1 H    1.021 --     9 C    0.991
    31   1 H    1.025 --     9 C    0.988
    32   1 H    1.023 --     9 C    0.989
    33   1 H    1.013 --    14 C    0.985
    34   1 H    1.019 --    14 C    0.986
    35   1 H    1.010 --    14 C    0.987
    36   1 H    1.009 --    15 C    0.987
    37   1 H    1.016 --    15 C    0.985
    38   1 H    1.033 --    15 C    0.982
    39   1 H    1.002 --    16 N    0.858
    40   1 H    0.999 --    23 C    0.967
    41   1 H    1.001 --    23 C    0.984
    42   1 H    0.999 --    23 C    0.966
 ---------------------------------------------------------------------------

           -------------------------------------------------
          | TOTAL ENERGY              -83.590858380123 Eh   |
          | GRADIENT NORM               0.000223386480 Eh/α |
          | HOMO-LUMO GAP               0.181321402487 eV   |
           -------------------------------------------------

 * finished run on 2023/06/20 at 17:58:08.013
