   * xtb version 6.5.1 (579679a) compiled by 'ehlert@majestix' on 2022-07-11
          program call               : /lustre/hpc/kemi/ree/PhD/git/ReactivityQM/dep/xtb-6.5.1/bin/xtb --gfn 1 /lustre/hpc/kemi/ree/PhD/git/ReactivityQM/calculations/R02/reac01prodN09/conf16/R02_reac01prodN09_conf16_gfn1.xyz --opt --vfukui --chrg 1 --uhf 0 --alpb DMSO

   ID    Z sym.   atoms
    1    6 C      1, 3, 5, 6, 8-11, 13, 15, 18, 19, 22, 24
    2    8 O      2, 4, 14, 20, 23, 25
    3    7 N      7, 12, 16, 17, 21
    4    1 H      26-43

      * Solvation model:               ALPB
        Solvent                        DMSO
        Solvent mass                       7.8130E+01 g/mol
          :  Hamiltonian                  GFN1-xTB          :
 * total energy  :   -83.0938452 Eh     change       -0.3563514E-09 Eh
 * total energy  :   -83.1148641 Eh     change       -0.2101896E-01 Eh
 * total energy  :   -83.1239730 Eh     change       -0.9108814E-02 Eh
 * total energy  :   -83.1258654 Eh     change       -0.1892414E-02 Eh
 * total energy  :   -83.1269372 Eh     change       -0.1071845E-02 Eh
 * total energy  :   -83.1272554 Eh     change       -0.3181492E-03 Eh
 * total energy  :   -83.1274582 Eh     change       -0.2028086E-03 Eh
 * total energy  :   -83.1275400 Eh     change       -0.8178555E-04 Eh
 * total energy  :   -83.1275793 Eh     change       -0.3934436E-04 Eh
 * total energy  :   -83.1276105 Eh     change       -0.3116992E-04 Eh
 * total energy  :   -83.1281850 Eh     change       -0.1009657E-04 Eh
 * total energy  :   -83.1281943 Eh     change       -0.9291108E-05 Eh
 * total energy  :   -83.1282035 Eh     change       -0.9201730E-05 Eh
 * total energy  :   -83.1282115 Eh     change       -0.7945248E-05 Eh
 * total energy  :   -83.1282159 Eh     change       -0.4425114E-05 Eh
 * total energy  :   -83.1282213 Eh     change       -0.5387564E-05 Eh
 * total energy  :   -83.1282266 Eh     change       -0.5342886E-05 Eh
 * total energy  :   -83.1282321 Eh     change       -0.5444225E-05 Eh
 * total energy  :   -83.1282347 Eh     change       -0.2599675E-05 Eh
   *** GEOMETRY OPTIMIZATION CONVERGED AFTER 44 ITERATIONS ***

 final structure:
================
43
 xtb: 6.5.1 (579679a)
C           -2.37700224562268        3.25632276612029        0.19877839636636
O           -2.41965004772092        1.81695645548741        0.02917763847152
C           -3.47869562762216        1.18287128260252        0.40492047576470
O           -4.50134744353748        1.59103769211304        0.84678871548153
C           -3.27440206192351       -0.42199546360574        0.19580430770474
C           -4.45355276401347       -1.11122899650938        0.88881950556147
N           -2.04416439485487       -0.71052112948686        0.85016107585645
C           -0.95728298090072       -0.86665001822103        0.19946640181598
C            0.31327707152328       -1.21851840419910        0.93874466505310
C            0.46454075359548       -2.74684915035345        0.86054821020855
C            0.23706654303292       -0.73641357867819        2.39045879464514
N            1.42206316243203       -0.55962066679368        0.24717113763867
C            2.71970487183840       -0.73314927683856        0.62861310079041
O            3.11723380129238       -1.56816460960897        1.41409901166182
C            3.59797584466856        0.23210517449795       -0.07148061159978
N            3.21116363612349        1.17502510985751       -0.87920362106828
N            4.33246949491339        1.83183959433954       -1.28028667182554
C            5.33479639112061        1.25002898385273       -0.68938370344609
C            6.76914456877703        1.59615106429381       -0.79532764623941
O            4.93291592590853        0.23429082154342        0.08706896149637
N           -0.87944483074733       -0.82165813065887       -1.18294763535777
C           -1.95308624428926       -0.65267530877967       -1.99362809675248
O           -1.93853255312191       -0.64006496590754       -3.20277785622201
C           -3.24418455023927       -0.52888539104266       -1.24994833845439
O           -4.31122534995138       -0.47189174172391       -1.94501899527305
H           -1.72575497833148        3.63091957488428       -0.58693608744998
H           -1.95912448105617        3.47513552922593        1.18118287361481
H           -3.38235389806882        3.66751022806012        0.10844560759103
H           -5.38640027289350       -0.79882507009032        0.42484200850477
H           -4.45402019735897       -0.83676973038591        1.94117490324244
H           -4.33509582347572       -2.18796546269275        0.79318600461226
H            1.32955212518972       -3.06639823290020        1.43835662233418
H            0.59014785902671       -3.05439426040969       -0.17553229863344
H           -0.42947364253765       -3.21649318653275        1.26700970800418
H            1.14775718879869       -1.01617258799217        2.91730156938111
H           -0.61942244786099       -1.19419295530322        2.88174142236633
H            0.12383266077384        0.34585358637509        2.41433689761778
H            1.21626313107987        0.28893863860387       -0.25802517090530
H            7.33965162744764        0.72500833066276       -1.11687134545074
H            7.14865063194660        1.90755289270408        0.17816786085407
H            6.89770441592236        2.40434038483588       -1.51129499098435
H            0.01793545218970       -0.95981146121466       -1.63187717349891
H           -4.13962732147432       -0.49257933013309       -2.91501963348246

          :  Hamiltonian                  GFN1-xTB          :
         :: total energy             -83.128234660649 Eh    ::
         :: gradient norm              0.000423718204 Eh/a0 ::
         :: HOMO-LUMO gap              0.786898031066 eV    ::
         :: SCC energy               -83.928729060217 Eh    ::
         :: -> Gsolv                  -0.111877244243 Eh    ::
         :: repulsion energy           0.827759856609 Eh    ::

    * Orbital Energies and Occupations

         #    Occupation            Energy/Eh            Energy/eV
      -------------------------------------------------------------
         1        2.0000           -0.9206383             -25.0518
       ...           ...                  ...                  ...
        55        2.0000           -0.5340537             -14.5323
        56        2.0000           -0.5304562             -14.4344
        57        2.0000           -0.5274235             -14.3519
        58        2.0000           -0.5176063             -14.0848
        59        2.0000           -0.5124813             -13.9453
        60        2.0000           -0.5122808             -13.9399
        61        2.0000           -0.5007953             -13.6273
        62        2.0000           -0.4942174             -13.4483
        63        2.0000           -0.4896137             -13.3231
        64        2.0000           -0.4759002             -12.9499
        65        2.0000           -0.4709779             -12.8160
        66        2.0000           -0.4595711             -12.5056
        67        2.0000           -0.4574316             -12.4473 (HOMO)
        68        0.0000           -0.4285137             -11.6605 (LUMO)
        69                         -0.3385163              -9.2115
        70                         -0.3216400              -8.7523
        71                         -0.3110594              -8.4644
        72                         -0.2716768              -7.3927
        73                         -0.2623480              -7.1389
        74                         -0.2090976              -5.6898
        75                         -0.1671179              -4.5475
        76                         -0.1570431              -4.2734
        77                         -0.1523467              -4.1456
        78                         -0.1471985              -4.0055
       ...                                ...                  ...
       136                          0.7485758              20.3698
      -------------------------------------------------------------
                  HL-Gap            0.0289180 Eh            0.7869 eV

Wiberg/Mayer (AO) data.
largest (>0.10) Wiberg bond orders for each atom

     #   Z sym  total        # sym  WBO       # sym  WBO       # sym  WBO
 ---------------------------------------------------------------------------
     1   6 C    3.816 --    28 H    0.980    26 H    0.979    27 H    0.976
                             2 O    0.836
     2   8 O    2.254 --     3 C    1.221     1 C    0.836     4 O    0.149
     3   6 C    3.856 --     4 O    1.751     2 O    1.221     5 C    0.706
     4   8 O    2.096 --     3 C    1.751     2 O    0.149
     5   6 C    3.956 --    24 C    1.108     7 N    1.021     6 C    0.947
                             3 C    0.706
     6   6 C    3.965 --    29 H    0.980    30 H    0.980    31 H    0.978
                             5 C    0.947
     7   7 N    3.029 --     8 C    1.691     5 C    1.021
     8   6 C    3.911 --     7 N    1.691    21 N    1.098     9 C    0.982
     9   6 C    3.933 --    11 C    0.986     8 C    0.982    10 C    0.967
                            12 N    0.932
    10   6 C    3.983 --    34 H    0.985    33 H    0.984    32 H    0.973
                             9 C    0.967
    11   6 C    3.986 --     9 C    0.986    37 H    0.985    36 H    0.983
                            35 H    0.980
    12   7 N    3.301 --    13 C    1.204     9 C    0.932    38 H    0.894
                            14 O    0.165
    13   6 C    3.910 --    14 O    1.623    12 N    1.204    15 C    0.996
    14   8 O    1.935 --    13 C    1.623    12 N    0.165
    15   6 C    3.878 --    16 N    1.602    20 O    1.066    13 C    0.996
    16   7 N    3.021 --    15 C    1.602    17 N    1.208
    17   7 N    2.981 --    18 C    1.596    16 N    1.208
    18   6 C    3.868 --    17 N    1.596    20 O    1.086    19 C    1.032
    19   6 C    3.985 --    18 C    1.032    41 H    0.982    39 H    0.964
                            40 H    0.961
    20   8 O    2.335 --    18 C    1.086    15 C    1.066
    21   7 N    3.483 --    22 C    1.198     8 C    1.098    42 H    0.863
                            23 O    0.166
    22   6 C    3.921 --    23 O    1.641    21 N    1.198    24 C    0.972
    23   8 O    1.980 --    22 C    1.641    21 N    0.166
    24   6 C    3.802 --    25 O    1.368     5 C    1.108    22 C    0.972
    25   8 O    2.286 --    24 C    1.368    43 H    0.741
    26   1 H    1.002 --     1 C    0.979
    27   1 H    0.998 --     1 C    0.976
    28   1 H    0.998 --     1 C    0.980
    29   1 H    0.998 --     6 C    0.980
    30   1 H    0.997 --     6 C    0.980
    31   1 H    0.994 --     6 C    0.978
    32   1 H    1.008 --    10 C    0.973
    33   1 H    0.999 --    10 C    0.984
    34   1 H    1.000 --    10 C    0.985
    35   1 H    1.003 --    11 C    0.980
    36   1 H    1.006 --    11 C    0.983
    37   1 H    1.001 --    11 C    0.985
    38   1 H    0.950 --    12 N    0.894
    39   1 H    0.996 --    19 C    0.964
    40   1 H    0.996 --    19 C    0.961
    41   1 H    0.998 --    19 C    0.982
    42   1 H    0.909 --    21 N    0.863
    43   1 H    0.785 --    25 O    0.741
 ---------------------------------------------------------------------------

           -------------------------------------------------
          | TOTAL ENERGY              -83.128234660649 Eh   |
          | GRADIENT NORM               0.000423718204 Eh/α |
          | HOMO-LUMO GAP               0.786898031066 eV   |
           -------------------------------------------------

 * finished run on 2023/06/20 at 15:29:45.517
