   * xtb version 6.5.1 (579679a) compiled by 'ehlert@majestix' on 2022-07-11
          program call               : /lustre/hpc/kemi/ree/PhD/git/ReactivityQM/dep/xtb-6.5.1/bin/xtb --gfn 1 /lustre/hpc/kemi/ree/PhD/git/ReactivityQM/calculations/R03/reac01prodE02/conf08/R03_reac01prodE02_conf08_gfn1.xyz --opt --vfukui --chrg -1 --uhf 0 --alpb DMSO

   ID    Z sym.   atoms
    1    6 C      1-4, 6-9
    2    9 F      5
    3    7 N      10
    4    1 H      11-21

      * Solvation model:               ALPB
        Solvent                        DMSO
        Solvent mass                       7.8130E+01 g/mol
          :  Hamiltonian                  GFN1-xTB          :
 * total energy  :   -31.4568699 Eh     change       -0.4497736E-11 Eh
 * total energy  :   -31.4621878 Eh     change       -0.5317907E-02 Eh
 * total energy  :   -31.4632743 Eh     change       -0.1086555E-02 Eh
 * total energy  :   -31.4634468 Eh     change       -0.1725042E-03 Eh
 * total energy  :   -31.4636153 Eh     change       -0.1685089E-03 Eh
 * total energy  :   -31.4637477 Eh     change       -0.1323647E-03 Eh
 * total energy  :   -31.4638863 Eh     change       -0.1386021E-03 Eh
 * total energy  :   -31.4640028 Eh     change       -0.1164992E-03 Eh
 * total energy  :   -31.4640543 Eh     change       -0.5154095E-04 Eh
 * total energy  :   -31.4640699 Eh     change       -0.1556386E-04 Eh
 * total energy  :   -31.4640806 Eh     change       -0.1072359E-04 Eh
 * total energy  :   -31.4640873 Eh     change       -0.6706818E-05 Eh
 * total energy  :   -31.4640938 Eh     change       -0.6449068E-05 Eh
 * total energy  :   -31.4640931 Eh     change        0.6534558E-06 Eh
 * total energy  :   -31.4640977 Eh     change       -0.4550636E-05 Eh
   *** GEOMETRY OPTIMIZATION CONVERGED AFTER 15 ITERATIONS ***

 final structure:
================
21
 xtb: 6.5.1 (579679a)
C            0.14096130062559       -1.99344004541030        0.83022091061280
C            0.35159610442495       -0.89935197122205       -0.26590614650329
C            1.82598039881308       -0.58879806330717       -0.42905682245546
C            2.34155548936366        0.54407488804781        0.11092536381819
F            3.70699486796247        0.71789408191016        0.02863215261925
C            1.60949514169940        1.59001593795494        0.68221993432950
C            0.20317188362873        1.47551330408685        0.56992657554552
C           -0.42171819419135        0.36529462511098        0.08117220095324
C           -1.91422537019938        0.36265047287763       -0.15098195277475
N           -2.27864820731021        1.12523661225298       -1.37263022771388
H            0.47694396506298       -1.62246419383753        1.80003704636121
H            0.71296142552231       -2.88887945667833        0.58106381666103
H           -0.91363546476533       -2.26292813562571        0.90568649623825
H           -0.04065586575452       -1.33632856087964       -1.20476223368061
H            2.45712146389208       -1.32168195252137       -0.91792396343271
H            2.08979872769294        2.47792884183900        1.07021109226711
H           -0.40363955430191        2.33573040753640        0.85816434713347
H           -2.29779462698767       -0.66777620588683       -0.23496708331842
H           -2.43872009277923        0.84204520776210        0.68797081243983
H           -3.28516783547130        1.11901189548965       -1.45102795234767
H           -1.92237555692720        0.62625331050042       -2.17897336675237

          :  Hamiltonian                  GFN1-xTB          :
         :: total energy             -31.464097689386 Eh    ::
         :: gradient norm              0.000650707831 Eh/a0 ::
         :: HOMO-LUMO gap              2.680849979142 eV    ::
         :: SCC energy               -31.835773121527 Eh    ::
         :: -> Gsolv                  -0.083406001773 Eh    ::
         :: repulsion energy           0.381869060935 Eh    ::

    * Orbital Energies and Occupations

         #    Occupation            Energy/Eh            Energy/eV
      -------------------------------------------------------------
         1        2.0000           -0.7895933             -21.4859
       ...           ...                  ...                  ...
        16        2.0000           -0.4856656             -13.2156
        17        2.0000           -0.4780219             -13.0076
        18        2.0000           -0.4744127             -12.9094
        19        2.0000           -0.4609349             -12.5427
        20        2.0000           -0.4547177             -12.3735
        21        2.0000           -0.4446792             -12.1003
        22        2.0000           -0.4358263             -11.8594
        23        2.0000           -0.4136773             -11.2567
        24        2.0000           -0.4040704             -10.9953
        25        2.0000           -0.3993449             -10.8667
        26        2.0000           -0.3732111             -10.1556
        27        2.0000           -0.3598198              -9.7912
        28        2.0000           -0.2777873              -7.5590 (HOMO)
        29                         -0.1792678              -4.8781 (LUMO)
        30                         -0.1095165              -2.9801
        31                         -0.0852326              -2.3193
        32                         -0.0779597              -2.1214
        33                         -0.0717121              -1.9514
        34                         -0.0567877              -1.5453
        35                         -0.0477616              -1.2997
        36                         -0.0421785              -1.1477
        37                         -0.0281010              -0.7647
        38                         -0.0227847              -0.6200
        39                         -0.0187225              -0.5095
       ...                                ...                  ...
        62                          0.6576839              17.8965
      -------------------------------------------------------------
                  HL-Gap            0.0985194 Eh            2.6808 eV

Wiberg/Mayer (AO) data.
largest (>0.10) Wiberg bond orders for each atom

     #   Z sym  total        # sym  WBO       # sym  WBO       # sym  WBO
 ---------------------------------------------------------------------------
     1   6 C    3.992 --    11 H    0.989    12 H    0.988    13 H    0.986
                             2 C    0.966
     2   6 C    3.992 --     3 C    1.006     8 C    0.997    14 H    0.971
                             1 C    0.966
     3   6 C    3.900 --     4 C    1.584     2 C    1.006    15 H    0.975
                             6 C    0.110
     4   6 C    3.824 --     3 C    1.584     6 C    1.302     5 F    0.851
     5   9 F    0.958 --     4 C    0.851
     6   6 C    3.872 --     4 C    1.302     7 C    1.286    16 H    0.977
                             3 C    0.110     8 C    0.105
     7   6 C    3.994 --     8 C    1.626     6 C    1.286    17 H    0.972
     8   6 C    3.932 --     7 C    1.626     9 C    1.008     2 C    0.997
                             6 C    0.105
     9   6 C    3.969 --     8 C    1.008    19 H    0.980    18 H    0.977
                            10 N    0.965
    10   7 N    2.932 --     9 C    0.965    21 H    0.960    20 H    0.959
    11   1 H    1.022 --     1 C    0.989
    12   1 H    1.016 --     1 C    0.988
    13   1 H    1.014 --     1 C    0.986
    14   1 H    1.020 --     2 C    0.971
    15   1 H    1.004 --     3 C    0.975
    16   1 H    1.005 --     6 C    0.977
    17   1 H    1.007 --     7 C    0.972
    18   1 H    1.009 --     9 C    0.977
    19   1 H    1.020 --     9 C    0.980
    20   1 H    0.972 --    10 N    0.959
    21   1 H    0.978 --    10 N    0.960
 ---------------------------------------------------------------------------

           -------------------------------------------------
          | TOTAL ENERGY              -31.464097689386 Eh   |
          | GRADIENT NORM               0.000650707831 Eh/α |
          | HOMO-LUMO GAP               2.680849979142 eV   |
           -------------------------------------------------

 * finished run on 2023/06/20 at 15:12:57.881
