   * xtb version 6.5.1 (579679a) compiled by 'ehlert@majestix' on 2022-07-11
          program call               : /lustre/hpc/kemi/ree/PhD/git/ReactivityQM/dep/xtb-6.5.1/bin/xtb --gfn 1 /lustre/hpc/kemi/ree/PhD/git/ReactivityQM/calculations/R01/reac01prodN02/conf06/R01_reac01prodN02_conf06_gfn1.xyz --opt --vfukui --chrg 1 --uhf 0 --alpb DMSO

   ID    Z sym.   atoms
    1    6 C      1, 3, 5, 6, 9, 10
    2    8 O      2, 4, 11
    3    7 N      7, 8
    4    1 H      12-20

      * Solvation model:               ALPB
        Solvent                        DMSO
        Solvent mass                       7.8130E+01 g/mol
          :  Hamiltonian                  GFN1-xTB          :
 * total energy  :   -37.5992025 Eh     change       -0.1989520E-12 Eh
 * total energy  :   -37.6179162 Eh     change       -0.1871376E-01 Eh
 * total energy  :   -37.6234263 Eh     change       -0.5510117E-02 Eh
 * total energy  :   -37.6245788 Eh     change       -0.1152421E-02 Eh
 * total energy  :   -37.6249398 Eh     change       -0.3610630E-03 Eh
 * total energy  :   -37.6249836 Eh     change       -0.4375907E-04 Eh
 * total energy  :   -37.6249945 Eh     change       -0.1091067E-04 Eh
 * total energy  :   -37.6249970 Eh     change       -0.2534023E-05 Eh
   *** GEOMETRY OPTIMIZATION CONVERGED AFTER 8 ITERATIONS ***

 final structure:
================
20
 xtb: 6.5.1 (579679a)
C           -0.98088392583082        1.89778052200517       -0.72420622251899
O           -1.68145878132133        0.67039656024137       -0.44602213514172
C           -1.12871989402904       -0.44506617037710       -0.13730439808959
O           -1.88366819908901       -1.45961198967815        0.08042701708265
C           -3.31584123108119       -1.32943626693036       -0.02723133375437
C            0.28261160164521       -0.67238561032919       -0.01222161291931
N            0.86555285790444       -1.80800772565424        0.29512161143071
N            2.17698134400147       -1.58673154428417        0.29898546266995
C            2.36128433509640       -0.32130934807370       -0.00732641349443
C            3.64137385427430        0.39570275697918       -0.13801214881740
O            1.20106534481778        0.29803348092648       -0.21211044353371
H           -1.75836981666415        2.62781791213087       -0.93951317448892
H           -0.39900732010450        2.19394044742205        0.14785201149987
H           -0.32792937641143        1.75843804241376       -1.58523900998328
H           -3.71874111259443       -2.31417617777346        0.19673313042065
H           -3.66396610962239       -0.58676963158607        0.69066230247820
H           -3.57227568713482       -1.01702876973183       -1.03949913773469
H            4.16760603685995        0.04369045124508       -1.02728078349376
H            4.27093336254027        0.19057863553804        0.72773267351908
H            3.46345171674312        1.46414242551611       -0.22732439513044

          :  Hamiltonian                  GFN1-xTB          :
         :: total energy             -37.624997019162 Eh    ::
         :: gradient norm              0.000749467272 Eh/a0 ::
         :: HOMO-LUMO gap              2.787770615013 eV    ::
         :: SCC energy               -37.964743603921 Eh    ::
         :: -> Gsolv                  -0.082023628414 Eh    ::
         :: repulsion energy           0.347896047983 Eh    ::

    * Orbital Energies and Occupations

         #    Occupation            Energy/Eh            Energy/eV
      -------------------------------------------------------------
         1        2.0000           -0.9252534             -25.1774
       ...           ...                  ...                  ...
        18        2.0000           -0.6314483             -17.1826
        19        2.0000           -0.6120607             -16.6550
        20        2.0000           -0.5784041             -15.7392
        21        2.0000           -0.5748356             -15.6421
        22        2.0000           -0.5692033             -15.4888
        23        2.0000           -0.5607434             -15.2586
        24        2.0000           -0.5567093             -15.1488
        25        2.0000           -0.5524325             -15.0325
        26        2.0000           -0.5474157             -14.8959
        27        2.0000           -0.5435995             -14.7921
        28        2.0000           -0.5269439             -14.3389
        29        2.0000           -0.4998122             -13.6006
        30        2.0000           -0.4964607             -13.5094 (HOMO)
        31                         -0.3940120             -10.7216 (LUMO)
        32                         -0.3002218              -8.1695
        33                         -0.2671508              -7.2695
        34                         -0.1718819              -4.6771
        35                         -0.1630724              -4.4374
        36                         -0.1594668              -4.3393
        37                         -0.1047146              -2.8494
        38                         -0.1032889              -2.8106
        39                         -0.1008184              -2.7434
        40                         -0.0973218              -2.6483
        41                         -0.0917289              -2.4961
       ...                                ...                  ...
        62                          0.5318423              14.4722
      -------------------------------------------------------------
                  HL-Gap            0.1024487 Eh            2.7878 eV

Wiberg/Mayer (AO) data.
largest (>0.10) Wiberg bond orders for each atom

     #   Z sym  total        # sym  WBO       # sym  WBO       # sym  WBO
 ---------------------------------------------------------------------------
     1   6 C    3.802 --    12 H    0.978    13 H    0.970    14 H    0.970
                             2 O    0.840
     2   8 O    2.321 --     3 C    1.269     1 C    0.840
     3   6 C    3.837 --     4 O    1.271     2 O    1.269     6 C    1.110
     4   8 O    2.312 --     3 C    1.271     5 C    0.844
     5   6 C    3.809 --    15 H    0.981    17 H    0.970    16 H    0.970
                             4 O    0.844
     6   6 C    3.885 --     7 N    1.502     3 C    1.110    11 O    1.040
     7   7 N    3.022 --     6 C    1.502     8 N    1.313
     8   7 N    2.993 --     9 C    1.492     7 N    1.313
     9   6 C    3.843 --     8 N    1.492    11 O    1.112    10 C    1.044
    10   6 C    3.974 --     9 C    1.044    20 H    0.978    19 H    0.956
                            18 H    0.943
    11   8 O    2.350 --     9 C    1.112     6 C    1.040
    12   1 H    0.999 --     1 C    0.978
    13   1 H    0.999 --     1 C    0.970
    14   1 H    0.999 --     1 C    0.970
    15   1 H    1.000 --     5 C    0.981
    16   1 H    0.994 --     5 C    0.970
    17   1 H    0.994 --     5 C    0.970
    18   1 H    0.986 --    10 C    0.943
    19   1 H    0.989 --    10 C    0.956
    20   1 H    0.992 --    10 C    0.978
 ---------------------------------------------------------------------------

           -------------------------------------------------
          | TOTAL ENERGY              -37.624997019162 Eh   |
          | GRADIENT NORM               0.000749467272 Eh/α |
          | HOMO-LUMO GAP               2.787770615013 eV   |
           -------------------------------------------------

 * finished run on 2023/06/20 at 14:54:58.554
