   * xtb version 6.5.1 (579679a) compiled by 'ehlert@majestix' on 2022-07-11
          program call               : /lustre/hpc/kemi/ree/PhD/git/ReactivityQM/dep/xtb-6.5.1/bin/xtb --gfn 1 /lustre/hpc/kemi/ree/PhD/git/ReactivityQM/calculations/R01/reac02prodE04/conf20/R01_reac02prodE04_conf20_gfn1.xyz --opt --vfukui --chrg -1 --uhf 0 --alpb DMSO

   ID    Z sym.   atoms
    1    6 C      1, 3, 5, 6, 8, 11-14, 17
    2    8 O      2, 4, 7, 9
    3    7 N      10, 15, 16
    4    1 H      18-33

      * Solvation model:               ALPB
        Solvent                        DMSO
        Solvent mass                       7.8130E+01 g/mol
          :  Hamiltonian                  GFN1-xTB          :
 * total energy  :   -58.4790458 Eh     change       -0.4431158E-09 Eh
 * total energy  :   -58.4919569 Eh     change       -0.1291101E-01 Eh
 * total energy  :   -58.5003439 Eh     change       -0.8387080E-02 Eh
 * total energy  :   -58.5021729 Eh     change       -0.1828953E-02 Eh
 * total energy  :   -58.5039361 Eh     change       -0.1763169E-02 Eh
 * total energy  :   -58.5046393 Eh     change       -0.7032912E-03 Eh
 * total energy  :   -58.5053386 Eh     change       -0.6992734E-03 Eh
 * total energy  :   -58.5059895 Eh     change       -0.6509042E-03 Eh
 * total energy  :   -58.5065358 Eh     change       -0.5463100E-03 Eh
 * total energy  :   -58.5070059 Eh     change       -0.4700820E-03 Eh
 * total energy  :   -58.5085799 Eh     change       -0.4781186E-04 Eh
 * total energy  :   -58.5086141 Eh     change       -0.3422893E-04 Eh
 * total energy  :   -58.5086412 Eh     change       -0.2711368E-04 Eh
 * total energy  :   -58.5086669 Eh     change       -0.2569183E-04 Eh
 * total energy  :   -58.5086828 Eh     change       -0.1582792E-04 Eh
 * total energy  :   -58.5086975 Eh     change       -0.1476409E-04 Eh
 * total energy  :   -58.5087027 Eh     change       -0.5170407E-05 Eh
 * total energy  :   -58.5087088 Eh     change       -0.6110674E-05 Eh
 * total energy  :   -58.5087115 Eh     change       -0.2699703E-05 Eh
   *** GEOMETRY OPTIMIZATION CONVERGED AFTER 26 ITERATIONS ***

 final structure:
================
33
 xtb: 6.5.1 (579679a)
C            4.20556162481585        0.52676229153734        1.38607632374344
O            2.88642760699336        0.44144744531816        0.88212665579006
C            2.68338896177356       -0.60350193292355       -0.05365522757644
O            3.66006443121823       -1.35424177304102       -0.32200879612928
C            1.42156059397496       -0.71047270671208       -0.60052155016351
C            1.08420959276437       -1.80496944437730       -1.53892194253433
O            2.09003004494571       -2.21099557787082       -2.44322000961650
C           -0.16022569467991       -2.32379187532138       -1.56600217689236
O           -0.78548700531806       -3.16828204174772       -2.26307644232870
N           -1.03230746707592       -1.64719055221544       -0.50053651128816
C           -0.90350162275566       -0.32686609180714       -0.28321426780717
C           -2.15275730182742        0.49080866150716        0.05312958585082
C           -2.09396146197919        0.93095478616878        1.52291998429843
C           -3.44317200299655       -0.31703378352575       -0.15936645123944
N           -2.20891981188710        1.67961359526908       -0.80336941493329
N            0.32291396032730        0.15901053507057       -0.28374475297291
C            0.63475625001243        1.57252198042374       -0.08570609526168
H            4.93247059158743        0.68825624087912        0.57953029132318
H            4.23700321617235        1.37553039267971        2.07174706872200
H            4.48653815822097       -0.38516104619767        1.92910476430066
H            2.93669242468873       -2.13195316506257       -1.95660832083323
H           -1.97560879617149       -1.99868272256345       -0.56116577895433
H           -1.27434220197850        1.62476001980924        1.69702562967966
H           -1.96359549897673        0.06110980145447        2.16622280561171
H           -3.02500012443675        1.42691434713481        1.79246771683140
H           -3.51279433077082       -1.14695644502145        0.54263859871861
H           -4.29364129618763        0.34111901028518        0.00974144494629
H           -3.50555293974901       -0.69401554118123       -1.17950037758338
H           -2.50804686481551        1.41161891013619       -1.73184856264861
H           -2.90668387136902        2.30888264725910       -0.43564962994688
H            1.52508660004820        1.81998045530339       -0.66301321656067
H            0.83015209550782        1.77120073658758        0.96854817198083
H           -0.19125686007694        2.19362284274286       -0.42494451652780

          :  Hamiltonian                  GFN1-xTB          :
         :: total energy             -58.508711513751 Eh    ::
         :: gradient norm              0.000665727712 Eh/a0 ::
         :: HOMO-LUMO gap              0.932772098189 eV    ::
         :: SCC energy               -59.051054529613 Eh    ::
         :: -> Gsolv                  -0.125296967000 Eh    ::
         :: repulsion energy           0.562040665663 Eh    ::

    * Orbital Energies and Occupations

         #    Occupation            Energy/Eh            Energy/eV
      -------------------------------------------------------------
         1        2.0000           -0.7838887             -21.3307
       ...           ...                  ...                  ...
        36        2.0000           -0.4825457             -13.1307
        37        2.0000           -0.4782112             -13.0128
        38        2.0000           -0.4730618             -12.8727
        39        2.0000           -0.4637337             -12.6188
        40        2.0000           -0.4559951             -12.4083
        41        2.0000           -0.4377167             -11.9109
        42        2.0000           -0.4339483             -11.8083
        43        2.0000           -0.4146997             -11.2846
        44        2.0000           -0.4067504             -11.0682
        45        2.0000           -0.3985378             -10.8448
        46        2.0000           -0.3760282             -10.2322
        47        2.0000           -0.3515983              -9.5675
        48        2.0000           -0.2850910              -7.7577 (HOMO)
        49                         -0.2508123              -6.8249 (LUMO)
        50                         -0.1560889              -4.2474
        51                         -0.1239314              -3.3723
        52                         -0.1194129              -3.2494
        53                         -0.1125729              -3.0633
        54                         -0.1082319              -2.9451
        55                         -0.1000965              -2.7238
        56                         -0.0974939              -2.6529
        57                         -0.0748327              -2.0363
        58                         -0.0670823              -1.8254
        59                         -0.0544625              -1.4820
       ...                                ...                  ...
       100                          0.7874055              21.4264
      -------------------------------------------------------------
                  HL-Gap            0.0342787 Eh            0.9328 eV

Wiberg/Mayer (AO) data.
largest (>0.10) Wiberg bond orders for each atom

     #   Z sym  total        # sym  WBO       # sym  WBO       # sym  WBO
 ---------------------------------------------------------------------------
     1   6 C    3.916 --    19 H    0.987    20 H    0.981    18 H    0.981
                             2 O    0.946
     2   8 O    2.060 --     1 C    0.946     3 C    0.910
     3   6 C    3.881 --     5 C    1.436     4 O    1.379     2 O    0.910
     4   8 O    1.766 --     3 C    1.379     5 C    0.140
     5   6 C    3.776 --     3 C    1.436     6 C    1.026    16 N    0.953
                             4 O    0.140
     6   6 C    3.827 --     8 C    1.585     5 C    1.026     7 O    0.952
                             9 O    0.187
     7   8 O    1.905 --     6 C    0.952    21 H    0.840
     8   6 C    3.890 --     6 C    1.585     9 O    1.370    10 N    0.772
     9   8 O    1.719 --     8 C    1.370     6 C    0.187
    10   7 N    3.291 --    11 C    1.279    22 H    0.914     8 C    0.772
                            16 N    0.134
    11   6 C    3.934 --    16 N    1.428    10 N    1.279    12 C    0.969
    12   6 C    3.966 --    14 C    0.995    13 C    0.988    15 N    0.977
                            11 C    0.969
    13   6 C    3.994 --    12 C    0.988    24 H    0.986    25 H    0.984
                            23 H    0.981
    14   6 C    3.995 --    12 C    0.995    27 H    0.982    28 H    0.982
                            26 H    0.982
    15   7 N    2.993 --    12 C    0.977    30 H    0.943    29 H    0.942
    16   7 N    3.544 --    11 C    1.428     5 C    0.953    17 C    0.942
                            10 N    0.134
    17   6 C    3.947 --    31 H    0.983    32 H    0.976    33 H    0.969
                            16 N    0.942
    18   1 H    1.021 --     1 C    0.981
    19   1 H    1.019 --     1 C    0.987
    20   1 H    1.021 --     1 C    0.981
    21   1 H    0.914 --     7 O    0.840
    22   1 H    0.971 --    10 N    0.914
    23   1 H    1.006 --    13 C    0.981
    24   1 H    1.004 --    13 C    0.986
    25   1 H    1.001 --    13 C    0.984
    26   1 H    1.001 --    14 C    0.982
    27   1 H    1.004 --    14 C    0.982
    28   1 H    1.002 --    14 C    0.982
    29   1 H    0.959 --    15 N    0.942
    30   1 H    0.957 --    15 N    0.943
    31   1 H    1.019 --    17 C    0.983
    32   1 H    1.022 --    17 C    0.976
    33   1 H    1.031 --    17 C    0.969
 ---------------------------------------------------------------------------

           -------------------------------------------------
          | TOTAL ENERGY              -58.508711513751 Eh   |
          | GRADIENT NORM               0.000665727712 Eh/α |
          | HOMO-LUMO GAP               0.932772098189 eV   |
           -------------------------------------------------

 * finished run on 2023/06/20 at 14:59:08.861
