   * xtb version 6.5.1 (579679a) compiled by 'ehlert@majestix' on 2022-07-11
          program call               : /lustre/hpc/kemi/ree/PhD/git/ReactivityQM/dep/xtb-6.5.1/bin/xtb --gfn 1 /lustre/hpc/kemi/ree/PhD/git/ReactivityQM/calculations/R02deprot/reac01prodE07/conf17/R02deprot_reac01prodE07_conf17_gfn1.xyz --opt --vfukui --chrg -2 --uhf 0 --alpb DMSO

   ID    Z sym.   atoms
    1    6 C      1, 3, 5, 7-10, 12, 14, 15, 18, 19, 22, 24
    2    8 O      2, 4, 13, 20, 23, 25
    3    7 N      6, 11, 16, 17, 21
    4    1 H      26-42

      * Solvation model:               ALPB
        Solvent                        DMSO
        Solvent mass                       7.8130E+01 g/mol
          :  Hamiltonian                  GFN1-xTB          :
 * total energy  :   -83.5648030 Eh     change       -0.4263256E-13 Eh
 * total energy  :   -83.5793789 Eh     change       -0.1457584E-01 Eh
 * total energy  :   -83.5858902 Eh     change       -0.6511396E-02 Eh
 * total energy  :   -83.5874654 Eh     change       -0.1575108E-02 Eh
 * total energy  :   -83.5886438 Eh     change       -0.1178411E-02 Eh
 * total energy  :   -83.5891673 Eh     change       -0.5234935E-03 Eh
 * total energy  :   -83.5895445 Eh     change       -0.3772161E-03 Eh
 * total energy  :   -83.5898631 Eh     change       -0.3185817E-03 Eh
 * total energy  :   -83.5901890 Eh     change       -0.3259400E-03 Eh
 * total energy  :   -83.5905724 Eh     change       -0.3834430E-03 Eh
 * total energy  :   -83.5976665 Eh     change       -0.7189056E-05 Eh
 * total energy  :   -83.5976790 Eh     change       -0.1253856E-04 Eh
 * total energy  :   -83.5976910 Eh     change       -0.1200721E-04 Eh
 * total energy  :   -83.5977000 Eh     change       -0.8989242E-05 Eh
 * total energy  :   -83.5977192 Eh     change       -0.1914259E-04 Eh
 * total energy  :   -83.5977264 Eh     change       -0.7206775E-05 Eh
 * total energy  :   -83.5977352 Eh     change       -0.8837134E-05 Eh
 * total energy  :   -83.5977408 Eh     change       -0.5608117E-05 Eh
 * total energy  :   -83.5977450 Eh     change       -0.4150695E-05 Eh
   *** GEOMETRY OPTIMIZATION CONVERGED AFTER 86 ITERATIONS ***

 final structure:
================
42
 xtb: 6.5.1 (579679a)
C            5.36594521907375        2.95382221439658        0.60918471657894
O            4.70236648313480        1.75165215912251        0.99674837865776
C            3.56504365384380        1.46022107660998        0.31376807555924
O            3.16079612021791        2.19670465145861       -0.56421309234434
C            2.91273465416606        0.20587299496607        0.73578196609973
N            1.77193768398419       -0.06855684879234        0.03519621717547
C            1.12214829173927       -1.17802656293281        0.32851864959298
C           -0.16230728683116       -1.45694909677531       -0.44754704839420
C           -0.31951102697481       -2.96736437993173       -0.66157333821252
C           -0.12773254718176       -0.72668054647638       -1.79992994213949
N           -1.28775646542020       -0.96864336461960        0.39203767620815
C           -2.58420314517984       -1.06695969497140       -0.25436309130572
O           -3.30667644072442       -2.24416826773865        0.04610714214332
C           -4.08084892776541       -2.19292546446461        1.23582084307517
C           -3.27021244732593        0.06309693291859       -0.63107840700793
N           -4.57143707804143        0.18054579757135       -0.98991539778110
N           -4.73289971008054        1.49113824236266       -1.40360675617941
C           -3.59936927366847        2.08633504612130       -1.29333075283851
C           -3.28615093541663        3.50549871631651       -1.61208858437100
O           -2.60389806859078        1.26803229282286       -0.81469684404863
N            1.46652553290455       -2.06978181519488        1.25577315096905
C            2.58199523929198       -1.87800530271739        2.00463455044628
O            2.93819688607093       -2.69086813144959        2.88138284209455
C            3.34955007900137       -0.65489500386693        1.71931278430934
O            4.46535769601698       -0.48001779586144        2.47953670698125
H            6.25892685543294        3.03581101612026        1.22471272547199
H            4.71624036649192        3.81720939326010        0.77503870766883
H            5.64227787581435        2.91103347870221       -0.44761202590229
H            0.51995371670353       -3.35426904689365       -1.24018863515437
H           -1.24377526035415       -3.18327180474870       -1.19778855132039
H           -0.34399304497785       -3.47752224942320        0.30281370329193
H           -0.05881841219070        0.34981912965521       -1.64162971201857
H            0.73789866729931       -1.04966049731572       -2.37856883864489
H           -1.03421497508604       -0.94292056140664       -2.36655111566484
H           -1.10471933402358        0.01584196724817        0.59207453427003
H           -4.54780789831192       -3.17208179540695        1.37155856298412
H           -3.45857595317414       -1.97048477569776        2.11499470087079
H           -4.87010502394857       -1.43022857150351        1.16165155818374
H           -4.18409017101642        3.99741180571483       -1.97929300505170
H           -2.93170693851018        4.03295272887304       -0.72507279283585
H           -2.50886276220014        3.57145949758820       -2.37442826909605
H            4.94177710581808        0.32981943634894        2.24682700768958

          :  Hamiltonian                  GFN1-xTB          :
         :: total energy             -83.597744954785 Eh    ::
         :: gradient norm              0.000665428333 Eh/a0 ::
         :: HOMO-LUMO gap              0.260615729085 eV    ::
         :: SCC energy               -84.321964739911 Eh    ::
         :: -> Gsolv                  -0.273326885201 Eh    ::
         :: repulsion energy           0.749841769196 Eh    ::

    * Orbital Energies and Occupations

         #    Occupation            Energy/Eh            Energy/eV
      -------------------------------------------------------------
         1        2.0000           -0.8110592             -22.0700
       ...           ...                  ...                  ...
        56        2.0000           -0.4368142             -11.8863
        57        2.0000           -0.4152340             -11.2991
        58        2.0000           -0.4129533             -11.2370
        59        2.0000           -0.4063141             -11.0564
        60        2.0000           -0.4011854             -10.9168
        61        2.0000           -0.3923264             -10.6757
        62        2.0000           -0.3835935             -10.4381
        63        2.0000           -0.3788425             -10.3088
        64        2.0000           -0.3655576              -9.9473
        65        2.0000           -0.3565940              -9.7034
        66        2.0000           -0.3534751              -9.6185
        67        2.0000           -0.3532093              -9.6113
        68        1.9871           -0.2765120              -7.5243 (HOMO)
        69        0.0129           -0.2669345              -7.2637 (LUMO)
        70                         -0.2083410              -5.6692
        71                         -0.1796721              -4.8891
        72                         -0.1769631              -4.8154
        73                         -0.1363750              -3.7110
        74                         -0.1227725              -3.3408
        75                         -0.1116703              -3.0387
        76                         -0.1024132              -2.7868
        77                         -0.0906798              -2.4675
        78                         -0.0859116              -2.3378
        79                         -0.0805660              -2.1923
       ...                                ...                  ...
       134                          0.7431607              20.2224
      -------------------------------------------------------------
                  HL-Gap            0.0095775 Eh            0.2606 eV

Wiberg/Mayer (AO) data.
largest (>0.10) Wiberg bond orders for each atom

     #   Z sym  total        # sym  WBO       # sym  WBO       # sym  WBO
 ---------------------------------------------------------------------------
     1   6 C    3.883 --    26 H    0.987    28 H    0.981    27 H    0.981
                             2 O    0.906
     2   8 O    2.175 --     3 C    1.045     1 C    0.906     4 O    0.116
     3   6 C    3.822 --     4 O    1.639     2 O    1.045     5 C    1.041
     4   8 O    1.899 --     3 C    1.639     2 O    0.116
     5   6 C    3.961 --    24 C    1.460     6 N    1.212     3 C    1.041
     6   7 N    2.991 --     7 C    1.448     5 C    1.212
     7   6 C    3.948 --     6 N    1.448    21 N    1.367     8 C    0.973
     8   6 C    3.970 --     9 C    0.997    10 C    0.991     7 C    0.973
                            11 N    0.946
     9   6 C    3.997 --     8 C    0.997    29 H    0.989    30 H    0.985
                            31 H    0.983
    10   6 C    3.996 --     8 C    0.991    33 H    0.987    34 H    0.985
                            32 H    0.983
    11   7 N    3.011 --    12 C    0.962    35 H    0.948     8 C    0.946
    12   6 C    3.673 --    15 C    1.459    11 N    0.962    13 O    0.917
                            16 N    0.146
    13   8 O    1.993 --    14 C    0.951    12 C    0.917
    14   6 C    3.940 --    36 H    0.986    37 H    0.982    38 H    0.981
                            13 O    0.951
    15   6 C    3.862 --    12 C    1.459    16 N    1.296    20 O    0.959
    16   7 N    2.802 --    15 C    1.296    17 N    1.148    12 C    0.146
                            18 C    0.114
    17   7 N    2.985 --    18 C    1.675    16 N    1.148
    18   6 C    3.884 --    17 N    1.675    19 C    1.018    20 O    0.997
                            16 N    0.114
    19   6 C    3.996 --    18 C    1.018    39 H    0.987    41 H    0.976
                            40 H    0.975
    20   8 O    2.188 --    18 C    0.997    15 C    0.959
    21   7 N    2.976 --     7 C    1.367    22 C    1.246    23 O    0.125
    22   6 C    3.932 --    23 O    1.475    21 N    1.246    24 C    1.078
    23   8 O    1.760 --    22 C    1.475    21 N    0.125
    24   6 C    3.890 --     5 C    1.460    22 C    1.078    25 O    1.048
    25   8 O    2.033 --    24 C    1.048    42 H    0.828
    26   1 H    1.013 --     1 C    0.987
    27   1 H    1.011 --     1 C    0.981
    28   1 H    1.011 --     1 C    0.981
    29   1 H    1.010 --     9 C    0.989
    30   1 H    1.018 --     9 C    0.985
    31   1 H    1.030 --     9 C    0.983
    32   1 H    1.025 --    10 C    0.983
    33   1 H    1.012 --    10 C    0.987
    34   1 H    1.020 --    10 C    0.985
    35   1 H    0.987 --    11 N    0.948
    36   1 H    1.023 --    14 C    0.986
    37   1 H    1.021 --    14 C    0.982
    38   1 H    1.030 --    14 C    0.981
    39   1 H    1.008 --    19 C    0.987
    40   1 H    1.007 --    19 C    0.975
    41   1 H    1.007 --    19 C    0.976
    42   1 H    0.880 --    25 O    0.828
 ---------------------------------------------------------------------------

           -------------------------------------------------
          | TOTAL ENERGY              -83.597744954785 Eh   |
          | GRADIENT NORM               0.000665428333 Eh/α |
          | HOMO-LUMO GAP               0.260615729085 eV   |
           -------------------------------------------------

 * finished run on 2023/06/20 at 17:49:11.507
