   * xtb version 6.5.1 (579679a) compiled by 'ehlert@majestix' on 2022-07-11
          program call               : /lustre/hpc/kemi/ree/PhD/git/ReactivityQM/dep/xtb-6.5.1/bin/xtb --gfn 1 /lustre/hpc/kemi/ree/PhD/git/ReactivityQM/calculations/R02methylcation/reac01prodN15/conf16/R02methylcation_reac01prodN15_conf16_gfn1.xyz --opt --vfukui --chrg 0 --uhf 0 --alpb DMSO

   ID    Z sym.   atoms
    1    6 C      1, 3, 5, 7-10, 12, 14, 17, 18, 21, 23, 24
    2    8 O      2, 4, 13, 19, 22, 25
    3    7 N      6, 11, 15, 16, 20
    4    1 H      26-42

      * Solvation model:               ALPB
        Solvent                        DMSO
        Solvent mass                       7.8130E+01 g/mol
          :  Hamiltonian                  GFN1-xTB          :
 * total energy  :   -82.8915973 Eh     change        0.3154810E-11 Eh
 * total energy  :   -82.9114232 Eh     change       -0.1982584E-01 Eh
 * total energy  :   -82.9296592 Eh     change       -0.1823607E-01 Eh
 * total energy  :   -82.9474749 Eh     change       -0.1781572E-01 Eh
 * total energy  :   -82.9554236 Eh     change       -0.7948694E-02 Eh
 * total energy  :   -82.9656413 Eh     change       -0.1021768E-01 Eh
 * total energy  :   -82.9637714 Eh     change        0.1869871E-02 Eh
 * total energy  :   -82.9742638 Eh     change       -0.1049234E-01 Eh
 * total energy  :   -82.9776580 Eh     change       -0.3394209E-02 Eh
 * total energy  :   -82.9835295 Eh     change       -0.5871467E-02 Eh
 * total energy  :   -83.0041085 Eh     change       -0.5939359E-05 Eh
 * total energy  :   -83.0041138 Eh     change       -0.5329059E-05 Eh
 * total energy  :   -83.0041234 Eh     change       -0.9566142E-05 Eh
 * total energy  :   -83.0041285 Eh     change       -0.5100153E-05 Eh
 * total energy  :   -83.0041355 Eh     change       -0.7048067E-05 Eh
 * total energy  :   -83.0041443 Eh     change       -0.8773912E-05 Eh
 * total energy  :   -83.0041498 Eh     change       -0.5450953E-05 Eh
 * total energy  :   -83.0041548 Eh     change       -0.5062625E-05 Eh
 * total energy  :   -83.0041591 Eh     change       -0.4240013E-05 Eh
   *** GEOMETRY OPTIMIZATION CONVERGED AFTER 53 ITERATIONS ***

 final structure:
================
42
 xtb: 6.5.1 (579679a)
C           -5.33643899874696        0.43945045059859        2.15232843000708
O           -4.14161104369955        0.27634454081431        1.37562866763952
C           -4.12987478362510        0.83950223285034        0.17971577055876
O           -5.04849515130952        1.46034948695342       -0.29223229453423
C           -2.81983083319757        0.57336101832917       -0.54518003910836
N           -1.75142334883527        0.19288339191419        0.29751038410199
C           -0.69663326271840       -0.29658735472618       -0.22248520554580
C            0.48305675572177       -0.65534054330529        0.65684427061376
C            0.37165730418604        0.05264072961944        2.00994095630602
C            0.50154892462539       -2.18167296496342        0.83080298872232
N            1.69209051536696       -0.21190709556752       -0.04321030084791
C            2.93924892310966       -0.40804573529567        0.44382496204225
O            3.22093126254341       -1.06197624185792        1.43034663454934
C            3.94548783068937        0.28363899435298       -0.40106026396236
N            3.69291935720509        1.03349020582007       -1.43163821990718
N            4.89291667484438        1.47758538981988       -1.89779901744994
C            5.80201875311691        0.97154830493749       -1.11994929027693
C            7.26763212442221        1.15226581021124       -1.20659729094147
O            5.26559664079090        0.21025735060126       -0.15513169086991
N           -0.58176651307771       -0.62959878439940       -1.55748180686598
C           -1.65571355965258       -0.67642571905822       -2.41734797343247
O           -1.63384299581468       -1.34556087732801       -3.42738362981954
C           -2.83466319962470        0.14299419831324       -1.98578547984929
C           -4.10021267280602       -0.05642924439293       -2.78430467376907
O           -2.51062188105374        1.45039004689518       -1.58618414018945
H           -5.17553315921506       -0.09978599535588        3.08273471316144
H           -5.51039952840097        1.49934367828695        2.34853570704361
H           -6.18922482195597        0.02398317654843        1.61197732645690
H           -0.55776799802387       -0.24025624019771        2.49506421777999
H            1.21046758921182       -0.22619088743652        2.64448053860590
H            0.37053216136600        1.13211222449934        1.86755095258685
H           -0.45317014547961       -2.50880414693502        1.23936028405568
H            1.29798352911387       -2.47137321592651        1.51306901158621
H            0.66290504271158       -2.66695848616700       -0.12997096969616
H            1.58937405251199        0.42893969756117       -0.81638805451101
H            7.51015171641866        1.76775024111116       -2.06914581352378
H            7.63830357880162        1.63125277981975       -0.30070400182254
H            7.75625124387593        0.18292544965072       -1.29903064965800
H            0.22703356200941       -1.15935261652243       -1.84710014172267
H           -4.54502252845155       -1.01964627600508       -2.54090392605266
H           -3.85537603336142       -0.04525931478754       -3.84614484917085
H           -4.81048308359651        0.73816334072517       -2.56932409229067

          :  Hamiltonian                  GFN1-xTB          :
         :: total energy             -83.004159075705 Eh    ::
         :: gradient norm              0.000461890339 Eh/a0 ::
         :: HOMO-LUMO gap              3.714666086639 eV    ::
         :: SCC energy               -83.776166006586 Eh    ::
         :: -> Gsolv                  -0.049342060482 Eh    ::
         :: repulsion energy           0.797314619552 Eh    ::

    * Orbital Energies and Occupations

         #    Occupation            Energy/Eh            Energy/eV
      -------------------------------------------------------------
         1        2.0000           -0.8656335             -23.5551
       ...           ...                  ...                  ...
        55        2.0000           -0.5091097             -13.8536
        56        2.0000           -0.5079246             -13.8213
        57        2.0000           -0.5061529             -13.7731
        58        2.0000           -0.5041052             -13.7174
        59        2.0000           -0.4852581             -13.2045
        60        2.0000           -0.4798431             -13.0572
        61        2.0000           -0.4709370             -12.8148
        62        2.0000           -0.4682866             -12.7427
        63        2.0000           -0.4659938             -12.6803
        64        2.0000           -0.4628299             -12.5942
        65        2.0000           -0.4545145             -12.3680
        66        2.0000           -0.4513106             -12.2808
        67        2.0000           -0.4503299             -12.2541 (HOMO)
        68                         -0.3138185              -8.5394 (LUMO)
        69                         -0.3049014              -8.2968
        70                         -0.2908657              -7.9149
        71                         -0.2617376              -7.1222
        72                         -0.2586316              -7.0377
        73                         -0.2017250              -5.4892
        74                         -0.1438586              -3.9146
        75                         -0.1430029              -3.8913
        76                         -0.1330973              -3.6218
        77                         -0.1303623              -3.5473
        78                         -0.1256766              -3.4198
       ...                                ...                  ...
       134                          0.7247635              19.7218
      -------------------------------------------------------------
                  HL-Gap            0.1365115 Eh            3.7147 eV

Wiberg/Mayer (AO) data.
largest (>0.10) Wiberg bond orders for each atom

     #   Z sym  total        # sym  WBO       # sym  WBO       # sym  WBO
 ---------------------------------------------------------------------------
     1   6 C    3.860 --    26 H    0.986    28 H    0.979    27 H    0.979
                             2 O    0.884
     2   8 O    2.219 --     3 C    1.144     1 C    0.884     4 O    0.142
     3   6 C    3.851 --     4 O    1.683     2 O    1.144     5 C    0.938
     4   8 O    1.952 --     3 C    1.683     2 O    0.142
     5   6 C    3.868 --     6 N    1.029     3 C    0.938    25 O    0.906
                            23 C    0.830
     6   7 N    3.025 --     7 C    1.710     5 C    1.029
     7   6 C    3.928 --     6 N    1.710    20 N    1.108     8 C    0.978
     8   6 C    3.934 --     9 C    0.991     7 C    0.978    10 C    0.976
                            11 N    0.924
     9   6 C    3.989 --     8 C    0.991    31 H    0.985    29 H    0.983
                            30 H    0.982
    10   6 C    3.987 --    32 H    0.985    34 H    0.984    33 H    0.977
                             8 C    0.976
    11   7 N    3.331 --    12 C    1.238     8 C    0.924    35 H    0.894
                            13 O    0.174
    12   6 C    3.915 --    13 O    1.603    11 N    1.238    14 C    0.990
    13   8 O    1.919 --    12 C    1.603    11 N    0.174
    14   6 C    3.876 --    15 N    1.609    19 O    1.065    12 C    0.990
    15   7 N    3.018 --    14 C    1.609    16 N    1.201
    16   7 N    2.981 --    17 C    1.603    15 N    1.201
    17   6 C    3.870 --    16 N    1.603    19 O    1.083    18 C    1.032
    18   6 C    3.986 --    17 C    1.032    36 H    0.982    38 H    0.964
                            37 H    0.962
    19   8 O    2.332 --    17 C    1.083    14 C    1.065
    20   7 N    3.415 --    21 C    1.138     7 C    1.108    39 H    0.885
                            22 O    0.126
    21   6 C    3.892 --    22 O    1.658    20 N    1.138    23 C    0.980
    22   8 O    1.936 --    21 C    1.658    20 N    0.126
    23   6 C    3.860 --    24 C    1.002    21 C    0.980    25 O    0.896
                             5 C    0.830
    24   6 C    3.984 --    23 C    1.002    40 H    0.980    42 H    0.979
                            41 H    0.975
    25   8 O    1.967 --     5 C    0.906    23 C    0.896
    26   1 H    1.009 --     1 C    0.986
    27   1 H    1.005 --     1 C    0.979
    28   1 H    1.005 --     1 C    0.979
    29   1 H    1.009 --     9 C    0.983
    30   1 H    1.006 --     9 C    0.982
    31   1 H    1.004 --     9 C    0.985
    32   1 H    1.001 --    10 C    0.985
    33   1 H    1.009 --    10 C    0.977
    34   1 H    1.000 --    10 C    0.984
    35   1 H    0.951 --    11 N    0.894
    36   1 H    0.998 --    18 C    0.982
    37   1 H    0.996 --    18 C    0.962
    38   1 H    0.996 --    18 C    0.964
    39   1 H    0.931 --    20 N    0.885
    40   1 H    1.000 --    24 C    0.980
    41   1 H    1.002 --    24 C    0.975
    42   1 H    1.009 --    24 C    0.979
 ---------------------------------------------------------------------------

           -------------------------------------------------
          | TOTAL ENERGY              -83.004159075705 Eh   |
          | GRADIENT NORM               0.000461890339 Eh/α |
          | HOMO-LUMO GAP               3.714666086639 eV   |
           -------------------------------------------------

 * finished run on 2023/06/21 at 17:57:09.989
