   * xtb version 6.5.1 (579679a) compiled by 'ehlert@majestix' on 2022-07-11
          program call               : /lustre/hpc/kemi/ree/PhD/git/ReactivityQM/dep/xtb-6.5.1/bin/xtb --gfn 1 /lustre/hpc/kemi/ree/PhD/git/ReactivityQM/calculations/R02oxygendeprot/reac01prodE13/conf04/R02oxygendeprot_reac01prodE13_conf04_gfn1.xyz --opt --vfukui --chrg -2 --uhf 0 --alpb DMSO

   ID    Z sym.   atoms
    1    6 C      1, 3, 5, 6, 8, 10, 12-15, 17, 19, 22, 23
    2    8 O      2, 4, 7, 9, 18, 24
    3    7 N      11, 16, 20, 21, 25
    4    1 H      26-42

      * Solvation model:               ALPB
        Solvent                        DMSO
        Solvent mass                       7.8130E+01 g/mol
          :  Hamiltonian                  GFN1-xTB          :
 * total energy  :   -83.5662886 Eh     change       -0.8999734E-10 Eh
 * total energy  :   -83.5804350 Eh     change       -0.1414648E-01 Eh
 * total energy  :   -83.5859497 Eh     change       -0.5514606E-02 Eh
 * total energy  :   -83.5868657 Eh     change       -0.9160874E-03 Eh
 * total energy  :   -83.5872782 Eh     change       -0.4124846E-03 Eh
 * total energy  :   -83.5873940 Eh     change       -0.1157805E-03 Eh
 * total energy  :   -83.5874817 Eh     change       -0.8770278E-04 Eh
 * total energy  :   -83.5875625 Eh     change       -0.8084127E-04 Eh
 * total energy  :   -83.5876629 Eh     change       -0.1003315E-03 Eh
 * total energy  :   -83.5878293 Eh     change       -0.1663850E-03 Eh
 * total energy  :   -83.5938474 Eh     change       -0.9696436E-05 Eh
 * total energy  :   -83.5938591 Eh     change       -0.1167902E-04 Eh
 * total energy  :   -83.5938689 Eh     change       -0.9790792E-05 Eh
 * total energy  :   -83.5938661 Eh     change        0.2801006E-05 Eh
 * total energy  :   -83.5938762 Eh     change       -0.1014046E-04 Eh
 * total energy  :   -83.5938851 Eh     change       -0.8895901E-05 Eh
 * total energy  :   -83.5938919 Eh     change       -0.6739937E-05 Eh
 * total energy  :   -83.5939012 Eh     change       -0.9364163E-05 Eh
 * total energy  :   -83.5939055 Eh     change       -0.4282634E-05 Eh
   *** GEOMETRY OPTIMIZATION CONVERGED AFTER 78 ITERATIONS ***

 final structure:
================
42
 xtb: 6.5.1 (579679a)
C            3.89920697410058        3.79030093550089       -0.64550749243267
O            3.75726028431790        2.38851307114184       -0.62428945848077
C            2.45758089542028        1.92918396812508       -0.36299037077235
O            1.55926372072195        2.78277783902865       -0.18324462473037
C            2.30382032747905        0.52917261330893       -0.32752747831963
C            3.37894575326427       -0.46971105687646       -0.51850230467868
O            4.58438951687160       -0.16157670149877       -0.78344177200304
C            2.95908122024747       -1.79491952388587       -0.37792888139025
O            3.77793749678131       -2.92202644770446       -0.46281390606048
C            4.49408962805102       -3.07963052939295       -1.68077020168105
N            1.61249511339135       -2.12687034771630       -0.12910771978887
C            0.68659328243954       -1.13005711250640        0.04292324255588
C           -0.74596189332972       -1.55972548114174        0.33329362436089
C           -1.28153783066195       -2.39106630159962       -0.84833350318197
C           -0.79411963097333       -2.38474461572688        1.63031434925489
N           -1.52337025458097       -0.34152502053429        0.50165587563216
C           -2.90113317465959       -0.33650585161561        0.60284491050672
O           -3.57315693088062       -1.35539623939957        0.87479800014324
C           -3.44863736828410        0.97745227871984        0.41477639284365
N           -2.76929286842514        2.08485543396087        0.11681765302554
N           -3.69098672638488        3.08937116783590        0.00862602421249
C           -4.85301208762053        2.57185077474697        0.23575322843300
C           -6.16200653335041        3.27097447600476        0.22683600476191
O           -4.79994603659047        1.24494545253882        0.50253964112697
N            0.98994471355343        0.11268035029975       -0.05380939637963
H            4.94641096014632        4.01077999816223       -0.86133855884998
H            3.63212709176128        4.23875915653505        0.32113453160127
H            3.27060865890959        4.24934402808856       -1.42061291042524
H            5.01433860631469       -4.03832131488492       -1.62182140543578
H            5.23120139634600       -2.27653191190844       -1.81645211122459
H            3.81580174232495       -3.09289893587372       -2.54476650662822
H            1.38653850049037       -3.09722034285428       -0.01685194956417
H           -0.64577869386738       -3.25978291308455       -1.00830101951812
H           -2.29391499680808       -2.73556517352876       -0.64291404623701
H           -1.28871350484376       -1.78938270816794       -1.75698107922169
H           -0.41924235091418       -1.79044016924992        2.46394171791843
H           -0.18119496972448       -3.27867576810051        1.53071756304291
H           -1.81775089864461       -2.68850720556165        1.84452808865207
H           -1.08694871503290        0.49400318693677        0.10899149227203
H           -6.82607699703763        2.82563875963396       -0.51443531334260
H           -6.64401136478099        3.18928195776292        1.20122744428372
H           -6.01084105554027        4.32119922447553       -0.01161377429540

          :  Hamiltonian                  GFN1-xTB          :
         :: total energy             -83.593905510219 Eh    ::
         :: gradient norm              0.000794757729 Eh/a0 ::
         :: HOMO-LUMO gap              0.046290593925 eV    ::
         :: SCC energy               -84.320790880731 Eh    ::
         :: -> Gsolv                  -0.282831055523 Eh    ::
         :: repulsion energy           0.751735778063 Eh    ::

    * Orbital Energies and Occupations

         #    Occupation            Energy/Eh            Energy/eV
      -------------------------------------------------------------
         1        2.0000           -0.8037033             -21.8699
       ...           ...                  ...                  ...
        56        2.0000           -0.4337711             -11.8035
        57        2.0000           -0.4311358             -11.7318
        58        2.0000           -0.4258086             -11.5868
        59        2.0000           -0.4087492             -11.1226
        60        2.0000           -0.4059409             -11.0462
        61        2.0000           -0.4051545             -11.0248
        62        2.0000           -0.3975132             -10.8169
        63        2.0000           -0.3896178             -10.6020
        64        2.0000           -0.3877746             -10.5519
        65        2.0000           -0.3834438             -10.4340
        66        2.0000           -0.3410979              -9.2817
        67        2.0000           -0.3347990              -9.1103
        68        1.4200           -0.2669594              -7.2643 (HOMO)
        69        0.5800           -0.2652583              -7.2180 (LUMO)
        70                         -0.2116308              -5.7588
        71                         -0.1993421              -5.4244
        72                         -0.1620841              -4.4105
        73                         -0.1403680              -3.8196
        74                         -0.1256162              -3.4182
        75                         -0.1067990              -2.9061
        76                         -0.1052896              -2.8651
        77                         -0.1048659              -2.8535
        78                         -0.0978160              -2.6617
        79                         -0.0732526              -1.9933
       ...                                ...                  ...
       134                          0.7132038              19.4073
      -------------------------------------------------------------
                  HL-Gap            0.0017011 Eh            0.0463 eV

Wiberg/Mayer (AO) data.
largest (>0.10) Wiberg bond orders for each atom

     #   Z sym  total        # sym  WBO       # sym  WBO       # sym  WBO
 ---------------------------------------------------------------------------
     1   6 C    3.924 --    26 H    0.987    27 H    0.980    28 H    0.980
                             2 O    0.957
     2   8 O    2.067 --     1 C    0.957     3 C    0.943
     3   6 C    3.787 --     4 O    1.438     5 C    1.302     2 O    0.943
     4   8 O    1.695 --     3 C    1.438
     5   6 C    3.753 --     3 C    1.302    25 N    1.098     6 C    1.071
     6   6 C    3.924 --     7 O    1.383     8 C    1.346     5 C    1.071
     7   8 O    1.680 --     6 C    1.383     8 C    0.119
     8   6 C    3.531 --     6 C    1.346    11 N    1.007     9 O    0.947
                             7 O    0.119
     9   8 O    2.009 --     8 C    0.947    10 C    0.935
    10   6 C    3.910 --    29 H    0.987    31 H    0.983    30 H    0.978
                             9 O    0.935
    11   7 N    3.241 --    12 C    1.126     8 C    1.007    32 H    0.910
                            25 N    0.108
    12   6 C    3.929 --    25 N    1.618    11 N    1.126    13 C    0.973
    13   6 C    3.952 --    15 C    0.985    14 C    0.980    12 C    0.973
                            16 N    0.951
    14   6 C    3.990 --    35 H    0.987    33 H    0.986    34 H    0.981
                            13 C    0.980
    15   6 C    3.991 --    36 H    0.987    37 H    0.986    13 C    0.985
                            38 H    0.981
    16   7 N    3.192 --    17 C    1.133    13 C    0.951    39 H    0.895
                            18 O    0.123
    17   6 C    3.774 --    18 O    1.443    16 N    1.133    19 C    1.129
    18   8 O    1.699 --    17 C    1.443    16 N    0.123
    19   6 C    3.693 --    20 N    1.414    17 C    1.129    24 O    0.980
    20   7 N    2.763 --    19 C    1.414    21 N    1.186
    21   7 N    2.981 --    22 C    1.628    20 N    1.186
    22   6 C    3.821 --    21 N    1.628    24 O    1.051    23 C    1.024
    23   6 C    3.994 --    22 C    1.024    42 H    0.986    40 H    0.971
                            41 H    0.971
    24   8 O    2.188 --    22 C    1.051    19 C    0.980
    25   7 N    2.982 --    12 C    1.618     5 C    1.098    11 N    0.108
    26   1 H    1.021 --     1 C    0.987
    27   1 H    1.022 --     1 C    0.980
    28   1 H    1.022 --     1 C    0.980
    29   1 H    1.020 --    10 C    0.987
    30   1 H    1.039 --    10 C    0.978
    31   1 H    1.014 --    10 C    0.983
    32   1 H    0.960 --    11 N    0.910
    33   1 H    1.006 --    14 C    0.986
    34   1 H    1.016 --    14 C    0.981
    35   1 H    1.007 --    14 C    0.987
    36   1 H    1.010 --    15 C    0.987
    37   1 H    1.006 --    15 C    0.986
    38   1 H    1.020 --    15 C    0.981
    39   1 H    0.997 --    16 N    0.895
    40   1 H    1.001 --    23 C    0.971
    41   1 H    1.001 --    23 C    0.971
    42   1 H    1.004 --    23 C    0.986
 ---------------------------------------------------------------------------

           -------------------------------------------------
          | TOTAL ENERGY              -83.593905510219 Eh   |
          | GRADIENT NORM               0.000794757729 Eh/α |
          | HOMO-LUMO GAP               0.046290593925 eV   |
           -------------------------------------------------

 * finished run on 2023/06/21 at 17:14:41.127
