                         Program Version 5.0.1 -  RELEASE  -
|  1> # ORCA input file
|  2> ! SP r2SCAN-3c CPCM
|  3>
|  4> %maxcore 1875.0
|  5> %pal nprocs 4 end
|  6> %cpcm smd true SMDsolvent "DMSO" end
|  7>
|  8> *xyz 0 1
|  9> C      -5.986170    0.553024   -0.573989
| 10> O      -4.893096    0.267189    0.313291
| 11> C      -3.702009    0.122073   -0.227919
| 12> C      -3.025508    0.298583    2.229058
| 13> O      -3.458752    0.190653   -1.403078
| 14> C      -2.618390   -0.197548    0.841613
| 15> N      -1.421179    0.487894    0.413800
| 16> C      -0.582024   -0.079480   -0.349766
| 17> C       0.607781    0.721163   -0.862215
| 18> C       0.579832    2.118759   -0.241444
| 19> C       0.554522    0.827625   -2.391176
| 20> N       1.860422    0.091541   -0.423170
| 21> C       2.412848   -1.026272   -0.929807
| 22> O       1.908458   -1.754510   -1.774043
| 23> C       3.736474   -1.326718   -0.334344
| 24> N       4.517632   -2.327419   -0.598191
| 25> N       5.619477   -2.184576    0.189260
| 26> C       5.444433   -1.105183    0.886491
| 27> C       6.354105   -0.511892    1.889842
| 28> O       4.271509   -0.514730    0.603564
| 29> N      -0.689247   -1.392328   -0.775477
| 30> C      -1.567439   -2.291906   -0.259587
| 31> O      -1.587000   -3.457723   -0.588512
| 32> C      -2.516317   -1.712581    0.797242
| 33> O      -3.164408   -2.427812    1.516092
| 34> H      -6.876919    0.610815    0.047113
| 35> H      -6.081911   -0.244182   -1.313569
| 36> H      -5.809490    1.503543   -1.080044
| 37> H      -3.897429   -0.250079    2.580033
| 38> H      -3.255982    1.360348    2.187237
| 39> H      -2.199083    0.140956    2.919380
| 40> H       1.432052    2.696403   -0.593169
| 41> H       0.615903    2.050094    0.844412
| 42> H      -0.338823    2.628798   -0.525977
| 43> H       1.424722    1.377986   -2.743751
| 44> H      -0.347660    1.366002   -2.677772
| 45> H       0.543789   -0.152860   -2.861800
| 46> H       2.389033    0.600744    0.266392
| 47> H       6.657893    0.484796    1.570291
| 48> H       7.233003   -1.141170    2.008153
| 49> H       5.839518   -0.415029    2.845478
| 50> H       0.015426   -1.747518   -1.419943
| 51> **                         ****END OF INPUT****

CARTESIAN COORDINATES (ANGSTROEM)
---------------------------------
  C     -5.986170    0.553024   -0.573989
  O     -4.893096    0.267189    0.313291
  C     -3.702009    0.122073   -0.227919
  C     -3.025508    0.298583    2.229058
  O     -3.458752    0.190653   -1.403078
  C     -2.618390   -0.197548    0.841613
  N     -1.421179    0.487894    0.413800
  C     -0.582024   -0.079480   -0.349766
  C      0.607781    0.721163   -0.862215
  C      0.579832    2.118759   -0.241444
  C      0.554522    0.827625   -2.391176
  N      1.860422    0.091541   -0.423170
  C      2.412848   -1.026272   -0.929807
  O      1.908458   -1.754510   -1.774043
  C      3.736474   -1.326718   -0.334344
  N      4.517632   -2.327419   -0.598191
  N      5.619477   -2.184576    0.189260
  C      5.444433   -1.105183    0.886491
  C      6.354105   -0.511892    1.889842
  O      4.271509   -0.514730    0.603564
  N     -0.689247   -1.392328   -0.775477
  C     -1.567439   -2.291906   -0.259587
  O     -1.587000   -3.457723   -0.588512
  C     -2.516317   -1.712581    0.797242
  O     -3.164408   -2.427812    1.516092
  H     -6.876919    0.610815    0.047113
  H     -6.081911   -0.244182   -1.313569
  H     -5.809490    1.503543   -1.080044
  H     -3.897429   -0.250079    2.580033
  H     -3.255982    1.360348    2.187237
  H     -2.199083    0.140956    2.919380
  H      1.432052    2.696403   -0.593169
  H      0.615903    2.050094    0.844412
  H     -0.338823    2.628798   -0.525977
  H      1.424722    1.377986   -2.743751
  H     -0.347660    1.366002   -2.677772
  H      0.543789   -0.152860   -2.861800
  H      2.389033    0.600744    0.266392
  H      6.657893    0.484796    1.570291
  H      7.233003   -1.141170    2.008153
  H      5.839518   -0.415029    2.845478
  H      0.015426   -1.747518   -1.419943

 Total Charge           Charge          ....    0
 Multiplicity           Mult            ....    1
 Number of Electrons    NEL             ....  184
 Basis Dimension        Dim             ....  615

ORBITAL ENERGIES
----------------

  NO   OCC          E(Eh)            E(eV)
   0   2.0000     -19.069231      -518.9002
   1   2.0000     -19.015006      -517.4246
   2   2.0000     -18.975284      -516.3437
   3   2.0000     -18.952935      -515.7356
   4   2.0000     -18.951369      -515.6930
   5   2.0000     -18.947832      -515.5967
   6   2.0000     -14.218886      -386.9156
   7   2.0000     -14.212554      -386.7433
   8   2.0000     -14.209191      -386.6518
   9   2.0000     -14.200323      -386.4104
  10   2.0000     -14.160679      -385.3317
  11   2.0000     -10.174307      -276.8570
  12   2.0000     -10.168868      -276.7090
  13   2.0000     -10.158922      -276.4383
  14   2.0000     -10.150576      -276.2112
  15   2.0000     -10.147474      -276.1268
  16   2.0000     -10.146785      -276.1081
  17   2.0000     -10.129177      -275.6289
  18   2.0000     -10.109620      -275.0967
  19   2.0000     -10.103916      -274.9415
  20   2.0000     -10.082253      -274.3521
  21   2.0000     -10.046618      -273.3824
  22   2.0000     -10.026344      -272.8307
  23   2.0000     -10.026268      -272.8286
  24   2.0000     -10.024560      -272.7821
  25   2.0000      -1.159029       -31.5388
  26   2.0000      -1.093118       -29.7453
  27   2.0000      -1.053677       -28.6720
  28   2.0000      -1.036765       -28.2118
  29   2.0000      -1.026843       -27.9418
  30   2.0000      -1.003352       -27.3026
  31   2.0000      -0.979568       -26.6554
  32   2.0000      -0.965592       -26.2751
  33   2.0000      -0.922475       -25.1018
  34   2.0000      -0.880377       -23.9563
  35   2.0000      -0.835499       -22.7351
  36   2.0000      -0.793853       -21.6018
  37   2.0000      -0.756269       -20.5791
  38   2.0000      -0.716088       -19.4857
  39   2.0000      -0.702378       -19.1127
  40   2.0000      -0.684832       -18.6352
  41   2.0000      -0.673290       -18.3212
  42   2.0000      -0.666223       -18.1288
  43   2.0000      -0.630143       -17.1471
  44   2.0000      -0.616537       -16.7768
  45   2.0000      -0.606892       -16.5144
  46   2.0000      -0.591215       -16.0878
  47   2.0000      -0.559867       -15.2348
  48   2.0000      -0.551240       -15.0000
  49   2.0000      -0.538983       -14.6665
  50   2.0000      -0.529020       -14.3954
  51   2.0000      -0.517448       -14.0805
  52   2.0000      -0.507291       -13.8041
  53   2.0000      -0.498206       -13.5569
  54   2.0000      -0.469975       -12.7887
  55   2.0000      -0.461390       -12.5551
  56   2.0000      -0.458601       -12.4792
  57   2.0000      -0.453210       -12.3325
  58   2.0000      -0.447596       -12.1797
  59   2.0000      -0.432688       -11.7740
  60   2.0000      -0.430276       -11.7084
  61   2.0000      -0.423848       -11.5335
  62   2.0000      -0.419945       -11.4273
  63   2.0000      -0.412774       -11.2322
  64   2.0000      -0.406898       -11.0723
  65   2.0000      -0.399383       -10.8678
  66   2.0000      -0.392465       -10.6795
  67   2.0000      -0.387370       -10.5409
  68   2.0000      -0.382964       -10.4210
  69   2.0000      -0.380674       -10.3587
  70   2.0000      -0.370112       -10.0713
  71   2.0000      -0.365265        -9.9394
  72   2.0000      -0.360997        -9.8232
  73   2.0000      -0.358095        -9.7443
  74   2.0000      -0.355679        -9.6785
  75   2.0000      -0.354870        -9.6565
  76   2.0000      -0.348035        -9.4705
  77   2.0000      -0.343554        -9.3486
  78   2.0000      -0.334220        -9.0946
  79   2.0000      -0.328272        -8.9327
  80   2.0000      -0.320162        -8.7120
  81   2.0000      -0.317109        -8.6290
  82   2.0000      -0.295698        -8.0463
  83   2.0000      -0.288101        -7.8396
  84   2.0000      -0.272327        -7.4104
  85   2.0000      -0.269728        -7.3397
  86   2.0000      -0.265210        -7.2167
  87   2.0000      -0.262432        -7.1411
  88   2.0000      -0.259468        -7.0605
  89   2.0000      -0.247483        -6.7343
  90   2.0000      -0.245804        -6.6887
  91   2.0000      -0.222282        -6.0486
  92   0.0000      -0.121421        -3.3040
  93   0.0000      -0.093569        -2.5462
  94   0.0000      -0.056075        -1.5259
  95   0.0000      -0.023334        -0.6349
  96   0.0000      -0.006934        -0.1887

MULLIKEN ATOMIC CHARGES
-----------------------
   0 C :   -0.318299
   1 O :   -0.139761
   2 C :    0.285244
   3 C :   -0.559909
   4 O :   -0.395692
   5 C :    0.153997
   6 N :   -0.200584
   7 C :    0.189180
   8 C :   -0.010432
   9 C :   -0.589621
  10 C :   -0.554740
  11 N :   -0.058174
  12 C :   -0.063367
  13 O :   -0.491025
  14 C :    0.385274
  15 N :   -0.171291
  16 N :   -0.274612
  17 C :    0.399746
  18 C :   -0.631428
  19 O :   -0.055618
  20 N :   -0.013450
  21 C :    0.051332
  22 O :   -0.362406
  23 C :    0.216471
  24 O :   -0.287746
  25 H :    0.182163
  26 H :    0.181582
  27 H :    0.181639
  28 H :    0.191594
  29 H :    0.189349
  30 H :    0.185640
  31 H :    0.187433
  32 H :    0.190728
  33 H :    0.199740
  34 H :    0.200095
  35 H :    0.192010
  36 H :    0.192555
  37 H :    0.325250
  38 H :    0.203110
  39 H :    0.205953
  40 H :    0.201988
  41 H :    0.286084
Sum of atomic charges:    0.0000000

LOEWDIN ATOMIC CHARGES
----------------------
   0 C :   -0.030865
   1 O :   -0.573072
   2 C :    0.403365
   3 C :   -0.321020
   4 O :   -0.386212
   5 C :    0.118289
   6 N :   -0.588615
   7 C :    0.362502
   8 C :    0.110911
   9 C :   -0.336378
  10 C :   -0.339364
  11 N :   -0.554033
  12 C :    0.387883
  13 O :   -0.483966
  14 C :    0.415311
  15 N :   -0.329029
  16 N :   -0.355195
  17 C :    0.382242
  18 C :   -0.316125
  19 O :   -0.392277
  20 N :   -0.459778
  21 C :    0.372488
  22 O :   -0.390170
  23 C :    0.329264
  24 O :   -0.382958
  25 H :    0.189492
  26 H :    0.185325
  27 H :    0.185497
  28 H :    0.183883
  29 H :    0.177757
  30 H :    0.174222
  31 H :    0.171019
  32 H :    0.178179
  33 H :    0.182114
  34 H :    0.178630
  35 H :    0.177052
  36 H :    0.181811
  37 H :    0.303630
  38 H :    0.193076
  39 H :    0.191749
  40 H :    0.192607
  41 H :    0.310759

  Mayer bond orders larger than 0.100000
B(  0-C ,  1-O ) :   0.8160 B(  0-C , 25-H ) :   0.9599 B(  0-C , 26-H ) :   0.9538
B(  0-C , 27-H ) :   0.9536 B(  1-O ,  2-C ) :   1.1589 B(  2-C ,  4-O ) :   1.8236
B(  2-C ,  5-C ) :   1.0018 B(  3-C ,  5-C ) :   0.8870 B(  3-C , 28-H ) :   0.9750
B(  3-C , 29-H ) :   0.9596 B(  3-C , 30-H ) :   0.9792 B(  5-C ,  6-N ) :   0.6766
B(  5-C , 23-C ) :   0.7648 B(  6-N ,  7-C ) :   1.9214 B(  7-C ,  8-C ) :   1.0249
B(  7-C , 20-N ) :   1.0280 B(  8-C ,  9-C ) :   0.9079 B(  8-C , 10-C ) :   0.8974
B(  8-C , 11-N ) :   0.8363 B(  9-C , 31-H ) :   0.9670 B(  9-C , 32-H ) :   0.9594
B(  9-C , 33-H ) :   0.9659 B( 10-C , 34-H ) :   0.9749 B( 10-C , 35-H ) :   0.9570
B( 10-C , 36-H ) :   0.9331 B( 11-N , 12-C ) :   1.2000 B( 11-N , 37-H ) :   0.8826
B( 12-C , 13-O ) :   1.7828 B( 12-C , 14-C ) :   0.8464 B( 14-C , 15-N ) :   1.7165
B( 14-C , 17-C ) :   0.1197 B( 14-C , 19-O ) :   1.0882 B( 15-N , 16-N ) :   1.2679
B( 16-N , 17-C ) :   1.6176 B( 17-C , 18-C ) :   0.8291 B( 17-C , 19-O ) :   1.0626
B( 18-C , 38-H ) :   0.9396 B( 18-C , 39-H ) :   0.9886 B( 18-C , 40-H ) :   0.9431
B( 20-N , 21-C ) :   1.0487 B( 20-N , 41-H ) :   0.8469 B( 21-C , 22-O ) :   2.0547
B( 21-C , 23-C ) :   0.8230 B( 23-C , 24-O ) :   2.0222

Dispersion correction           -0.019247333
FINAL SINGLE POINT ENERGY     -1268.650795587426

DIPOLE MOMENT
-------------
                                X             Y             Z
Electronic contribution:      4.26082     -15.60263      -1.53336
Nuclear contribution   :     -3.51592      20.57826       3.28398
                        -----------------------------------------
Total Dipole Moment    :      0.74490       4.97564       1.75063
                        -----------------------------------------
Magnitude (a.u.)       :      5.32696
Magnitude (Debye)      :     13.54006

Rotational constants in cm-1:     0.016502     0.003600     0.003483
Rotational constants in MHz :   494.713199   107.934593   104.412611

                             ****ORCA TERMINATED NORMALLY****
TOTAL RUN TIME: 0 days 0 hours 2 minutes 16 seconds 642 msec
