   * xtb version 6.5.1 (579679a) compiled by 'ehlert@majestix' on 2022-07-11
          program call               : /lustre/hpc/kemi/ree/PhD/git/ReactivityQM/dep/xtb-6.5.1/bin/xtb --gfn 1 /lustre/hpc/kemi/ree/PhD/git/ReactivityQM/calculations/R02methylcation/reac01prodN09/conf03/R02methylcation_reac01prodN09_conf03_gfn1.xyz --opt --vfukui --chrg 0 --uhf 0 --alpb DMSO

   ID    Z sym.   atoms
    1    6 C      1, 3, 4, 6, 8-11, 13, 15, 18, 19, 22, 24
    2    8 O      2, 5, 14, 20, 23, 25
    3    7 N      7, 12, 16, 17, 21
    4    1 H      26-42

      * Solvation model:               ALPB
        Solvent                        DMSO
        Solvent mass                       7.8130E+01 g/mol
          :  Hamiltonian                  GFN1-xTB          :
 * total energy  :   -82.8672063 Eh     change       -0.1689671E-10 Eh
 * total energy  :   -82.8804852 Eh     change       -0.1327887E-01 Eh
 * total energy  :   -82.8878937 Eh     change       -0.7408509E-02 Eh
 * total energy  :   -82.8904971 Eh     change       -0.2603395E-02 Eh
 * total energy  :   -82.8931555 Eh     change       -0.2658348E-02 Eh
 * total energy  :   -82.8958344 Eh     change       -0.2678906E-02 Eh
 * total energy  :   -82.8986509 Eh     change       -0.2816573E-02 Eh
 * total energy  :   -82.9018607 Eh     change       -0.3209750E-02 Eh
 * total energy  :   -82.9061042 Eh     change       -0.4243522E-02 Eh
 * total energy  :   -82.9115743 Eh     change       -0.5470066E-02 Eh
 * total energy  :   -83.0059584 Eh     change       -0.1608322E-04 Eh
 * total energy  :   -83.0059772 Eh     change       -0.1874965E-04 Eh
 * total energy  :   -83.0059970 Eh     change       -0.1984977E-04 Eh
 * total energy  :   -83.0060170 Eh     change       -0.1997734E-04 Eh
 * total energy  :   -83.0060323 Eh     change       -0.1525348E-04 Eh
 * total energy  :   -83.0060450 Eh     change       -0.1272171E-04 Eh
 * total energy  :   -83.0060543 Eh     change       -0.9342550E-05 Eh
 * total energy  :   -83.0060600 Eh     change       -0.5634214E-05 Eh
 * total energy  :   -83.0060626 Eh     change       -0.2646892E-05 Eh
   *** GEOMETRY OPTIMIZATION CONVERGED AFTER 84 ITERATIONS ***

 final structure:
================
42
 xtb: 6.5.1 (579679a)
C           -5.98616990256611        0.55302410139606       -0.57398856433956
O           -4.89309581244279        0.26718883973905        0.31329123466760
C           -3.70200853413596        0.12207313022050       -0.22791888652656
C           -3.02550831704395        0.29858326920674        2.22905823032690
O           -3.45875156144341        0.19065314047120       -1.40307787847213
C           -2.61838955406984       -0.19754775729121        0.84161324485209
N           -1.42117857917674        0.48789421915010        0.41379995834332
C           -0.58202350752590       -0.07948013644968       -0.34976569393051
C            0.60778147296793        0.72116326773761       -0.86221506485581
C            0.57983169387801        2.11875891163014       -0.24144415279786
C            0.55452179360072        0.82762494490446       -2.39117563343522
N            1.86042163248594        0.09154127947163       -0.42317012667827
C            2.41284800516757       -1.02627205897247       -0.92980703280405
O            1.90845777485478       -1.75450965198574       -1.77404254946758
C            3.73647395079450       -1.32671790566379       -0.33434361669432
N            4.51763180099686       -2.32741902823388       -0.59819095242217
N            5.61947694494711       -2.18457609932363        0.18926002322918
C            5.44443284559349       -1.10518334012723        0.88649062940215
C            6.35410497462768       -0.51189217401191        1.88984166737708
O            4.27150910292966       -0.51472993907380        0.60356375813631
N           -0.68924708911288       -1.39232751689046       -0.77547709896126
C           -1.56743941819813       -2.29190590218178       -0.25958689107361
O           -1.58699966149349       -3.45772252505945       -0.58851180348806
C           -2.51631673162263       -1.71258143855892        0.79724232813241
O           -3.16440840772335       -2.42781157346737        1.51609220025870
H           -6.87691892389498        0.61081544753624        0.04711279302287
H           -6.08191110158487       -0.24418155540142       -1.31356940696877
H           -5.80948966530980        1.50354322475232       -1.08004439024085
H           -3.89742881747312       -0.25007902463908        2.58003332650869
H           -3.25598155408426        1.36034809482770        2.18723658763557
H           -2.19908301283012        0.14095564600119        2.91937954175207
H            1.43205167926435        2.69640344499792       -0.59316906156550
H            0.61590270996781        2.05009419960419        0.84441212644593
H           -0.33882301918438        2.62879847858227       -0.52597691785267
H            1.42472204419274        1.37798616325413       -2.74375089833698
H           -0.34766020616592        1.36600199733472       -2.67777216454994
H            0.54378911041903       -0.15285972914128       -2.86180018416897
H            2.38903256205715        0.60074385686564        0.26639240308926
H            6.65789339505939        0.48479558997704        1.57029063948960
H            7.23300278601932       -1.14116957319706        2.00815349408556
H            5.83951827784603       -0.41502912047709        2.84547826975593
H            0.01542581941064       -1.74751819752168       -1.41994348688147

          :  Hamiltonian                  GFN1-xTB          :
         :: total energy             -83.006062607757 Eh    ::
         :: gradient norm              0.000495004686 Eh/a0 ::
         :: HOMO-LUMO gap              2.377830679451 eV    ::
         :: SCC energy               -83.791926979939 Eh    ::
         :: -> Gsolv                  -0.056109844721 Eh    ::
         :: repulsion energy           0.812610280351 Eh    ::

    * Orbital Energies and Occupations

         #    Occupation            Energy/Eh            Energy/eV
      -------------------------------------------------------------
         1        2.0000           -0.8680772             -23.6216
       ...           ...                  ...                  ...
        55        2.0000           -0.5109054             -13.9024
        56        2.0000           -0.5085504             -13.8384
        57        2.0000           -0.5075102             -13.8101
        58        2.0000           -0.5034340             -13.6991
        59        2.0000           -0.4900278             -13.3343
        60        2.0000           -0.4826135             -13.1326
        61        2.0000           -0.4738577             -12.8943
        62        2.0000           -0.4697869             -12.7836
        63        2.0000           -0.4611542             -12.5486
        64        2.0000           -0.4559479             -12.4070
        65        2.0000           -0.4549593             -12.3801
        66        2.0000           -0.4502408             -12.2517
        67        2.0000           -0.4377642             -11.9122 (HOMO)
        68                         -0.3503806              -9.5343 (LUMO)
        69                         -0.3154655              -8.5843
        70                         -0.2952723              -8.0348
        71                         -0.2688692              -7.3163
        72                         -0.2587425              -7.0407
        73                         -0.2211965              -6.0191
        74                         -0.2030370              -5.5249
        75                         -0.1466333              -3.9901
        76                         -0.1428193              -3.8863
        77                         -0.1292153              -3.5161
        78                         -0.1260590              -3.4302
       ...                                ...                  ...
       134                          0.7588938              20.6506
      -------------------------------------------------------------
                  HL-Gap            0.0873837 Eh            2.3778 eV

Wiberg/Mayer (AO) data.
largest (>0.10) Wiberg bond orders for each atom

     #   Z sym  total        # sym  WBO       # sym  WBO       # sym  WBO
 ---------------------------------------------------------------------------
     1   6 C    3.854 --    26 H    0.985    27 H    0.980    28 H    0.980
                             2 O    0.875
     2   8 O    2.230 --     3 C    1.155     1 C    0.875     5 O    0.139
     3   6 C    3.845 --     5 O    1.695     2 O    1.155     6 C    0.866
     4   6 C    3.985 --    30 H    0.985    31 H    0.984    29 H    0.982
                             6 C    0.982
     5   8 O    1.963 --     3 C    1.695     2 O    0.139
     6   6 C    3.964 --     4 C    0.982     7 N    0.981    24 C    0.947
                             3 C    0.866
     7   7 N    3.026 --     8 C    1.754     6 C    0.981
     8   6 C    3.928 --     7 N    1.754    21 N    1.083     9 C    0.965
     9   6 C    3.933 --    10 C    1.001    11 C    0.983     8 C    0.965
                            12 N    0.918
    10   6 C    3.990 --     9 C    1.001    32 H    0.984    33 H    0.983
                            34 H    0.982
    11   6 C    3.987 --    36 H    0.984     9 C    0.983    35 H    0.983
                            37 H    0.978
    12   7 N    3.353 --    13 C    1.271     9 C    0.918    38 H    0.890
                            14 O    0.175
    13   6 C    3.915 --    14 O    1.559    12 N    1.271    15 C    0.998
    14   8 O    1.914 --    13 C    1.559    12 N    0.175
    15   6 C    3.874 --    16 N    1.620    20 O    1.046    13 C    0.998
    16   7 N    3.001 --    15 C    1.620    17 N    1.201
    17   7 N    2.982 --    18 C    1.608    16 N    1.201
    18   6 C    3.867 --    17 N    1.608    20 O    1.072    19 C    1.032
    19   6 C    3.986 --    18 C    1.032    40 H    0.982    41 H    0.963
                            39 H    0.961
    20   8 O    2.316 --    18 C    1.072    15 C    1.046
    21   7 N    3.439 --    22 C    1.198     8 C    1.083    42 H    0.847
                            23 O    0.150
    22   6 C    3.897 --    23 O    1.663    21 N    1.198    24 C    0.907
    23   8 O    1.950 --    22 C    1.663    21 N    0.150
    24   6 C    3.845 --    25 O    1.809     6 C    0.947    22 C    0.907
    25   8 O    2.023 --    24 C    1.809
    26   1 H    1.008 --     1 C    0.985
    27   1 H    1.004 --     1 C    0.980
    28   1 H    1.003 --     1 C    0.980
    29   1 H    1.008 --     4 C    0.982
    30   1 H    1.003 --     4 C    0.985
    31   1 H    1.001 --     4 C    0.984
    32   1 H    0.998 --    10 C    0.984
    33   1 H    1.004 --    10 C    0.983
    34   1 H    1.007 --    10 C    0.982
    35   1 H    0.999 --    11 C    0.983
    36   1 H    1.000 --    11 C    0.984
    37   1 H    1.008 --    11 C    0.978
    38   1 H    0.935 --    12 N    0.890
    39   1 H    0.996 --    19 C    0.961
    40   1 H    0.998 --    19 C    0.982
    41   1 H    0.996 --    19 C    0.963
    42   1 H    0.930 --    21 N    0.847
 ---------------------------------------------------------------------------

           -------------------------------------------------
          | TOTAL ENERGY              -83.006062607757 Eh   |
          | GRADIENT NORM               0.000495004686 Eh/α |
          | HOMO-LUMO GAP               2.377830679451 eV   |
           -------------------------------------------------

 * finished run on 2023/06/21 at 17:41:09.769
