   * xtb version 6.5.1 (579679a) compiled by 'ehlert@majestix' on 2022-07-11
          program call               : /lustre/hpc/kemi/ree/PhD/git/ReactivityQM/dep/xtb-6.5.1/bin/xtb --gfn 1 /lustre/hpc/kemi/ree/PhD/git/ReactivityQM/calculations/R02oxygendeprot/reac01prodN11/conf13/R02oxygendeprot_reac01prodN11_conf13_gfn1.xyz --opt --vfukui --chrg 0 --uhf 0 --alpb DMSO

   ID    Z sym.   atoms
    1    6 C      1, 3, 5, 7-10, 12, 13, 15, 18, 19, 22, 24
    2    8 O      2, 4, 14, 20, 23, 25
    3    7 N      6, 11, 16, 17, 21
    4    1 H      26-42

      * Solvation model:               ALPB
        Solvent                        DMSO
        Solvent mass                       7.8130E+01 g/mol
          :  Hamiltonian                  GFN1-xTB          :
 * total energy  :   -82.8624921 Eh     change       -0.5979928E-10 Eh
 * total energy  :   -82.8757476 Eh     change       -0.1325549E-01 Eh
 * total energy  :   -82.8818183 Eh     change       -0.6070690E-02 Eh
 * total energy  :   -82.8830660 Eh     change       -0.1247722E-02 Eh
 * total energy  :   -82.8837897 Eh     change       -0.7236575E-03 Eh
 * total energy  :   -82.8841594 Eh     change       -0.3697354E-03 Eh
 * total energy  :   -82.8844041 Eh     change       -0.2447234E-03 Eh
 * total energy  :   -82.8845654 Eh     change       -0.1612678E-03 Eh
 * total energy  :   -82.8846761 Eh     change       -0.1107418E-03 Eh
 * total energy  :   -82.8847620 Eh     change       -0.8580540E-04 Eh
 * total energy  :   -82.8868047 Eh     change       -0.3091573E-04 Eh
 * total energy  :   -82.8868374 Eh     change       -0.3271774E-04 Eh
 * total energy  :   -82.8868545 Eh     change       -0.1708865E-04 Eh
 * total energy  :   -82.8868746 Eh     change       -0.2014969E-04 Eh
 * total energy  :   -82.8868838 Eh     change       -0.9228312E-05 Eh
 * total energy  :   -82.8869103 Eh     change       -0.2647453E-04 Eh
 * total energy  :   -82.8869195 Eh     change       -0.9214627E-05 Eh
 * total energy  :   -82.8869292 Eh     change       -0.9697361E-05 Eh
 * total energy  :   -82.8869335 Eh     change       -0.4252544E-05 Eh
   *** GEOMETRY OPTIMIZATION CONVERGED AFTER 50 ITERATIONS ***

 final structure:
================
42
 xtb: 6.5.1 (579679a)
C            6.12148050256848       -0.88993741355127        2.42141208218074
O            5.07935768979361       -0.01776568299645        1.97424827789085
C            4.18018022902891       -0.54139023334496        1.15188085868758
O            4.20469702890312       -1.69193606388279        0.77585626352654
C            3.11640329287856        0.42381932168996        0.72905495287110
N            2.13089036845638       -0.14294654922901        0.03243328221048
C            1.08942141538308        0.55083013756117       -0.37033215297807
C            0.05337606518531       -0.13221418855538       -1.21611967651373
C            0.53621175255753        0.02163089456599       -2.67811185237142
C           -0.04861226997839       -1.62390485820794       -0.84476160859822
N           -1.21782413464671        0.51358601453346       -1.03148726770797
C           -2.43342524455147        0.07646742995219       -1.73939950834960
C           -3.15611381350163        1.41672628512117       -2.17882407144264
O           -2.29563088473137       -0.76102819506587       -2.69473062450463
C           -3.34408394010556       -0.43080255227782       -0.59408488757506
N           -4.10514436055196       -1.46804241143255       -0.60541740909283
N           -4.72625473790669       -1.48755599017474        0.61646117761122
C           -4.30512006478781       -0.46068560165480        1.27827459834543
C           -4.67634858953184       -0.04233099173873        2.64731520463435
O           -3.41765602093728        0.25987724414150        0.56072880799670
N            0.96384212479712        1.86626702195705       -0.09972176894968
C            1.91211498942450        2.61805036510499        0.58748946126315
O            1.74294950216010        3.80252136989302        0.76167260545468
C            3.13226950170200        1.83971725378463        1.05019618573751
O            4.02992393576593        2.42179565717855        1.63938088816024
H            5.69123638227712       -1.75704899573994        2.92760263083738
H            6.71712418234641       -1.22761537205256        1.57032455897872
H            6.73524264245158       -0.31367876475801        3.11055401723211
H           -0.13851699844720       -0.50428004726759       -3.34883090698851
H            1.53673481122259       -0.39682934701560       -2.77012377361106
H            0.55862992225443        1.07698414733843       -2.94069767817114
H            0.94171674259635       -2.07110785973092       -0.90893532197166
H           -0.42571499756927       -1.72139469335828        0.17133631061868
H           -0.72320503366571       -2.12891285056222       -1.53287640474552
H           -1.39031565367458        0.93989349537347       -0.13451342885505
H           -2.52763466801568        1.88210771283210       -2.93205642055426
H           -4.12013780391326        1.15154862081794       -2.60356178425345
H           -3.27794938113186        2.07193382887053       -1.32329715589254
H           -5.12685229346043        0.94986928750918        2.62294595929021
H           -3.78768537404907        0.00729870449128        3.27590184616146
H           -5.38216035710282       -0.75491915249683        3.06797062276860
H            0.15258154051710        2.37113602235366       -0.42515488933639

          :  Hamiltonian                  GFN1-xTB          :
         :: total energy             -82.886933478943 Eh    ::
         :: gradient norm              0.000504516460 Eh/a0 ::
         :: HOMO-LUMO gap              0.076774862025 eV    ::
         :: SCC energy               -83.653038428985 Eh    ::
         :: -> Gsolv                  -0.066962031512 Eh    ::
         :: repulsion energy           0.792453787094 Eh    ::

    * Orbital Energies and Occupations

         #    Occupation            Energy/Eh            Energy/eV
      -------------------------------------------------------------
         1        2.0000           -0.8689562             -23.6455
       ...           ...                  ...                  ...
        55        2.0000           -0.5103439             -13.8872
        56        2.0000           -0.5068565             -13.7923
        57        2.0000           -0.5055593             -13.7570
        58        2.0000           -0.4991098             -13.5815
        59        2.0000           -0.4881558             -13.2834
        60        2.0000           -0.4813643             -13.0986
        61        2.0000           -0.4781854             -13.0121
        62        2.0000           -0.4615032             -12.5581
        63        2.0000           -0.4598956             -12.5144
        64        2.0000           -0.4555216             -12.3954
        65        2.0000           -0.4421683             -12.0320
        66        2.0000           -0.4403942             -11.9837
        67        1.6306           -0.4219044             -11.4806 (HOMO)
        68        0.3694           -0.4190829             -11.4038 (LUMO)
        69                         -0.3251013              -8.8465
        70                         -0.3009914              -8.1904
        71                         -0.2735376              -7.4433
        72                         -0.2549397              -6.9373
        73                         -0.2492655              -6.7829
        74                         -0.1754307              -4.7737
        75                         -0.1432116              -3.8970
        76                         -0.1384832              -3.7683
        77                         -0.1363132              -3.7093
        78                         -0.1318483              -3.5878
       ...                                ...                  ...
       134                          0.7489012              20.3786
      -------------------------------------------------------------
                  HL-Gap            0.0028214 Eh            0.0768 eV

Wiberg/Mayer (AO) data.
largest (>0.10) Wiberg bond orders for each atom

     #   Z sym  total        # sym  WBO       # sym  WBO       # sym  WBO
 ---------------------------------------------------------------------------
     1   6 C    3.866 --    28 H    0.986    26 H    0.978    27 H    0.978
                             2 O    0.893
     2   8 O    2.208 --     3 C    1.128     1 C    0.893     4 O    0.140
     3   6 C    3.846 --     4 O    1.651     2 O    1.128     5 C    0.994
     4   8 O    1.899 --     3 C    1.651     2 O    0.140
     5   6 C    3.749 --     6 N    1.382    24 C    1.116     3 C    0.994
     6   7 N    2.993 --     7 C    1.391     5 C    1.382
     7   6 C    3.823 --     6 N    1.391    21 N    1.237     8 C    1.003
     8   6 C    3.930 --     7 C    1.003    11 N    0.979    10 C    0.944
                             9 C    0.928
     9   6 C    3.959 --    30 H    0.986    31 H    0.985    29 H    0.971
                             8 C    0.928
    10   6 C    3.960 --    33 H    0.985    34 H    0.979    32 H    0.978
                             8 C    0.944
    11   7 N    3.179 --     8 C    0.979    12 C    0.909    35 H    0.898
                            14 O    0.159
    12   6 C    3.879 --    14 O    1.271    11 N    0.909    15 C    0.828
                            13 C    0.805
    13   6 C    3.852 --    38 H    0.987    37 H    0.983    36 H    0.979
                            12 C    0.805
    14   8 O    1.610 --    12 C    1.271    11 N    0.159
    15   6 C    3.764 --    16 N    1.663    20 O    1.056    12 C    0.828
    16   7 N    2.978 --    15 C    1.663    17 N    1.152
    17   7 N    2.980 --    18 C    1.638    16 N    1.152
    18   6 C    3.858 --    17 N    1.638    20 O    1.048    19 C    1.031
    19   6 C    3.985 --    18 C    1.031    41 H    0.982    40 H    0.964
                            39 H    0.963
    20   8 O    2.306 --    15 C    1.056    18 C    1.048
    21   7 N    3.453 --     7 C    1.237    22 C    1.084    42 H    0.872
                            23 O    0.103
    22   6 C    3.837 --    23 O    1.689    21 N    1.084    24 C    0.937
    23   8 O    1.909 --    22 C    1.689    21 N    0.103
    24   6 C    3.853 --    25 O    1.663     5 C    1.116    22 C    0.937
    25   8 O    1.823 --    24 C    1.663
    26   1 H    1.005 --     1 C    0.978
    27   1 H    1.005 --     1 C    0.978
    28   1 H    1.010 --     1 C    0.986
    29   1 H    1.011 --     9 C    0.971
    30   1 H    1.000 --     9 C    0.986
    31   1 H    0.999 --     9 C    0.985
    32   1 H    1.008 --    10 C    0.978
    33   1 H    0.999 --    10 C    0.985
    34   1 H    1.009 --    10 C    0.979
    35   1 H    0.940 --    11 N    0.898
    36   1 H    0.996 --    13 C    0.979
    37   1 H    1.001 --    13 C    0.983
    38   1 H    0.999 --    13 C    0.987
    39   1 H    0.997 --    19 C    0.963
    40   1 H    0.997 --    19 C    0.964
    41   1 H    0.998 --    19 C    0.982
    42   1 H    0.921 --    21 N    0.872
 ---------------------------------------------------------------------------

           -------------------------------------------------
          | TOTAL ENERGY              -82.886933478943 Eh   |
          | GRADIENT NORM               0.000504516460 Eh/α |
          | HOMO-LUMO GAP               0.076774862025 eV   |
           -------------------------------------------------

 * finished run on 2023/06/21 at 17:27:12.316
