   * xtb version 6.5.1 (579679a) compiled by 'ehlert@majestix' on 2022-07-11
          program call               : /lustre/hpc/kemi/ree/PhD/git/ReactivityQM/dep/xtb-6.5.1/bin/xtb --gfn 1 /lustre/hpc/kemi/ree/PhD/git/ReactivityQM/calculations/R02deprot/reac01prodN06/conf17/R02deprot_reac01prodN06_conf17_gfn1.xyz --opt --vfukui --chrg 0 --uhf 0 --alpb DMSO

   ID    Z sym.   atoms
    1    6 C      1, 3, 5, 6, 8, 11-14, 16, 18, 21, 22, 25
    2    8 O      2, 4, 7, 9, 17, 23
    3    7 N      10, 15, 19, 20, 24
    4    1 H      26-42

      * Solvation model:               ALPB
        Solvent                        DMSO
        Solvent mass                       7.8130E+01 g/mol
          :  Hamiltonian                  GFN1-xTB          :
 * total energy  :   -82.9756682 Eh     change       -0.1985256E-10 Eh
 * total energy  :   -82.9895041 Eh     change       -0.1383595E-01 Eh
 * total energy  :   -82.9947291 Eh     change       -0.5225010E-02 Eh
 * total energy  :   -82.9960032 Eh     change       -0.1274074E-02 Eh
 * total energy  :   -82.9967283 Eh     change       -0.7251090E-03 Eh
 * total energy  :   -82.9970074 Eh     change       -0.2791128E-03 Eh
 * total energy  :   -82.9971803 Eh     change       -0.1728351E-03 Eh
 * total energy  :   -82.9973056 Eh     change       -0.1253085E-03 Eh
 * total energy  :   -82.9973879 Eh     change       -0.8231511E-04 Eh
 * total energy  :   -82.9974518 Eh     change       -0.6391803E-04 Eh
 * total energy  :   -82.9981918 Eh     change       -0.1346583E-04 Eh
 * total energy  :   -82.9982152 Eh     change       -0.2338104E-04 Eh
 * total energy  :   -82.9982232 Eh     change       -0.8009299E-05 Eh
 * total energy  :   -82.9982311 Eh     change       -0.7949447E-05 Eh
 * total energy  :   -82.9982416 Eh     change       -0.1042116E-04 Eh
 * total energy  :   -82.9982482 Eh     change       -0.6619120E-05 Eh
 * total energy  :   -82.9982542 Eh     change       -0.6065532E-05 Eh
 * total energy  :   -82.9982610 Eh     change       -0.6786853E-05 Eh
 * total energy  :   -82.9982632 Eh     change       -0.2216838E-05 Eh
   *** GEOMETRY OPTIMIZATION CONVERGED AFTER 44 ITERATIONS ***

 final structure:
================
42
 xtb: 6.5.1 (579679a)
C           -4.84914956392865        3.29379722938547        0.23547682272755
O           -4.39807517512535        1.95024048236030        0.02972330369063
C           -3.08736998053964        1.76617210507651       -0.03486894058158
O           -2.28450346878695        2.66615685699307        0.07776312401520
C           -2.72901442472042        0.33958168325330       -0.30284229208380
C           -3.51489851669814       -0.49341641682179       -1.04023471545925
O           -4.71247982206392       -0.15595997040490       -1.52746224372713
C           -3.05592547834621       -1.84743975948167       -1.38986939984919
O           -3.79910849503937       -2.59693635286262       -2.01415425969884
N           -1.78541804199132       -2.16528123818372       -1.00802223407555
C           -1.05272084273958       -1.35089666729453       -0.29849793936156
C            0.32876330456467       -1.90470541400777        0.04515256877463
C            0.72491799866476       -2.96620890145346       -0.99391805105685
C            0.27388416559723       -2.55076791395615        1.43818350168258
N            1.31257694526559       -0.82138150630362       -0.02714555390347
C            2.60543478623905       -0.95560553003790        0.35479238052364
O            3.07959449172338       -1.90106239247926        0.95457404136004
C            3.38627888471136        0.24603583243541       -0.03581050279936
N            2.93529594267220        1.26933915749656       -0.69789235549284
N            3.97950917301539        2.13072430481887       -0.84822716502465
C            5.00193918301018        1.57744871361150       -0.26816044849049
C            6.37569053632636        2.11361424579400       -0.15164459103360
O            4.69010643693882        0.38575112998677        0.26210656819962
N           -1.48536587111740       -0.13875868297749        0.12148219700935
C           -0.75227222479353        0.67786928206335        1.09475146824097
H           -4.40168051024304        3.70266705040793        1.14387267329283
H           -5.93155566472111        3.24484091665723        0.33351329407246
H           -4.57049731410582        3.91567071895706       -0.61809414426148
H           -5.05834432512163       -0.92816856905100       -2.02085225382323
H            1.72531602436140       -3.33141539119935       -0.76869132984800
H            0.71722732021804       -2.53356865033459       -1.99301117197222
H            0.02477551416896       -3.79871215473687       -0.96239043844861
H            0.17298514301699       -1.80464507771868        2.22255391284385
H            1.17789757285705       -3.12770950302746        1.62126469857113
H           -0.58468779785224       -3.21982742750330        1.47713361356453
H            1.10729878474944       -0.06016923262785       -0.65822507799882
H            6.63552497048060        2.24403942945454        0.89886516777011
H            6.44033284207081        3.07036137602924       -0.66387785514000
H            7.08687021322365        1.41386559370110       -0.59020037021720
H           -1.46167280070334        1.09489976417472        1.80633517538527
H           -0.22893955428415        1.48506722943226        0.58368901184510
H           -0.03854036095397        0.06449365037303        1.63094681077780

          :  Hamiltonian                  GFN1-xTB          :
         :: total energy             -82.998263246466 Eh    ::
         :: gradient norm              0.000253367697 Eh/a0 ::
         :: HOMO-LUMO gap              2.913195627646 eV    ::
         :: SCC energy               -83.778307406886 Eh    ::
         :: -> Gsolv                  -0.051429918003 Eh    ::
         :: repulsion energy           0.806778008093 Eh    ::

    * Orbital Energies and Occupations

         #    Occupation            Energy/Eh            Energy/eV
      -------------------------------------------------------------
         1        2.0000           -0.8655572             -23.5530
       ...           ...                  ...                  ...
        55        2.0000           -0.5061670             -13.7735
        56        2.0000           -0.5035911             -13.7034
        57        2.0000           -0.5001923             -13.6109
        58        2.0000           -0.4895738             -13.3220
        59        2.0000           -0.4847968             -13.1920
        60        2.0000           -0.4784524             -13.0194
        61        2.0000           -0.4762765             -12.9601
        62        2.0000           -0.4680211             -12.7355
        63        2.0000           -0.4623275             -12.5806
        64        2.0000           -0.4545944             -12.3701
        65        2.0000           -0.4491921             -12.2231
        66        2.0000           -0.4296700             -11.6919
        67        2.0000           -0.4281871             -11.6516 (HOMO)
        68                         -0.3211292              -8.7384 (LUMO)
        69                         -0.3139618              -8.5433
        70                         -0.2959338              -8.0528
        71                         -0.2586009              -7.0369
        72                         -0.2435455              -6.6272
        73                         -0.2020009              -5.4967
        74                         -0.1665850              -4.5330
        75                         -0.1428246              -3.8865
        76                         -0.1415346              -3.8514
        77                         -0.1398045              -3.8043
        78                         -0.1283202              -3.4918
       ...                                ...                  ...
       134                          0.7275228              19.7969
      -------------------------------------------------------------
                  HL-Gap            0.1070580 Eh            2.9132 eV

Wiberg/Mayer (AO) data.
largest (>0.10) Wiberg bond orders for each atom

     #   Z sym  total        # sym  WBO       # sym  WBO       # sym  WBO
 ---------------------------------------------------------------------------
     1   6 C    3.865 --    27 H    0.986    26 H    0.979    28 H    0.979
                             2 O    0.890
     2   8 O    2.219 --     3 C    1.135     1 C    0.890     4 O    0.136
     3   6 C    3.856 --     4 O    1.642     2 O    1.135     5 C    0.997
     4   8 O    1.933 --     3 C    1.642     2 O    0.136
     5   6 C    3.925 --     6 C    1.533    24 N    1.083     3 C    0.997
     6   6 C    3.914 --     5 C    1.533     7 O    1.112     8 C    1.033
     7   8 O    2.083 --     6 C    1.112    29 H    0.801
     8   6 C    3.919 --     9 O    1.575    10 N    1.174     6 C    1.033
     9   8 O    1.893 --     8 C    1.575    10 N    0.101
    10   7 N    3.015 --    11 C    1.497     8 C    1.174     9 O    0.101
    11   6 C    3.930 --    10 N    1.497    24 N    1.262    12 C    0.976
    12   6 C    3.932 --    13 C    0.986    14 C    0.979    11 C    0.976
                            15 N    0.925
    13   6 C    3.989 --    12 C    0.986    31 H    0.985    30 H    0.983
                            32 H    0.983
    14   6 C    3.987 --    35 H    0.984    12 C    0.979    33 H    0.978
                            34 H    0.977
    15   7 N    3.332 --    16 C    1.232    12 C    0.925    36 H    0.896
                            17 O    0.172
    16   6 C    3.915 --    17 O    1.607    15 N    1.232    18 C    0.989
    17   8 O    1.921 --    16 C    1.607    15 N    0.172
    18   6 C    3.876 --    19 N    1.608    23 O    1.065    16 C    0.989
    19   7 N    3.019 --    18 C    1.608    20 N    1.201
    20   7 N    2.981 --    21 C    1.603    19 N    1.201
    21   6 C    3.870 --    20 N    1.603    23 O    1.083    22 C    1.032
    22   6 C    3.986 --    21 C    1.032    38 H    0.982    39 H    0.964
                            37 H    0.962
    23   8 O    2.332 --    21 C    1.083    18 C    1.065
    24   7 N    3.522 --    11 C    1.262     5 C    1.083    25 C    0.923
    25   6 C    3.920 --    40 H    0.978    42 H    0.976    41 H    0.974
                            24 N    0.923
    26   1 H    1.007 --     1 C    0.979
    27   1 H    1.010 --     1 C    0.986
    28   1 H    1.005 --     1 C    0.979
    29   1 H    0.850 --     7 O    0.801
    30   1 H    1.004 --    13 C    0.983
    31   1 H    1.005 --    13 C    0.985
    32   1 H    1.014 --    13 C    0.983
    33   1 H    1.002 --    14 C    0.978
    34   1 H    1.011 --    14 C    0.977
    35   1 H    1.002 --    14 C    0.984
    36   1 H    0.954 --    15 N    0.896
    37   1 H    0.996 --    22 C    0.962
    38   1 H    0.998 --    22 C    0.982
    39   1 H    0.996 --    22 C    0.964
    40   1 H    1.002 --    25 C    0.978
    41   1 H    1.012 --    25 C    0.974
    42   1 H    1.011 --    25 C    0.976
 ---------------------------------------------------------------------------

           -------------------------------------------------
          | TOTAL ENERGY              -82.998263246466 Eh   |
          | GRADIENT NORM               0.000253367697 Eh/α |
          | HOMO-LUMO GAP               2.913195627646 eV   |
           -------------------------------------------------

 * finished run on 2023/06/20 at 18:12:31.966
