   * xtb version 6.5.1 (579679a) compiled by 'ehlert@majestix' on 2022-07-11
          program call               : /lustre/hpc/kemi/ree/PhD/git/ReactivityQM/dep/xtb-6.5.1/bin/xtb --gfn 1 /lustre/hpc/kemi/ree/PhD/git/ReactivityQM/calculations/R02oxygendeprot/reac01prodN14/conf18/R02oxygendeprot_reac01prodN14_conf18_gfn1.xyz --opt --vfukui --chrg 0 --uhf 0 --alpb DMSO

   ID    Z sym.   atoms
    1    6 C      1, 3, 5, 6, 8, 9, 12-15, 17, 19, 22, 23
    2    8 O      2, 4, 7, 10, 18, 24
    3    7 N      11, 16, 20, 21, 25
    4    1 H      26-42

      * Solvation model:               ALPB
        Solvent                        DMSO
        Solvent mass                       7.8130E+01 g/mol
          :  Hamiltonian                  GFN1-xTB          :
 * total energy  :   -82.8957922 Eh     change       -0.9322321E-11 Eh
 * total energy  :   -82.9116298 Eh     change       -0.1583752E-01 Eh
 * total energy  :   -82.9207455 Eh     change       -0.9115710E-02 Eh
 * total energy  :   -82.9226548 Eh     change       -0.1909353E-02 Eh
 * total energy  :   -82.9245863 Eh     change       -0.1931477E-02 Eh
 * total energy  :   -82.9257265 Eh     change       -0.1140177E-02 Eh
 * total energy  :   -82.9268931 Eh     change       -0.1166649E-02 Eh
 * total energy  :   -82.9278085 Eh     change       -0.9153695E-03 Eh
 * total energy  :   -82.9285085 Eh     change       -0.7000058E-03 Eh
 * total energy  :   -82.9292607 Eh     change       -0.7521565E-03 Eh
 * total energy  :   -82.9811144 Eh     change       -0.1000268E-04 Eh
 * total energy  :   -82.9811276 Eh     change       -0.1322298E-04 Eh
 * total energy  :   -82.9811379 Eh     change       -0.1024377E-04 Eh
 * total energy  :   -82.9811517 Eh     change       -0.1386414E-04 Eh
 * total energy  :   -82.9811704 Eh     change       -0.1870440E-04 Eh
 * total energy  :   -82.9811778 Eh     change       -0.7400991E-05 Eh
 * total energy  :   -82.9811845 Eh     change       -0.6646506E-05 Eh
 * total energy  :   -82.9811892 Eh     change       -0.4734088E-05 Eh
 * total energy  :   -82.9811937 Eh     change       -0.4482074E-05 Eh
   *** GEOMETRY OPTIMIZATION CONVERGED AFTER 97 ITERATIONS ***

 final structure:
================
42
 xtb: 6.5.1 (579679a)
C           -5.69857019248033        2.74042635992653        1.25728294127695
O           -4.49931630686172        2.23969933107737        0.66484082869952
C           -3.79673037471038        1.35897842653540        1.40181219842993
O           -4.15147699556001        0.99595273228206        2.50579859851891
C           -2.58992536781972        0.91288885219700        0.72380071525944
C           -2.14034840027031        1.27835671648947       -0.53319010080008
O           -2.45938221604638        1.94707767461408       -1.47716602360512
C           -0.65677465983399       -0.40227119584452       -1.84736484055589
C           -1.93785068543035       -1.02977354248994       -2.24640184615236
O            0.40428447318924       -0.49621922103899       -2.37838124494675
N           -0.75004691933191        0.46786095914000       -0.65226099823520
C           -0.72871502623479       -0.27210788305378        0.63891821323893
C            0.33869465722879       -1.27380200970759        0.97659097311191
C           -0.06659251327641       -2.65183177961349        0.42400648520047
C            0.48350033851538       -1.32442962760281        2.50448003627818
N            1.60224920506844       -0.84509442679022        0.37330610196349
C            2.74514431541294       -1.55892787271961        0.46939077740109
O            2.85823070853969       -2.64589465805139        1.00977389234523
C            3.89588151662890       -0.87117724558567       -0.16701705911084
N            5.11359455467369       -1.30267220850169       -0.27655982661706
N            5.82083296783293       -0.32782473716415       -0.91334228974160
C            4.99179251572469        0.64022261784829       -1.15238029348515
C            5.27290660515454        1.92902708299164       -1.82094986912188
O            3.75586443160782        0.35964610688229       -0.70684925563704
N           -1.74186117388514        0.00334807620820        1.34733079836780
H           -6.13160602456014        3.43851542589135        0.54296583901120
H           -5.47245297833974        3.25365897604186        2.19591220717146
H           -6.39555363619139        1.92119818897375        1.45369850682077
H           -2.50360020525918       -1.35723813275181       -1.37703251676245
H           -2.52714205163105       -0.27368065340977       -2.77072722226040
H           -1.74500938724962       -1.86054727668429       -2.92107740942581
H            0.00468726341192        1.14735467180092       -0.70704221164324
H           -1.07149107494136       -2.89506815335708        0.76459842252129
H           -0.05091836548316       -2.63920341394079       -0.66364403568942
H            0.62431174048784       -3.41451387796140        0.77875532906765
H           -0.47688033582772       -1.57998344935210        2.94948829212087
H            0.80204188190699       -0.35284659689415        2.87792275343251
H            1.22028831458385       -2.07604191130450        2.78138712106438
H            1.64844267000252        0.05904664902828       -0.06363715324800
H            4.94713256069066        2.75372546855493       -1.18825008463644
H            6.33881999905506        2.01485925597473       -2.01823902241046
H            4.72354117150346        1.98930630135967       -2.76054672721619

          :  Hamiltonian                  GFN1-xTB          :
         :: total energy             -82.981193697726 Eh    ::
         :: gradient norm              0.000665148946 Eh/a0 ::
         :: HOMO-LUMO gap              2.514481668939 eV    ::
         :: SCC energy               -83.778130002124 Eh    ::
         :: -> Gsolv                  -0.063222810319 Eh    ::
         :: repulsion energy           0.823993593373 Eh    ::

    * Orbital Energies and Occupations

         #    Occupation            Energy/Eh            Energy/eV
      -------------------------------------------------------------
         1        2.0000           -0.8667934             -23.5866
       ...           ...                  ...                  ...
        55        2.0000           -0.5062767             -13.7765
        56        2.0000           -0.5056185             -13.7586
        57        2.0000           -0.5044044             -13.7255
        58        2.0000           -0.4925653             -13.4034
        59        2.0000           -0.4856700             -13.2158
        60        2.0000           -0.4807196             -13.0810
        61        2.0000           -0.4698149             -12.7843
        62        2.0000           -0.4661288             -12.6840
        63        2.0000           -0.4624087             -12.5828
        64        2.0000           -0.4584854             -12.4760
        65        2.0000           -0.4528709             -12.3232
        66        2.0000           -0.4506728             -12.2634
        67        2.0000           -0.4176111             -11.3638 (HOMO)
        68                         -0.3252056              -8.8493 (LUMO)
        69                         -0.3121775              -8.4948
        70                         -0.3014805              -8.2037
        71                         -0.2733078              -7.4371
        72                         -0.2572069              -6.9990
        73                         -0.1998953              -5.4394
        74                         -0.1666686              -4.5353
        75                         -0.1585007              -4.3130
        76                         -0.1422486              -3.8708
        77                         -0.1410821              -3.8390
        78                         -0.1330078              -3.6193
       ...                                ...                  ...
       134                          0.8275090              22.5177
      -------------------------------------------------------------
                  HL-Gap            0.0924055 Eh            2.5145 eV

Wiberg/Mayer (AO) data.
largest (>0.10) Wiberg bond orders for each atom

     #   Z sym  total        # sym  WBO       # sym  WBO       # sym  WBO
 ---------------------------------------------------------------------------
     1   6 C    3.880 --    26 H    0.986    28 H    0.981    27 H    0.981
                             2 O    0.906
     2   8 O    2.168 --     3 C    1.073     1 C    0.906     4 O    0.120
     3   6 C    3.864 --     4 O    1.614     5 C    1.084     2 O    1.073
     4   8 O    1.893 --     3 C    1.614     2 O    0.120
     5   6 C    3.886 --     6 C    1.352    25 N    1.109     3 C    1.084
                             7 O    0.139
     6   6 C    3.870 --     7 O    1.664     5 C    1.352    11 N    0.689
     7   8 O    2.015 --     6 C    1.664     5 C    0.139
     8   6 C    3.828 --    10 O    1.814     9 C    1.030    11 N    0.883
     9   6 C    3.983 --     8 C    1.030    31 H    0.972    29 H    0.965
                            30 H    0.930
    10   8 O    2.045 --     8 C    1.814
    11   7 N    3.549 --     8 C    0.883    32 H    0.864    12 C    0.853
                             6 C    0.689
    12   6 C    3.886 --    25 N    1.782    13 C    0.993    11 N    0.853
    13   6 C    3.936 --    12 C    0.993    15 C    0.981    14 C    0.971
                            16 N    0.928
    14   6 C    3.985 --    33 H    0.985    34 H    0.983    35 H    0.976
                            13 C    0.971
    15   6 C    3.986 --    37 H    0.985    36 H    0.984    13 C    0.981
                            38 H    0.981
    16   7 N    3.341 --    17 C    1.249    13 C    0.928    39 H    0.893
                            18 O    0.175
    17   6 C    3.915 --    18 O    1.589    16 N    1.249    19 C    0.993
    18   8 O    1.906 --    17 C    1.589    16 N    0.175
    19   6 C    3.873 --    20 N    1.622    24 O    1.047    17 C    0.993
    20   7 N    3.000 --    19 C    1.622    21 N    1.199
    21   7 N    2.982 --    22 C    1.610    20 N    1.199
    22   6 C    3.868 --    21 N    1.610    24 O    1.073    23 C    1.032
    23   6 C    3.986 --    22 C    1.032    41 H    0.982    40 H    0.965
                            42 H    0.961
    24   8 O    2.317 --    22 C    1.073    19 C    1.047
    25   7 N    3.069 --    12 C    1.782     5 C    1.109
    26   1 H    1.012 --     1 C    0.986
    27   1 H    1.009 --     1 C    0.981
    28   1 H    1.009 --     1 C    0.981
    29   1 H    0.995 --     9 C    0.965
    30   1 H    0.994 --     9 C    0.930
    31   1 H    0.994 --     9 C    0.972
    32   1 H    0.915 --    11 N    0.864
    33   1 H    1.003 --    14 C    0.985
    34   1 H    1.003 --    14 C    0.983
    35   1 H    1.009 --    14 C    0.976
    36   1 H    1.007 --    15 C    0.984
    37   1 H    1.002 --    15 C    0.985
    38   1 H    1.007 --    15 C    0.981
    39   1 H    0.943 --    16 N    0.893
    40   1 H    0.996 --    23 C    0.965
    41   1 H    0.998 --    23 C    0.982
    42   1 H    0.996 --    23 C    0.961
 ---------------------------------------------------------------------------

           -------------------------------------------------
          | TOTAL ENERGY              -82.981193697726 Eh   |
          | GRADIENT NORM               0.000665148946 Eh/α |
          | HOMO-LUMO GAP               2.514481668939 eV   |
           -------------------------------------------------

 * finished run on 2023/06/21 at 17:33:33.891
