                         Program Version 5.0.1 -  RELEASE  -
|  1> # ORCA input file
|  2> ! SP r2SCAN-3c CPCM
|  3>
|  4> %maxcore 1875.0
|  5> %pal nprocs 4 end
|  6> %cpcm smd true SMDsolvent "DMSO" end
|  7>
|  8> *xyz -2 1
|  9> C      -6.349411    1.233724    0.169226
| 10> O      -5.013019    0.765087    0.112737
| 11> C      -4.822169   -0.396500   -0.598261
| 12> O      -5.781306   -0.957092   -1.113200
| 13> C      -3.432477   -0.801713   -0.641715
| 14> N      -2.552895    0.022665    0.045640
| 15> C      -1.294238   -0.227716    0.035049
| 16> C      -0.297761    0.620699    0.812222
| 17> C      -0.271796    0.075016    2.256449
| 18> C      -0.786629    2.079295    0.808680
| 19> N       0.997471    0.470602    0.153503
| 20> C       2.017939    1.111829    0.653606
| 21> O       2.103230    1.855719    1.659572
| 22> C       3.323140    0.920208   -0.204185
| 23> C       4.095515    2.237263   -0.296782
| 24> N       3.025771    0.406237   -1.552962
| 25> N       3.692034   -0.851706   -1.661393
| 26> C       4.317906   -1.036760   -0.571176
| 27> C       5.188149   -2.203993   -0.264062
| 28> O       4.180885   -0.082732    0.374684
| 29> N      -0.778646   -1.311818   -0.636358
| 30> C      -1.520013   -2.209617   -1.342852
| 31> O      -0.971410   -3.150523   -1.924115
| 32> C      -3.010336   -1.954127   -1.356001
| 33> O      -3.749418   -2.741255   -1.983861
| 34> H      -7.011272    0.481212    0.610756
| 35> H      -6.719577    1.481247   -0.831614
| 36> H      -6.350640    2.129296    0.789581
| 37> H      -1.277116    0.099562    2.678525
| 38> H       0.386335    0.679691    2.878862
| 39> H       0.085679   -0.954946    2.259464
| 40> H      -0.162531    2.694265    1.455200
| 41> H      -1.816313    2.121410    1.166490
| 42> H      -0.751873    2.481412   -0.204441
| 43> H       2.016616    0.191875   -1.602250
| 44> H       5.041795    2.082403   -0.811930
| 45> H       4.285724    2.618484    0.705579
| 46> H       3.502011    2.963446   -0.849335
| 47> H       6.217993   -1.873943   -0.130779
| 48> H       5.144839   -2.922035   -1.079252
| 49> H       4.865757   -2.679910    0.661337
| 50> H       0.232062   -1.408379   -0.630639
| 51> **                         ****END OF INPUT****

CARTESIAN COORDINATES (ANGSTROEM)
---------------------------------
  C     -6.349411    1.233724    0.169226
  O     -5.013019    0.765087    0.112737
  C     -4.822169   -0.396500   -0.598261
  O     -5.781306   -0.957092   -1.113200
  C     -3.432477   -0.801713   -0.641715
  N     -2.552895    0.022665    0.045640
  C     -1.294238   -0.227716    0.035049
  C     -0.297761    0.620699    0.812222
  C     -0.271796    0.075016    2.256449
  C     -0.786629    2.079295    0.808680
  N      0.997471    0.470602    0.153503
  C      2.017939    1.111829    0.653606
  O      2.103230    1.855719    1.659572
  C      3.323140    0.920208   -0.204185
  C      4.095515    2.237263   -0.296782
  N      3.025771    0.406237   -1.552962
  N      3.692034   -0.851706   -1.661393
  C      4.317906   -1.036760   -0.571176
  C      5.188149   -2.203993   -0.264062
  O      4.180885   -0.082732    0.374684
  N     -0.778646   -1.311818   -0.636358
  C     -1.520013   -2.209617   -1.342852
  O     -0.971410   -3.150523   -1.924115
  C     -3.010336   -1.954127   -1.356001
  O     -3.749418   -2.741255   -1.983861
  H     -7.011272    0.481212    0.610756
  H     -6.719577    1.481247   -0.831614
  H     -6.350640    2.129296    0.789581
  H     -1.277116    0.099562    2.678525
  H      0.386335    0.679691    2.878862
  H      0.085679   -0.954946    2.259464
  H     -0.162531    2.694265    1.455200
  H     -1.816313    2.121410    1.166490
  H     -0.751873    2.481412   -0.204441
  H      2.016616    0.191875   -1.602250
  H      5.041795    2.082403   -0.811930
  H      4.285724    2.618484    0.705579
  H      3.502011    2.963446   -0.849335
  H      6.217993   -1.873943   -0.130779
  H      5.144839   -2.922035   -1.079252
  H      4.865757   -2.679910    0.661337
  H      0.232062   -1.408379   -0.630639

 Total Charge           Charge          ....   -2
 Multiplicity           Mult            ....    1
 Number of Electrons    NEL             ....  186
 Basis Dimension        Dim             ....  615

ORBITAL ENERGIES
----------------

  NO   OCC          E(Eh)            E(eV)
   0   2.0000     -18.980600      -516.4884
   1   2.0000     -18.960245      -515.9345
   2   2.0000     -18.896163      -514.1907
   3   2.0000     -18.894847      -514.1549
   4   2.0000     -18.867993      -513.4242
   5   2.0000     -18.862352      -513.2707
   6   2.0000     -14.181475      -385.8976
   7   2.0000     -14.159105      -385.2888
   8   2.0000     -14.156213      -385.2101
   9   2.0000     -14.122565      -384.2945
  10   2.0000     -14.088320      -383.3627
  11   2.0000     -10.116738      -275.2904
  12   2.0000     -10.104946      -274.9696
  13   2.0000     -10.102266      -274.8966
  14   2.0000     -10.097451      -274.7656
  15   2.0000     -10.069576      -274.0071
  16   2.0000     -10.066065      -273.9116
  17   2.0000     -10.062249      -273.8077
  18   2.0000     -10.057346      -273.6743
  19   2.0000     -10.051198      -273.5070
  20   2.0000     -10.027172      -272.8532
  21   2.0000     -10.026077      -272.8234
  22   2.0000     -10.001915      -272.1659
  23   2.0000      -9.997742      -272.0524
  24   2.0000      -9.993905      -271.9480
  25   2.0000      -1.059877       -28.8407
  26   2.0000      -1.029401       -28.0114
  27   2.0000      -0.983790       -26.7703
  28   2.0000      -0.939411       -25.5627
  29   2.0000      -0.936187       -25.4749
  30   2.0000      -0.924179       -25.1482
  31   2.0000      -0.918116       -24.9832
  32   2.0000      -0.910351       -24.7719
  33   2.0000      -0.833607       -22.6836
  34   2.0000      -0.821073       -22.3425
  35   2.0000      -0.792640       -21.5688
  36   2.0000      -0.724499       -19.7146
  37   2.0000      -0.693798       -18.8792
  38   2.0000      -0.685794       -18.6614
  39   2.0000      -0.670031       -18.2325
  40   2.0000      -0.659181       -17.9372
  41   2.0000      -0.633457       -17.2372
  42   2.0000      -0.607178       -16.5222
  43   2.0000      -0.590480       -16.0678
  44   2.0000      -0.579070       -15.7573
  45   2.0000      -0.543442       -14.7878
  46   2.0000      -0.522241       -14.2109
  47   2.0000      -0.510575       -13.8934
  48   2.0000      -0.496814       -13.5190
  49   2.0000      -0.476755       -12.9732
  50   2.0000      -0.463729       -12.6187
  51   2.0000      -0.447786       -12.1849
  52   2.0000      -0.435970       -11.8634
  53   2.0000      -0.430795       -11.7225
  54   2.0000      -0.420807       -11.4507
  55   2.0000      -0.411330       -11.1929
  56   2.0000      -0.401325       -10.9206
  57   2.0000      -0.399344       -10.8667
  58   2.0000      -0.395114       -10.7516
  59   2.0000      -0.384368       -10.4592
  60   2.0000      -0.376759       -10.2521
  61   2.0000      -0.370985       -10.0950
  62   2.0000      -0.370084       -10.0705
  63   2.0000      -0.366248        -9.9661
  64   2.0000      -0.360365        -9.8060
  65   2.0000      -0.357625        -9.7315
  66   2.0000      -0.353551        -9.6206
  67   2.0000      -0.343426        -9.3451
  68   2.0000      -0.342621        -9.3232
  69   2.0000      -0.341150        -9.2832
  70   2.0000      -0.337123        -9.1736
  71   2.0000      -0.330748        -9.0001
  72   2.0000      -0.326638        -8.8883
  73   2.0000      -0.313644        -8.5347
  74   2.0000      -0.311202        -8.4682
  75   2.0000      -0.300436        -8.1753
  76   2.0000      -0.297281        -8.0894
  77   2.0000      -0.295045        -8.0286
  78   2.0000      -0.294087        -8.0025
  79   2.0000      -0.282614        -7.6903
  80   2.0000      -0.277242        -7.5441
  81   2.0000      -0.254057        -6.9132
  82   2.0000      -0.242235        -6.5916
  83   2.0000      -0.231580        -6.3016
  84   2.0000      -0.230392        -6.2693
  85   2.0000      -0.215495        -5.8639
  86   2.0000      -0.208052        -5.6614
  87   2.0000      -0.201871        -5.4932
  88   2.0000      -0.191592        -5.2135
  89   2.0000      -0.172248        -4.6871
  90   2.0000      -0.158191        -4.3046
  91   2.0000      -0.150515        -4.0957
  92   2.0000      -0.145486        -3.9589
  93   0.0000      -0.042843        -1.1658
  94   0.0000       0.006425         0.1748
  95   0.0000       0.012309         0.3350
  96   0.0000       0.034746         0.9455
  97   0.0000       0.053639         1.4596

MULLIKEN ATOMIC CHARGES
-----------------------
   0 C :   -0.326609
   1 O :   -0.196285
   2 C :    0.084898
   3 O :   -0.407435
   4 C :   -0.016018
   5 N :   -0.180493
   6 C :    0.330208
   7 C :   -0.016087
   8 C :   -0.684275
   9 C :   -0.668441
  10 N :   -0.282058
  11 C :    0.017811
  12 O :   -0.514901
  13 C :    0.334167
  14 C :   -0.624508
  15 N :   -0.360706
  16 N :   -0.284237
  17 C :    0.315534
  18 C :   -0.663445
  19 O :   -0.131744
  20 N :    0.009023
  21 C :   -0.008425
  22 O :   -0.404478
  23 C :   -0.132523
  24 O :   -0.372884
  25 H :    0.160990
  26 H :    0.159680
  27 H :    0.160226
  28 H :    0.172106
  29 H :    0.192351
  30 H :    0.174539
  31 H :    0.190820
  32 H :    0.168807
  33 H :    0.166984
  34 H :    0.277245
  35 H :    0.165768
  36 H :    0.179734
  37 H :    0.173628
  38 H :    0.185845
  39 H :    0.190633
  40 H :    0.184369
  41 H :    0.280188
Sum of atomic charges:   -2.0000000

LOEWDIN ATOMIC CHARGES
----------------------
   0 C :   -0.059211
   1 O :   -0.625596
   2 C :    0.384004
   3 O :   -0.478420
   4 C :    0.111186
   5 N :   -0.618909
   6 C :    0.316012
   7 C :    0.082637
   8 C :   -0.371722
   9 C :   -0.374139
  10 N :   -0.740793
  11 C :    0.296218
  12 O :   -0.609206
  13 C :    0.320169
  14 C :   -0.350767
  15 N :   -0.502096
  16 N :   -0.444594
  17 C :    0.332996
  18 C :   -0.330551
  19 O :   -0.497284
  20 N :   -0.498830
  21 C :    0.349950
  22 O :   -0.496663
  23 C :    0.222695
  24 O :   -0.585093
  25 H :    0.171508
  26 H :    0.170326
  27 H :    0.175448
  28 H :    0.158846
  29 H :    0.173498
  30 H :    0.161959
  31 H :    0.170604
  32 H :    0.165585
  33 H :    0.162364
  34 H :    0.305719
  35 H :    0.162949
  36 H :    0.173629
  37 H :    0.171038
  38 H :    0.179990
  39 H :    0.180925
  40 H :    0.180380
  41 H :    0.303239

  Mayer bond orders larger than 0.100000
B(  0-C ,  1-O ) :   0.8564 B(  0-C , 25-H ) :   0.9649 B(  0-C , 26-H ) :   0.9637
B(  0-C , 27-H ) :   0.9688 B(  1-O ,  2-C ) :   1.0474 B(  2-C ,  3-O ) :   1.9018
B(  2-C ,  4-C ) :   1.0879 B(  4-C ,  5-N ) :   0.9592 B(  4-C , 23-C ) :   1.0357
B(  4-C , 24-O ) :  -0.1419 B(  5-N ,  6-C ) :   1.7242 B(  6-C ,  7-C ) :   0.7917
B(  6-C , 10-N ) :  -0.2058 B(  6-C , 20-N ) :   1.0993 B(  7-C ,  8-C ) :   0.8558
B(  7-C ,  9-C ) :   0.8686 B(  7-C , 10-N ) :   1.0498 B(  8-C , 28-H ) :   0.9782
B(  8-C , 29-H ) :   0.9698 B(  8-C , 30-H ) :   0.9813 B(  9-C , 31-H ) :   0.9801
B(  9-C , 32-H ) :   0.9673 B(  9-C , 33-H ) :   0.9851 B( 10-N , 11-C ) :   1.5554
B( 11-C , 12-O ) :   1.7617 B( 11-C , 13-C ) :   0.9555 B( 13-C , 14-C ) :   0.9146
B( 13-C , 15-N ) :   0.8761 B( 13-C , 19-O ) :   0.7393 B( 14-C , 35-H ) :   0.9678
B( 14-C , 36-H ) :   0.9802 B( 14-C , 37-H ) :   0.9679 B( 15-N , 16-N ) :   1.1245
B( 15-N , 34-H ) :   0.8236 B( 16-N , 17-C ) :   1.8098 B( 17-C , 18-C ) :   0.8398
B( 17-C , 19-O ) :   1.0805 B( 18-C , 38-H ) :   0.9465 B( 18-C , 39-H ) :   0.9990
B( 18-C , 40-H ) :   0.9544 B( 20-N , 21-C ) :   1.0479 B( 20-N , 41-H ) :   0.8565
B( 21-C , 22-O ) :   2.0789 B( 21-C , 23-C ) :   0.8874 B( 23-C , 24-O ) :   1.9567

Dispersion correction           -0.019239483
FINAL SINGLE POINT ENERGY     -1268.896597150707

DIPOLE MOMENT
-------------
                                X             Y             Z
Electronic contribution:     -9.01005     -11.12520      -8.55904
Nuclear contribution   :     12.25398      13.28207      10.97860
                        -----------------------------------------
Total Dipole Moment    :      3.24393       2.15686       2.41955
                        -----------------------------------------
Magnitude (a.u.)       :      4.58578
Magnitude (Debye)      :     11.65613

Rotational constants in cm-1:     0.014334     0.003807     0.003215
Rotational constants in MHz :   429.730108   114.117547    96.380681

                             ****ORCA TERMINATED NORMALLY****
TOTAL RUN TIME: 0 days 0 hours 3 minutes 9 seconds 248 msec
