   * xtb version 6.5.1 (579679a) compiled by 'ehlert@majestix' on 2022-07-11
          program call               : /lustre/hpc/kemi/ree/PhD/git/ReactivityQM/dep/xtb-6.5.1/bin/xtb --gfn 1 /lustre/hpc/kemi/ree/PhD/git/ReactivityQM/calculations/R02methylcation/reac01prodE08/conf07/R02methylcation_reac01prodE08_conf07_gfn1.xyz --opt --vfukui --chrg -2 --uhf 0 --alpb DMSO

   ID    Z sym.   atoms
    1    6 C      1, 3, 5, 7-10, 12, 14, 15, 18, 19, 22, 24
    2    8 O      2, 4, 13, 20, 23, 25
    3    7 N      6, 11, 16, 17, 21
    4    1 H      26-42

      * Solvation model:               ALPB
        Solvent                        DMSO
        Solvent mass                       7.8130E+01 g/mol
          :  Hamiltonian                  GFN1-xTB          :
 * total energy  :   -83.6219019 Eh     change       -0.8739676E-10 Eh
 * total energy  :   -83.6355404 Eh     change       -0.1363845E-01 Eh
 * total energy  :   -83.6405008 Eh     change       -0.4960448E-02 Eh
 * total energy  :   -83.6416184 Eh     change       -0.1117574E-02 Eh
 * total energy  :   -83.6426170 Eh     change       -0.9985800E-03 Eh
 * total energy  :   -83.6431630 Eh     change       -0.5460239E-03 Eh
 * total energy  :   -83.6436413 Eh     change       -0.4782610E-03 Eh
 * total energy  :   -83.6440545 Eh     change       -0.4132634E-03 Eh
 * total energy  :   -83.6445741 Eh     change       -0.5195496E-03 Eh
 * total energy  :   -83.6456998 Eh     change       -0.1125693E-02 Eh
 * total energy  :   -83.6737105 Eh     change       -0.1256525E-04 Eh
 * total energy  :   -83.6737211 Eh     change       -0.1053923E-04 Eh
 * total energy  :   -83.6737285 Eh     change       -0.7417348E-05 Eh
 * total energy  :   -83.6737346 Eh     change       -0.6109948E-05 Eh
 * total energy  :   -83.6737409 Eh     change       -0.6327230E-05 Eh
 * total energy  :   -83.6737481 Eh     change       -0.7163412E-05 Eh
 * total energy  :   -83.6737554 Eh     change       -0.7304049E-05 Eh
 * total energy  :   -83.6737615 Eh     change       -0.6116977E-05 Eh
 * total energy  :   -83.6737662 Eh     change       -0.4728784E-05 Eh
   *** GEOMETRY OPTIMIZATION CONVERGED AFTER 64 ITERATIONS ***

 final structure:
================
42
 xtb: 6.5.1 (579679a)
C           -6.34941137693560        1.23372404443237        0.16922553352575
O           -5.01301936114439        0.76508726953798        0.11273712912931
C           -4.82216948611583       -0.39650032123842       -0.59826148053335
O           -5.78130574037564       -0.95709241437609       -1.11320016288030
C           -3.43247718902272       -0.80171341304237       -0.64171454110333
N           -2.55289511912765        0.02266534032662        0.04563988221474
C           -1.29423811280664       -0.22771616761428        0.03504904069409
C           -0.29776064450577        0.62069886644401        0.81222177805523
C           -0.27179601748882        0.07501611885010        2.25644860172861
C           -0.78662917051621        2.07929480902125        0.80867955350141
N            0.99747142408729        0.47060196203195        0.15350272814819
C            2.01793934808040        1.11182919983354        0.65360551720853
O            2.10323015178136        1.85571928877981        1.65957190292339
C            3.32313973412624        0.92020777415245       -0.20418513684004
C            4.09551452018624        2.23726311969903       -0.29678158719922
N            3.02577081861645        0.40623735379305       -1.55296249844952
N            3.69203356721144       -0.85170602976575       -1.66139280905445
C            4.31790595019592       -1.03675999721883       -0.57117555801489
C            5.18814862391707       -2.20399319156697       -0.26406242351113
O            4.18088484365034       -0.08273215059397        0.37468362023521
N           -0.77864626092352       -1.31181759645507       -0.63635810356288
C           -1.52001330691096       -2.20961748193734       -1.34285247522666
O           -0.97140992784936       -3.15052262762185       -1.92411498571959
C           -3.01033575806550       -1.95412657779129       -1.35600129655049
O           -3.74941834052294       -2.74125546668786       -1.98386139408234
H           -7.01127235877862        0.48121221147987        0.61075563811382
H           -6.71957666437808        1.48124712487126       -0.83161353796125
H           -6.35064033937459        2.12929615275768        0.78958084091281
H           -1.27711565006051        0.09956228749393        2.67852525311423
H            0.38633510786761        0.67969096630695        2.87886151251307
H            0.08567913036791       -0.95494599043768        2.25946426392565
H           -0.16253092150863        2.69426489260214        1.45519994938594
H           -1.81631303338044        2.12140962793655        1.16649019937179
H           -0.75187329006018        2.48141222196228       -0.20444059713583
H            2.01661578789194        0.19187535719369       -1.60224988870777
H            5.04179526477854        2.08240347201519       -0.81192957583312
H            4.28572434836865        2.61848424733045        0.70557949027216
H            3.50201068381831        2.96344642723294       -0.84933450274968
H            6.21799274956999       -1.87394302746889       -0.13077941090166
H            5.14483925541489       -2.92203485361171       -1.07925197242629
H            4.86575699640400       -2.67991033300472        0.66133745926366
H            0.23206176352052       -1.40837949564647       -0.63063895580235

          :  Hamiltonian                  GFN1-xTB          :
         :: total energy             -83.673766228059 Eh    ::
         :: gradient norm              0.000281417820 Eh/a0 ::
         :: HOMO-LUMO gap              2.446225493931 eV    ::
         :: SCC energy               -84.413446483095 Eh    ::
         :: -> Gsolv                  -0.261137737880 Eh    ::
         :: repulsion energy           0.765976164450 Eh    ::

    * Orbital Energies and Occupations

         #    Occupation            Energy/Eh            Energy/eV
      -------------------------------------------------------------
         1        2.0000           -0.7894078             -21.4809
       ...           ...                  ...                  ...
        56        2.0000           -0.4474442             -12.1756
        57        2.0000           -0.4403093             -11.9814
        58        2.0000           -0.4372437             -11.8980
        59        2.0000           -0.4251269             -11.5683
        60        2.0000           -0.4221066             -11.4861
        61        2.0000           -0.4187714             -11.3953
        62        2.0000           -0.3956786             -10.7670
        63        2.0000           -0.3911532             -10.6438
        64        2.0000           -0.3671610              -9.9910
        65        2.0000           -0.3596163              -9.7857
        66        2.0000           -0.3506738              -9.5423
        67        2.0000           -0.3480931              -9.4721
        68        2.0000           -0.3455177              -9.4020 (HOMO)
        69                         -0.2556206              -6.9558 (LUMO)
        70                         -0.2143429              -5.8326
        71                         -0.2133823              -5.8064
        72                         -0.1818999              -4.9497
        73                         -0.1673554              -4.5540
        74                         -0.1243920              -3.3849
        75                         -0.1174995              -3.1973
        76                         -0.0962455              -2.6190
        77                         -0.0929920              -2.5304
        78                         -0.0874167              -2.3787
        79                         -0.0838699              -2.2822
       ...                                ...                  ...
       134                          0.7707955              20.9744
      -------------------------------------------------------------
                  HL-Gap            0.0898971 Eh            2.4462 eV

Wiberg/Mayer (AO) data.
largest (>0.10) Wiberg bond orders for each atom

     #   Z sym  total        # sym  WBO       # sym  WBO       # sym  WBO
 ---------------------------------------------------------------------------
     1   6 C    3.905 --    28 H    0.987    27 H    0.981    26 H    0.980
                             2 O    0.933
     2   8 O    2.130 --     3 C    1.011     1 C    0.933     4 O    0.105
     3   6 C    3.848 --     4 O    1.577     5 C    1.137     2 O    1.011
     4   8 O    1.856 --     3 C    1.577     2 O    0.105
     5   6 C    3.920 --    24 C    1.275     6 N    1.143     3 C    1.137
                            25 O    0.129
     6   7 N    3.017 --     7 C    1.628     5 C    1.143
     7   6 C    3.922 --     6 N    1.628    21 N    1.105     8 C    0.973
     8   6 C    3.973 --    10 C    0.985    11 N    0.982     7 C    0.973
                             9 C    0.970
     9   6 C    3.994 --    29 H    0.988    31 H    0.987    30 H    0.981
                             8 C    0.970
    10   6 C    3.996 --    34 H    0.987    33 H    0.986     8 C    0.985
                            32 H    0.983
    11   7 N    2.939 --    12 C    1.528     8 C    0.982    13 O    0.212
    12   6 C    3.935 --    11 N    1.528    13 O    1.434    14 C    0.887
    13   8 O    1.795 --    12 C    1.434    11 N    0.212
    14   6 C    3.840 --    15 C    0.992    16 N    0.961    12 C    0.887
                            20 O    0.881
    15   6 C    3.996 --    14 C    0.992    36 H    0.987    38 H    0.986
                            37 H    0.983
    16   7 N    3.030 --    17 N    1.004    14 C    0.961    35 H    0.910
    17   7 N    2.969 --    18 C    1.750    16 N    1.004    20 O    0.124
    18   6 C    3.904 --    17 N    1.750    20 O    1.049    19 C    1.017
    19   6 C    3.994 --    18 C    1.017    40 H    0.986    41 H    0.973
                            39 H    0.970
    20   8 O    2.142 --    18 C    1.049    14 C    0.881    17 N    0.124
    21   7 N    3.450 --    22 C    1.188     7 C    1.105    42 H    0.885
                            23 O    0.136
    22   6 C    3.886 --    23 O    1.550    21 N    1.188    24 C    0.973
    23   8 O    1.829 --    22 C    1.550    21 N    0.136
    24   6 C    3.944 --    25 O    1.503     5 C    1.275    22 C    0.973
    25   8 O    1.807 --    24 C    1.503     5 C    0.129
    26   1 H    1.016 --     1 C    0.980
    27   1 H    1.015 --     1 C    0.981
    28   1 H    1.017 --     1 C    0.987
    29   1 H    1.010 --     9 C    0.988
    30   1 H    1.021 --     9 C    0.981
    31   1 H    1.010 --     9 C    0.987
    32   1 H    1.021 --    10 C    0.983
    33   1 H    1.021 --    10 C    0.986
    34   1 H    1.011 --    10 C    0.987
    35   1 H    1.012 --    16 N    0.910
    36   1 H    1.011 --    15 C    0.987
    37   1 H    1.020 --    15 C    0.983
    38   1 H    1.011 --    15 C    0.986
    39   1 H    1.003 --    19 C    0.970
    40   1 H    1.004 --    19 C    0.986
    41   1 H    1.002 --    19 C    0.973
    42   1 H    0.981 --    21 N    0.885
 ---------------------------------------------------------------------------

           -------------------------------------------------
          | TOTAL ENERGY              -83.673766228059 Eh   |
          | GRADIENT NORM               0.000281417820 Eh/α |
          | HOMO-LUMO GAP               2.446225493931 eV   |
           -------------------------------------------------

 * finished run on 2023/06/21 at 17:19:16.126
