   * xtb version 6.5.1 (579679a) compiled by 'ehlert@majestix' on 2022-07-11
          program call               : /lustre/hpc/kemi/ree/PhD/git/ReactivityQM/dep/xtb-6.5.1/bin/xtb --gfn 1 /lustre/hpc/kemi/ree/PhD/git/ReactivityQM/calculations/R02oxygendeprot/reac01prodE14/conf03/R02oxygendeprot_reac01prodE14_conf03_gfn1.xyz --opt --vfukui --chrg -2 --uhf 0 --alpb DMSO

   ID    Z sym.   atoms
    1    6 C      1, 3, 5, 7-10, 12, 14, 17, 18, 21, 23, 24
    2    8 O      2, 4, 13, 19, 22, 25
    3    7 N      6, 11, 15, 16, 20
    4    1 H      26-42

      * Solvation model:               ALPB
        Solvent                        DMSO
        Solvent mass                       7.8130E+01 g/mol
          :  Hamiltonian                  GFN1-xTB          :
 * total energy  :   -83.5864123 Eh     change       -0.2264784E-09 Eh
 * total energy  :   -83.6011245 Eh     change       -0.1471221E-01 Eh
 * total energy  :   -83.6068320 Eh     change       -0.5707507E-02 Eh
 * total energy  :   -83.6077342 Eh     change       -0.9021764E-03 Eh
 * total energy  :   -83.6082968 Eh     change       -0.5625822E-03 Eh
 * total energy  :   -83.6085965 Eh     change       -0.2997380E-03 Eh
 * total energy  :   -83.6088744 Eh     change       -0.2778707E-03 Eh
 * total energy  :   -83.6090736 Eh     change       -0.1992089E-03 Eh
 * total energy  :   -83.6092075 Eh     change       -0.1339561E-03 Eh
 * total energy  :   -83.6093170 Eh     change       -0.1095007E-03 Eh
 * total energy  :   -83.6104227 Eh     change       -0.2431214E-04 Eh
 * total energy  :   -83.6104628 Eh     change       -0.4006675E-04 Eh
 * total energy  :   -83.6104791 Eh     change       -0.1634377E-04 Eh
 * total energy  :   -83.6104931 Eh     change       -0.1401914E-04 Eh
 * total energy  :   -83.6105057 Eh     change       -0.1257459E-04 Eh
 * total energy  :   -83.6105139 Eh     change       -0.8207892E-05 Eh
 * total energy  :   -83.6105256 Eh     change       -0.1170990E-04 Eh
 * total energy  :   -83.6105311 Eh     change       -0.5502881E-05 Eh
 * total energy  :   -83.6105347 Eh     change       -0.3537733E-05 Eh
   *** GEOMETRY OPTIMIZATION CONVERGED AFTER 41 ITERATIONS ***

 final structure:
================
42
 xtb: 6.5.1 (579679a)
C           -5.84512274812972        0.65473910792889        1.51241971884023
O           -4.77866039371818        0.87403903497301        0.61608130579078
C           -3.66817668492626        0.02907517819906        0.79644024514702
O           -3.72995772064166       -0.81399016023032        1.71876419167955
C           -2.58483393233939        0.25347418936428       -0.06842168116091
N           -1.56973564245920       -0.66399337907151        0.09070160672020
C           -0.46852558174921       -0.58940053146981       -0.56097296978929
C            0.57086768675317       -1.68570188979552       -0.46264262689082
C            0.15796654042978       -2.68776657570853        0.62122963694149
C            0.71339287284264       -2.38154026084337       -1.82660251594419
N            1.86521306454488       -1.06980899197182       -0.09560393650248
C            3.01298288498033       -1.75619250025042        0.04564742105374
O            3.14783442016200       -2.96772191871138       -0.11381119738184
C            4.16365014311258       -0.90190816217780        0.41875381980547
N            5.39114637766769       -1.28281108593371        0.63993650310167
N            6.10391783165048       -0.15777400625973        0.94217889856428
C            5.27511395792382        0.83654180282977        0.88796730046616
C            5.56401925804660        2.26729312472865        1.13360854189646
O            4.03126619649547        0.44044552830578        0.56370585292283
N           -0.17566118635746        0.48404251350051       -1.43006398434763
C           -1.04007123001217        1.54037951494009       -1.54929836232845
O           -0.60674235737220        2.61789040342088       -1.97534566475969
C           -2.55256935202253        1.20294608411914       -1.30895799383361
C           -3.24611206935379        2.57096763238909       -0.98256589582511
O           -3.01476500073638        0.63205620199519       -2.43407732816520
H           -6.63377029316713        1.36831446284319        1.26606322023589
H           -6.24393748534579       -0.36493317362594        1.42387816755371
H           -5.53423762085036        0.81101271403807        2.55395228579713
H           -0.82884372754962       -3.08605901775652        0.38500485477816
H            0.10690066923734       -2.18745153030771        1.58792731809509
H            0.86939234335879       -3.50905030068939        0.68047519383784
H           -0.25780332070866       -2.76889569228632       -2.13389562234606
H            1.41838296092729       -3.20890355709177       -1.77241360123741
H            1.06209720037507       -1.66932059305814       -2.57338989101601
H            1.87797306174827       -0.08438774804090        0.11419077833967
H            6.61995093597584        2.39106492675266        1.35845589372646
H            5.30772297870672        2.85733075740601        0.25420457142251
H            4.96960356082024        2.63248962803820        1.97087783571895
H            0.79052567545165        0.67236631276815       -1.63707144958085
H           -2.89050224427932        3.32871293228234       -1.68314428793930
H           -3.02758474951873        2.89849290963122        0.03453166131089
H           -4.32230727997013        2.47393511482181       -1.11140781469109

          :  Hamiltonian                  GFN1-xTB          :
         :: total energy             -83.610534677925 Eh    ::
         :: gradient norm              0.000679666834 Eh/a0 ::
         :: HOMO-LUMO gap              0.154936974895 eV    ::
         :: SCC energy               -84.344522414346 Eh    ::
         :: -> Gsolv                  -0.295260349540 Eh    ::
         :: repulsion energy           0.759694777481 Eh    ::

    * Orbital Energies and Occupations

         #    Occupation            Energy/Eh            Energy/eV
      -------------------------------------------------------------
         1        2.0000           -0.8471043             -23.0509
       ...           ...                  ...                  ...
        56        2.0000           -0.4408085             -11.9950
        57        2.0000           -0.4352770             -11.8445
        58        2.0000           -0.4303498             -11.7104
        59        2.0000           -0.4246595             -11.5556
        60        2.0000           -0.4214854             -11.4692
        61        2.0000           -0.4147841             -11.2868
        62        2.0000           -0.3988963             -10.8545
        63        2.0000           -0.3911044             -10.6425
        64        2.0000           -0.3830228             -10.4226
        65        2.0000           -0.3693316             -10.0500
        66        2.0000           -0.3067655              -8.3475
        67        1.9898           -0.2989958              -8.1361
        68        1.9098           -0.2968813              -8.0786 (HOMO)
        69        0.1004           -0.2911875              -7.9236 (LUMO)
        70                         -0.2422641              -6.5923
        71                         -0.2116723              -5.7599
        72                         -0.1773050              -4.8247
        73                         -0.1711905              -4.6583
        74                         -0.1352953              -3.6816
        75                         -0.1133218              -3.0836
        76                         -0.1033843              -2.8132
        77                         -0.1002111              -2.7269
        78                         -0.0984437              -2.6788
        79                         -0.0851728              -2.3177
       ...                                ...                  ...
       134                          0.7268812              19.7794
      -------------------------------------------------------------
                  HL-Gap            0.0056938 Eh            0.1549 eV

Wiberg/Mayer (AO) data.
largest (>0.10) Wiberg bond orders for each atom

     #   Z sym  total        # sym  WBO       # sym  WBO       # sym  WBO
 ---------------------------------------------------------------------------
     1   6 C    3.922 --    26 H    0.987    28 H    0.980    27 H    0.980
                             2 O    0.953
     2   8 O    2.083 --     1 C    0.953     3 C    0.933
     3   6 C    3.844 --     4 O    1.445     5 C    1.329     2 O    0.933
     4   8 O    1.740 --     3 C    1.445     5 C    0.106
     5   6 C    3.811 --     3 C    1.329     6 N    1.188    23 C    0.917
                             4 O    0.106
     6   7 N    3.050 --     7 C    1.617     5 C    1.188
     7   6 C    3.884 --     6 N    1.617    20 N    1.004     8 C    0.979
     8   6 C    3.923 --     9 C    0.995    10 C    0.984     7 C    0.979
                            11 N    0.899
     9   6 C    3.994 --     8 C    0.995    30 H    0.986    31 H    0.985
                            29 H    0.984
    10   6 C    3.989 --    32 H    0.986    34 H    0.986     8 C    0.984
                            33 H    0.983
    11   7 N    3.339 --    12 C    1.271    35 H    0.901     8 C    0.899
                            13 O    0.174
    12   6 C    3.890 --    13 O    1.537    11 N    1.271    14 C    1.006
    13   8 O    1.844 --    12 C    1.537    11 N    0.174
    14   6 C    3.825 --    15 N    1.587    19 O    1.034    12 C    1.006
    15   7 N    2.942 --    14 C    1.587    16 N    1.191
    16   7 N    2.980 --    17 C    1.619    15 N    1.191
    17   6 C    3.859 --    16 N    1.619    19 O    1.068    18 C    1.029
    18   6 C    3.989 --    17 C    1.029    36 H    0.984    37 H    0.966
                            38 H    0.965
    19   8 O    2.290 --    17 C    1.068    14 C    1.034
    20   7 N    3.344 --    21 C    1.171     7 C    1.004    39 H    0.914
                            22 O    0.116
    21   6 C    3.813 --    22 O    1.563    20 N    1.171    23 C    0.881
    22   8 O    1.831 --    21 C    1.563    20 N    0.116
    23   6 C    3.963 --    25 O    1.121    24 C    0.947     5 C    0.917
                            21 C    0.881
    24   6 C    3.988 --    41 H    0.990    42 H    0.987    40 H    0.985
                            23 C    0.947
    25   8 O    1.410 --    23 C    1.121
    26   1 H    1.020 --     1 C    0.987
    27   1 H    1.022 --     1 C    0.980
    28   1 H    1.022 --     1 C    0.980
    29   1 H    1.020 --     9 C    0.984
    30   1 H    1.015 --     9 C    0.986
    31   1 H    1.014 --     9 C    0.985
    32   1 H    1.007 --    10 C    0.986
    33   1 H    1.014 --    10 C    0.983
    34   1 H    1.008 --    10 C    0.986
    35   1 H    0.950 --    11 N    0.901
    36   1 H    1.000 --    18 C    0.984
    37   1 H    0.998 --    18 C    0.966
    38   1 H    0.998 --    18 C    0.965
    39   1 H    0.966 --    20 N    0.914
    40   1 H    1.026 --    24 C    0.985
    41   1 H    1.017 --    24 C    0.990
    42   1 H    1.034 --    24 C    0.987
 ---------------------------------------------------------------------------

           -------------------------------------------------
          | TOTAL ENERGY              -83.610534677925 Eh   |
          | GRADIENT NORM               0.000679666834 Eh/α |
          | HOMO-LUMO GAP               0.154936974895 eV   |
           -------------------------------------------------

 * finished run on 2023/06/21 at 17:16:24.696
