   * xtb version 6.5.1 (579679a) compiled by 'ehlert@majestix' on 2022-07-11
          program call               : /lustre/hpc/kemi/ree/PhD/git/ReactivityQM/dep/xtb-6.5.1/bin/xtb --gfn 1 /lustre/hpc/kemi/ree/PhD/git/ReactivityQM/calculations/R02methylcation/reac01prodE11/conf01/R02methylcation_reac01prodE11_conf01_gfn1.xyz --opt --vfukui --chrg -2 --uhf 0 --alpb DMSO

   ID    Z sym.   atoms
    1    6 C      1, 3, 5, 7-10, 12, 14, 17-19, 22, 24
    2    8 O      2, 4, 13, 20, 23, 25
    3    7 N      6, 11, 15, 16, 21
    4    1 H      26-42

      * Solvation model:               ALPB
        Solvent                        DMSO
        Solvent mass                       7.8130E+01 g/mol
          :  Hamiltonian                  GFN1-xTB          :
 * total energy  :   -83.6516575 Eh     change       -0.3777245E-10 Eh
 * total energy  :   -83.6614833 Eh     change       -0.9825720E-02 Eh
 * total energy  :   -83.6643790 Eh     change       -0.2895779E-02 Eh
 * total energy  :   -83.6647637 Eh     change       -0.3847027E-03 Eh
 * total energy  :   -83.6649861 Eh     change       -0.2223402E-03 Eh
 * total energy  :   -83.6651364 Eh     change       -0.1502966E-03 Eh
 * total energy  :   -83.6653507 Eh     change       -0.2143200E-03 Eh
 * total energy  :   -83.6655759 Eh     change       -0.2252276E-03 Eh
 * total energy  :   -83.6658025 Eh     change       -0.2265766E-03 Eh
 * total energy  :   -83.6659599 Eh     change       -0.1573890E-03 Eh
 * total energy  :   -83.6664092 Eh     change       -0.2338529E-04 Eh
 * total energy  :   -83.6664311 Eh     change       -0.2189781E-04 Eh
 * total energy  :   -83.6664551 Eh     change       -0.2407450E-04 Eh
 * total energy  :   -83.6664807 Eh     change       -0.2552660E-04 Eh
 * total energy  :   -83.6665045 Eh     change       -0.2388164E-04 Eh
 * total energy  :   -83.6665201 Eh     change       -0.1554922E-04 Eh
 * total energy  :   -83.6665267 Eh     change       -0.6588456E-05 Eh
 * total energy  :   -83.6665338 Eh     change       -0.7133360E-05 Eh
 * total energy  :   -83.6665376 Eh     change       -0.3752332E-05 Eh
   *** GEOMETRY OPTIMIZATION CONVERGED AFTER 24 ITERATIONS ***

 final structure:
================
42
 xtb: 6.5.1 (579679a)
C            2.81297437343026        3.20352900056765        1.68143446608604
O            2.62401792091297        2.02091334480114        0.92052366360140
C            3.66351005586026        1.68429311050619        0.09283339042760
O            4.65319025763090        2.40050120283926        0.03366229495946
C            3.43448062966763        0.44354361536323       -0.62474645131269
N            2.20358209594526       -0.15174144932605       -0.41046972112858
C            1.91295315155415       -1.27240163092300       -0.95859137735807
C            0.57322395278896       -1.94821138604150       -0.71267086065207
C            0.80845720543108       -3.21370465636538        0.12960954674582
C           -0.09177343320644       -2.31029534484212       -2.05411675149437
N           -0.24202120464238       -1.00091682846284        0.03414376568010
C           -1.60489240347787       -1.23956502185406        0.26986270030992
O           -2.07758909717784       -2.39464493415076        0.28287484624545
C           -2.31030129886784       -0.04169628115946        0.53787892393467
N           -1.79859392626611        1.17922679379541        0.48111533732729
N           -2.69416344269210        2.08228898838170        0.75807431557091
C           -3.95572597497816        1.37786704046384        1.03441788013950
C           -4.40882770892044        1.66843280243401        2.47641570391927
C           -5.03153749637918        1.82168423221498        0.02807611475372
O           -3.67579478232200       -0.00526662928065        0.87690944316294
N            2.81819535030891       -1.93339184860469       -1.76942149769454
C            4.06100377125527       -1.45226433013274       -2.08376687249190
O            4.79814991741842       -2.10449431578327       -2.82273161659818
C            4.42885016284989       -0.12378450892378       -1.46422597787060
O            5.54777023785357        0.36399608398118       -1.71385054874559
H            1.94326731167570        3.31550932387727        2.32845126021148
H            2.90205615015032        4.07850882473567        1.02894674977932
H            3.71763425612349        3.13098668224429        2.29424496173464
H            1.49090308262626       -3.88565455525024       -0.38798073045072
H            1.24133234188620       -2.94206910420463        1.09261634550271
H           -0.13335691258113       -3.73308035823079        0.29828495102093
H           -1.05914252708249       -2.77654245236260       -1.87377041178673
H           -0.23439506957867       -1.41360105878367       -2.65617654875882
H            0.52771249083695       -3.01163758719855       -2.60931794781040
H           -0.02474912729614       -0.02886012302230       -0.18049974120646
H           -3.63570701317788        1.34085541249097        3.16994536180044
H           -5.33240968310925        1.13603233945730        2.69668540436316
H           -4.56998969146892        2.73699944735645        2.60253281495560
H           -5.20298046499827        2.89197561937883        0.12169954853097
H           -5.96335877477753        1.29001752160239        0.21231069810476
H           -4.69114334950414        1.60276975690937       -0.98277962560373
H            2.57518766631037       -2.82033673849668       -2.17843180789770

          :  Hamiltonian                  GFN1-xTB          :
         :: total energy             -83.666537557162 Eh    ::
         :: gradient norm              0.000767442613 Eh/a0 ::
         :: HOMO-LUMO gap              1.214448204599 eV    ::
         :: SCC energy               -84.403939824440 Eh    ::
         :: -> Gsolv                  -0.260724116079 Eh    ::
         :: repulsion energy           0.763014955052 Eh    ::

    * Orbital Energies and Occupations

         #    Occupation            Energy/Eh            Energy/eV
      -------------------------------------------------------------
         1        2.0000           -0.7928564             -21.5747
       ...           ...                  ...                  ...
        56        2.0000           -0.4482350             -12.1971
        57        2.0000           -0.4425464             -12.0423
        58        2.0000           -0.4322952             -11.7634
        59        2.0000           -0.4315902             -11.7442
        60        2.0000           -0.4289495             -11.6723
        61        2.0000           -0.4109205             -11.1817
        62        2.0000           -0.4083242             -11.1111
        63        2.0000           -0.3963797             -10.7860
        64        2.0000           -0.3855325             -10.4909
        65        2.0000           -0.3710652             -10.0972
        66        2.0000           -0.3655513              -9.9472
        67        2.0000           -0.3583573              -9.7514
        68        2.0000           -0.3092524              -8.4152 (HOMO)
        69                         -0.2646222              -7.2007 (LUMO)
        70                         -0.2329057              -6.3377
        71                         -0.2285005              -6.2178
        72                         -0.1910159              -5.1978
        73                         -0.1208169              -3.2876
        74                         -0.1204187              -3.2768
        75                         -0.1135950              -3.0911
        76                         -0.1044932              -2.8434
        77                         -0.1017610              -2.7691
        78                         -0.0987407              -2.6869
        79                         -0.0956894              -2.6038
       ...                                ...                  ...
       134                          0.7673872              20.8817
      -------------------------------------------------------------
                  HL-Gap            0.0446302 Eh            1.2144 eV

Wiberg/Mayer (AO) data.
largest (>0.10) Wiberg bond orders for each atom

     #   Z sym  total        # sym  WBO       # sym  WBO       # sym  WBO
 ---------------------------------------------------------------------------
     1   6 C    3.902 --    26 H    0.987    27 H    0.981    28 H    0.980
                             2 O    0.930
     2   8 O    2.137 --     3 C    1.021     1 C    0.930     4 O    0.107
     3   6 C    3.849 --     4 O    1.585     5 C    1.125     2 O    1.021
     4   8 O    1.862 --     3 C    1.585     2 O    0.107
     5   6 C    3.918 --    24 C    1.271     6 N    1.148     3 C    1.125
                            25 O    0.130
     6   7 N    3.035 --     7 C    1.637     5 C    1.148
     7   6 C    3.927 --     6 N    1.637    21 N    1.088     8 C    0.978
     8   6 C    3.960 --     9 C    0.982    10 C    0.981     7 C    0.978
                            11 N    0.960
     9   6 C    3.992 --    29 H    0.987    30 H    0.986     8 C    0.982
                            31 H    0.979
    10   6 C    3.992 --    33 H    0.987    34 H    0.983     8 C    0.981
                            32 H    0.980
    11   7 N    3.187 --    12 C    1.075     8 C    0.960    35 H    0.911
                            13 O    0.103
    12   6 C    3.925 --    13 O    1.456    14 C    1.216    11 N    1.075
    13   8 O    1.801 --    12 C    1.456    11 N    0.103
    14   6 C    3.848 --    15 N    1.402    12 C    1.216    20 O    0.932
                            16 N    0.164
    15   7 N    3.048 --    16 N    1.453    14 C    1.402
    16   7 N    2.871 --    15 N    1.453    17 C    0.983    14 C    0.164
    17   6 C    3.902 --    16 N    0.983    19 C    0.977    18 C    0.977
                            20 O    0.929
    18   6 C    3.994 --    38 H    0.988    37 H    0.987    36 H    0.986
                            17 C    0.977
    19   6 C    3.995 --    39 H    0.988    40 H    0.987    41 H    0.985
                            17 C    0.977
    20   8 O    2.053 --    14 C    0.932    17 C    0.929
    21   7 N    3.424 --    22 C    1.168     7 C    1.088    42 H    0.899
                            23 O    0.136
    22   6 C    3.879 --    23 O    1.569    21 N    1.168    24 C    0.970
    23   8 O    1.848 --    22 C    1.569    21 N    0.136
    24   6 C    3.944 --    25 O    1.515     5 C    1.271    22 C    0.970
    25   8 O    1.820 --    24 C    1.515     5 C    0.130
    26   1 H    1.016 --     1 C    0.987
    27   1 H    1.014 --     1 C    0.981
    28   1 H    1.016 --     1 C    0.980
    29   1 H    1.005 --     9 C    0.987
    30   1 H    1.010 --     9 C    0.986
    31   1 H    1.023 --     9 C    0.979
    32   1 H    1.015 --    10 C    0.980
    33   1 H    1.006 --    10 C    0.987
    34   1 H    1.004 --    10 C    0.983
    35   1 H    1.000 --    11 N    0.911
    36   1 H    1.016 --    18 C    0.986
    37   1 H    1.009 --    18 C    0.987
    38   1 H    1.011 --    18 C    0.988
    39   1 H    1.011 --    19 C    0.988
    40   1 H    1.009 --    19 C    0.987
    41   1 H    1.015 --    19 C    0.985
    42   1 H    0.952 --    21 N    0.899
 ---------------------------------------------------------------------------

           -------------------------------------------------
          | TOTAL ENERGY              -83.666537557162 Eh   |
          | GRADIENT NORM               0.000767442613 Eh/α |
          | HOMO-LUMO GAP               1.214448204599 eV   |
           -------------------------------------------------

 * finished run on 2023/06/21 at 17:22:33.698
