   * xtb version 6.5.1 (579679a) compiled by 'ehlert@majestix' on 2022-07-11
          program call               : /lustre/hpc/kemi/ree/PhD/git/ReactivityQM/dep/xtb-6.5.1/bin/xtb --gfn 1 /lustre/hpc/kemi/ree/PhD/git/ReactivityQM/calculations/R02deprot/reac01prodN09/conf07/R02deprot_reac01prodN09_conf07_gfn1.xyz --opt --vfukui --chrg 0 --uhf 0 --alpb DMSO

   ID    Z sym.   atoms
    1    6 C      1, 3, 4, 6, 8-11, 13, 15, 18, 19, 22, 24
    2    8 O      2, 5, 14, 20, 23, 25
    3    7 N      7, 12, 16, 17, 21
    4    1 H      26-42

      * Solvation model:               ALPB
        Solvent                        DMSO
        Solvent mass                       7.8130E+01 g/mol
          :  Hamiltonian                  GFN1-xTB          :
 * total energy  :   -82.8472152 Eh     change       -0.1813163E-09 Eh
 * total energy  :   -82.8653686 Eh     change       -0.1815335E-01 Eh
 * total energy  :   -82.8774744 Eh     change       -0.1210586E-01 Eh
 * total energy  :   -82.8810091 Eh     change       -0.3534645E-02 Eh
 * total energy  :   -82.8848128 Eh     change       -0.3803716E-02 Eh
 * total energy  :   -82.8882743 Eh     change       -0.3461577E-02 Eh
 * total energy  :   -82.8931352 Eh     change       -0.4860848E-02 Eh
 * total energy  :   -82.9005290 Eh     change       -0.7393813E-02 Eh
 * total energy  :   -82.9063505 Eh     change       -0.5821471E-02 Eh
 * total energy  :   -82.9099155 Eh     change       -0.3565020E-02 Eh
 * total energy  :   -82.9671434 Eh     change       -0.2951925E-04 Eh
 * total energy  :   -82.9671575 Eh     change       -0.1416914E-04 Eh
 * total energy  :   -82.9671799 Eh     change       -0.2235425E-04 Eh
 * total energy  :   -82.9671890 Eh     change       -0.9137429E-05 Eh
 * total energy  :   -82.9672048 Eh     change       -0.1578366E-04 Eh
 * total energy  :   -82.9672121 Eh     change       -0.7260363E-05 Eh
 * total energy  :   -82.9672202 Eh     change       -0.8085205E-05 Eh
 * total energy  :   -82.9672308 Eh     change       -0.1067779E-04 Eh
 * total energy  :   -82.9672349 Eh     change       -0.4060801E-05 Eh
   *** GEOMETRY OPTIMIZATION CONVERGED AFTER 141 ITERATIONS ***

 final structure:
================
42
 xtb: 6.5.1 (579679a)
C           -3.37827058882767        3.63257783685179        0.35822831238076
O           -3.88640126174117        2.72242949320906       -0.63623881069820
C           -3.50982224666362        1.49473604446824       -0.65074863317249
C           -4.12072094452507        0.62309469207999       -1.67256288312766
O           -2.64128208436274        1.11912129336779        0.20681487041257
C           -2.26304703517672       -0.23243312199506        0.45351664034739
N           -0.93784859026791       -0.42475100446091        0.53047728434679
C           -0.55314847039634       -1.65838000652168        0.84642467661597
C            0.94036449259110       -1.91888807025438        0.96198309339671
C            1.29139778117487       -2.06440232064596        2.45081011419489
C            1.30280663899044       -3.19248191476858        0.18696298757936
N            1.64182704980496       -0.76976939905733        0.39175938223096
C            2.97603294979484       -0.65528514611659        0.32718270317893
O            3.78641295717255       -1.47007596674104        0.74174013425466
C            3.37633630929501        0.61550330922802       -0.34040445029101
N            2.57792578945390        1.50759194599896       -0.84475471557677
N            3.36627855951292        2.49067403999420       -1.36814689987598
C            4.59504298451056        2.13346562648553       -1.14958893969459
C            5.82712425957600        2.86150640827005       -1.52609254125432
O            4.66758113979057        0.95921367471716       -0.50527350352681
N           -1.33494559244703       -2.69065397537900        1.10669223455235
C           -2.68619490885640       -2.54687845108882        1.04184425894319
O           -3.50341080660961       -3.44897804507742        1.26569321260242
C           -3.17365061898885       -1.21429217272639        0.68081782585830
O           -4.52164166564782       -1.03823952256702        0.63653166453000
H           -2.31646688236381        3.80469685363501        0.18301985398866
H           -3.94563423775320        4.55191412586970        0.23660283253630
H           -3.52821335567599        3.20815692853790        1.35088130981057
H           -3.41998134336992       -0.15138887889474       -1.97923867523257
H           -4.45087869637063        1.22167247844903       -2.51782124183718
H           -4.99196509637492        0.13083306000370       -1.23184790345436
H            2.34266156021736       -2.32018825630624        2.57104010378580
H            1.08852747137974       -1.13026904479437        2.97276878923354
H            0.67818512372132       -2.85375673546191        2.88368984801412
H            1.10763293284471       -3.04865922295039       -0.87507491841096
H            2.35379669825914       -3.43933126252167        0.32688999973594
H            0.68875160271701       -4.01540999994473        0.55125006010947
H            1.05754853190188       -0.01944581111369        0.04052632368490
H            5.56474146205086        3.76108052490980       -2.07715951890798
H            6.46227807550227        2.22604662466450       -2.14286214830144
H            6.38782027233782        3.13333211155730       -0.63171402784174
H           -4.91755221619330       -1.89368974294118        0.90326729468778

          :  Hamiltonian                  GFN1-xTB          :
         :: total energy             -82.967234895322 Eh    ::
         :: gradient norm              0.000699820424 Eh/a0 ::
         :: HOMO-LUMO gap              1.548926890219 eV    ::
         :: SCC energy               -83.745108045506 Eh    ::
         :: -> Gsolv                  -0.062441451943 Eh    ::
         :: repulsion energy           0.802722491637 Eh    ::

    * Orbital Energies and Occupations

         #    Occupation            Energy/Eh            Energy/eV
      -------------------------------------------------------------
         1        2.0000           -0.9073736             -24.6909
       ...           ...                  ...                  ...
        55        2.0000           -0.5009352             -13.6311
        56        2.0000           -0.4893300             -13.3153
        57        2.0000           -0.4880877             -13.2815
        58        2.0000           -0.4788867             -13.0312
        59        2.0000           -0.4640062             -12.6263
        60        2.0000           -0.4578276             -12.4581
        61        2.0000           -0.4560728             -12.4104
        62        2.0000           -0.4470192             -12.1640
        63        2.0000           -0.4467345             -12.1563
        64        2.0000           -0.4353657             -11.8469
        65        2.0000           -0.4320273             -11.7561
        66        2.0000           -0.4013718             -10.9219
        67        2.0000           -0.3972723             -10.8103 (HOMO)
        68                         -0.3403503              -9.2614 (LUMO)
        69                         -0.3037738              -8.2661
        70                         -0.2609726              -7.1014
        71                         -0.2545258              -6.9260
        72                         -0.2516528              -6.8478
        73                         -0.1920038              -5.2247
        74                         -0.1684539              -4.5839
        75                         -0.1537403              -4.1835
        76                         -0.1418696              -3.8605
        77                         -0.1398190              -3.8047
        78                         -0.1133276              -3.0838
       ...                                ...                  ...
       134                          0.7258989              19.7527
      -------------------------------------------------------------
                  HL-Gap            0.0569220 Eh            1.5489 eV

Wiberg/Mayer (AO) data.
largest (>0.10) Wiberg bond orders for each atom

     #   Z sym  total        # sym  WBO       # sym  WBO       # sym  WBO
 ---------------------------------------------------------------------------
     1   6 C    3.826 --    27 H    0.982    28 H    0.975    26 H    0.974
                             2 O    0.852
     2   8 O    2.304 --     3 C    1.273     1 C    0.852
     3   6 C    3.781 --     5 O    1.294     2 O    1.273     4 C    1.038
     4   6 C    3.970 --     3 C    1.038    30 H    0.968    29 H    0.963
                            31 H    0.915
     5   8 O    2.351 --     3 C    1.294     6 C    0.832
     6   6 C    3.813 --    24 C    1.488     7 N    1.257     5 O    0.832
     7   7 N    3.003 --     8 C    1.381     6 C    1.257
     8   6 C    3.950 --    21 N    1.425     7 N    1.381     9 C    0.978
     9   6 C    3.932 --    11 C    0.986     8 C    0.978    10 C    0.978
                            12 N    0.924
    10   6 C    3.992 --    33 H    0.986    34 H    0.985    32 H    0.982
                             9 C    0.978
    11   6 C    3.992 --    35 H    0.986     9 C    0.986    37 H    0.983
                            36 H    0.983
    12   7 N    3.371 --    13 C    1.284     9 C    0.924    38 H    0.881
                            14 O    0.185
    13   6 C    3.922 --    14 O    1.574    12 N    1.284    15 C    0.983
    14   8 O    1.894 --    13 C    1.574    12 N    0.185
    15   6 C    3.871 --    16 N    1.616    20 O    1.063    13 C    0.983
    16   7 N    3.010 --    15 C    1.616    17 N    1.194
    17   7 N    2.979 --    18 C    1.610    16 N    1.194
    18   6 C    3.873 --    17 N    1.610    20 O    1.082    19 C    1.031
    19   6 C    3.987 --    18 C    1.031    39 H    0.983    40 H    0.965
                            41 H    0.963
    20   8 O    2.328 --    18 C    1.082    15 C    1.063
    21   7 N    2.996 --     8 C    1.425    22 C    1.216    23 O    0.116
    22   6 C    3.930 --    23 O    1.507    21 N    1.216    24 C    1.071
    23   8 O    1.834 --    22 C    1.507    21 N    0.116
    24   6 C    3.905 --     6 C    1.488    22 C    1.071    25 O    1.046
    25   8 O    2.035 --    24 C    1.046    42 H    0.805
    26   1 H    0.998 --     1 C    0.974
    27   1 H    1.003 --     1 C    0.982
    28   1 H    0.999 --     1 C    0.975
    29   1 H    0.992 --     4 C    0.963
    30   1 H    0.991 --     4 C    0.968
    31   1 H    0.999 --     4 C    0.915
    32   1 H    1.010 --    10 C    0.982
    33   1 H    1.004 --    10 C    0.986
    34   1 H    1.008 --    10 C    0.985
    35   1 H    1.004 --    11 C    0.986
    36   1 H    1.011 --    11 C    0.983
    37   1 H    1.016 --    11 C    0.983
    38   1 H    0.974 --    12 N    0.881
    39   1 H    0.999 --    19 C    0.983
    40   1 H    0.997 --    19 C    0.965
    41   1 H    0.997 --    19 C    0.963
    42   1 H    0.855 --    25 O    0.805
 ---------------------------------------------------------------------------

           -------------------------------------------------
          | TOTAL ENERGY              -82.967234895322 Eh   |
          | GRADIENT NORM               0.000699820424 Eh/α |
          | HOMO-LUMO GAP               1.548926890219 eV   |
           -------------------------------------------------

 * finished run on 2023/06/20 at 18:15:36.336
