   * xtb version 6.5.1 (579679a) compiled by 'ehlert@majestix' on 2022-07-11
          program call               : /lustre/hpc/kemi/ree/PhD/git/ReactivityQM/dep/xtb-6.5.1/bin/xtb --gfn 1 /lustre/hpc/kemi/ree/PhD/git/ReactivityQM/calculations/R02/reac01prodN13/conf06/R02_reac01prodN13_conf06_gfn1.xyz --opt --vfukui --chrg 1 --uhf 0 --alpb DMSO

   ID    Z sym.   atoms
    1    6 C      1, 3, 5, 7-10, 12, 14, 17-19, 22, 24
    2    8 O      2, 4, 13, 20, 23, 25
    3    7 N      6, 11, 15, 16, 21
    4    1 H      26-43

      * Solvation model:               ALPB
        Solvent                        DMSO
        Solvent mass                       7.8130E+01 g/mol
          :  Hamiltonian                  GFN1-xTB          :
 * total energy  :   -83.0969055 Eh     change       -0.2360423E-10 Eh
 * total energy  :   -83.1113704 Eh     change       -0.1446494E-01 Eh
 * total energy  :   -83.1168560 Eh     change       -0.5485555E-02 Eh
 * total energy  :   -83.1178225 Eh     change       -0.9665531E-03 Eh
 * total energy  :   -83.1185400 Eh     change       -0.7175286E-03 Eh
 * total energy  :   -83.1188102 Eh     change       -0.2701803E-03 Eh
 * total energy  :   -83.1190394 Eh     change       -0.2291953E-03 Eh
 * total energy  :   -83.1192146 Eh     change       -0.1752210E-03 Eh
 * total energy  :   -83.1193424 Eh     change       -0.1277826E-03 Eh
 * total energy  :   -83.1194198 Eh     change       -0.7735611E-04 Eh
 * total energy  :   -83.1198076 Eh     change       -0.4631383E-04 Eh
 * total energy  :   -83.1198468 Eh     change       -0.3923591E-04 Eh
 * total energy  :   -83.1198596 Eh     change       -0.1273874E-04 Eh
 * total energy  :   -83.1198764 Eh     change       -0.1683789E-04 Eh
 * total energy  :   -83.1198895 Eh     change       -0.1304434E-04 Eh
 * total energy  :   -83.1199003 Eh     change       -0.1084907E-04 Eh
 * total energy  :   -83.1199086 Eh     change       -0.8341970E-05 Eh
 * total energy  :   -83.1199148 Eh     change       -0.6164481E-05 Eh
 * total energy  :   -83.1199195 Eh     change       -0.4709664E-05 Eh
   *** GEOMETRY OPTIMIZATION CONVERGED AFTER 28 ITERATIONS ***

 final structure:
================
43
 xtb: 6.5.1 (579679a)
C            6.25939449521828        2.72810125414528        0.23181121221393
O            5.35342679964350        1.61801619192257        0.21997798845212
C            4.16505361531811        1.82570903907644       -0.33212895400848
O            3.82116772234328        2.88042985109641       -0.81060921766191
C            3.28518286026386        0.61270298670906       -0.30887435105203
N            2.07129403468407        0.80263438149472       -0.90860548917625
C            1.21154768962811       -0.15992558701422       -0.97680829985525
C           -0.11405044457936        0.08990817870490       -1.67892713173486
C           -0.24411798512779       -0.80376222099910       -2.91793897477459
C           -0.21888075765334        1.56388791377339       -2.07127250242415
N           -1.21610159550491       -0.17338100336214       -0.73196422606451
C           -1.64937354305356       -1.38199074688101       -0.35801884456143
O           -1.18423808461222       -2.46436666491554       -0.65564568425925
C           -2.84243727983777       -1.29602316729045        0.55557289491598
N           -3.52170177971535       -2.37813607472496        1.04203385781372
N           -4.44472789671427       -1.94788912115775        1.79026519207126
C           -4.41787324733380       -0.52606228231543        1.84051022443942
C           -4.11467907445038       -0.04295698407220        3.26519827393775
C           -5.71243203560061        0.07509317153983        1.28148053764337
O           -3.32265506270559       -0.19144382894661        0.98404488524125
N            1.46465861906248       -1.39589725688808       -0.47131508580206
C            2.63427810620324       -1.70663309000363        0.18331092997485
O            2.85376311911940       -2.80464492050201        0.66485816907414
C            3.59819940862461       -0.60455251526005        0.24684439933427
O            4.74177956961018       -0.87730309886392        0.86505546944428
H            5.80598771423134        3.57470896912193        0.75225853705374
H            7.15233264649695        2.39288469402150        0.75562207671296
H            6.50413227704000        3.01987308511413       -0.79215224072336
H            0.52297612662998       -0.52054994931974       -3.63762318605947
H           -0.11953106464609       -1.85437007828775       -2.66764050331673
H           -1.22519945411487       -0.65870230132113       -3.36599171846645
H           -1.17911224996472        1.75004043004584       -2.54728011758412
H            0.58095605288030        1.81173754692551       -2.76758166953344
H           -0.12248429871034        2.19668473625464       -1.19074803279164
H           -1.70158197757572        0.63400078608090       -0.37361661136552
H           -4.03435020466650        1.04110345338186        3.25594741135431
H           -3.17631887836298       -0.48034144675416        3.59921060115447
H           -4.92534224442363       -0.35350754025693        3.91981677716394
H           -6.54319209449570       -0.23175310195671        1.91232543478793
H           -5.62287574352121        1.15848863427373        1.28274257429733
H           -5.86360588135778       -0.28139004862138        0.26506200722204
H            0.76316659791612       -2.12733612145123       -0.53868798499794
H            4.72756542374408       -1.79778515255218        1.18948437193195

          :  Hamiltonian                  GFN1-xTB          :
         :: total energy             -83.119919520605 Eh    ::
         :: gradient norm              0.000579694560 Eh/a0 ::
         :: HOMO-LUMO gap              0.133443098358 eV    ::
         :: SCC energy               -83.906665131547 Eh    ::
         :: -> Gsolv                  -0.117931310656 Eh    ::
         :: repulsion energy           0.812780486163 Eh    ::

    * Orbital Energies and Occupations

         #    Occupation            Energy/Eh            Energy/eV
      -------------------------------------------------------------
         1        2.0000           -0.9363695             -25.4799
       ...           ...                  ...                  ...
        55        2.0000           -0.5348387             -14.5537
        56        2.0000           -0.5287126             -14.3870
        57        2.0000           -0.5249411             -14.2844
        58        2.0000           -0.5204426             -14.1620
        59        2.0000           -0.5134624             -13.9720
        60        2.0000           -0.5067792             -13.7902
        61        2.0000           -0.5029725             -13.6866
        62        2.0000           -0.5019744             -13.6594
        63        2.0000           -0.4992106             -13.5842
        64        2.0000           -0.4972515             -13.5309
        65        2.0000           -0.4757431             -12.9456
        66        2.0000           -0.4662674             -12.6878
        67        1.8592           -0.4486858             -12.2094 (HOMO)
        68        0.1408           -0.4437819             -12.0759 (LUMO)
        69                         -0.3602549              -9.8030
        70                         -0.3391760              -9.2294
        71                         -0.3045154              -8.2863
        72                         -0.2615229              -7.1164
        73                         -0.2533603              -6.8943
        74                         -0.1758103              -4.7840
        75                         -0.1620640              -4.4100
        76                         -0.1564593              -4.2575
        77                         -0.1452498              -3.9524
        78                         -0.1418304              -3.8594
       ...                                ...                  ...
       136                          0.7249581              19.7271
      -------------------------------------------------------------
                  HL-Gap            0.0049039 Eh            0.1334 eV

Wiberg/Mayer (AO) data.
largest (>0.10) Wiberg bond orders for each atom

     #   Z sym  total        # sym  WBO       # sym  WBO       # sym  WBO
 ---------------------------------------------------------------------------
     1   6 C    3.865 --    27 H    0.986    26 H    0.979    28 H    0.979
                             2 O    0.891
     2   8 O    2.211 --     3 C    1.128     1 C    0.891     4 O    0.139
     3   6 C    3.855 --     4 O    1.665     2 O    1.128     5 C    0.987
     4   8 O    1.926 --     3 C    1.665     2 O    0.139
     5   6 C    3.919 --    24 C    1.462     6 N    1.203     3 C    0.987
     6   7 N    2.999 --     7 C    1.557     5 C    1.203
     7   6 C    3.899 --     6 N    1.557    21 N    1.197     8 C    0.963
     8   6 C    3.910 --    10 C    0.999     9 C    0.979     7 C    0.963
                            11 N    0.901
     9   6 C    3.979 --    29 H    0.982    31 H    0.981     8 C    0.979
                            30 H    0.978
    10   6 C    3.985 --     8 C    0.999    32 H    0.984    34 H    0.981
                            33 H    0.980
    11   7 N    3.410 --    12 C    1.303     8 C    0.901    35 H    0.881
                            13 O    0.212
    12   6 C    3.924 --    13 O    1.585    11 N    1.303    14 C    0.953
    13   8 O    1.946 --    12 C    1.585    11 N    0.212
    14   6 C    3.732 --    20 O    1.314    15 N    1.222    12 C    0.953
    15   7 N    3.013 --    16 N    1.651    14 C    1.222
    16   7 N    2.908 --    15 N    1.651    17 C    1.057
    17   6 C    3.814 --    16 N    1.057    19 C    0.907    18 C    0.902
                            20 O    0.858
    18   6 C    3.940 --    37 H    0.979    38 H    0.977    36 H    0.976
                            17 C    0.902
    19   6 C    3.941 --    41 H    0.979    39 H    0.977    40 H    0.976
                            17 C    0.907
    20   8 O    2.352 --    14 C    1.314    17 C    0.858
    21   7 N    3.464 --     7 C    1.197    22 C    1.131    42 H    0.852
                            23 O    0.126
    22   6 C    3.899 --    23 O    1.595    21 N    1.131    24 C    1.050
    23   8 O    1.888 --    22 C    1.595    21 N    0.126
    24   6 C    3.864 --     5 C    1.462    25 O    1.137    22 C    1.050
    25   8 O    2.087 --    24 C    1.137    43 H    0.797
    26   1 H    1.006 --     1 C    0.979
    27   1 H    1.010 --     1 C    0.986
    28   1 H    1.005 --     1 C    0.979
    29   1 H    0.997 --     9 C    0.982
    30   1 H    1.004 --     9 C    0.978
    31   1 H    0.995 --     9 C    0.981
    32   1 H    0.996 --    10 C    0.984
    33   1 H    1.004 --    10 C    0.980
    34   1 H    1.001 --    10 C    0.981
    35   1 H    0.920 --    11 N    0.881
    36   1 H    0.991 --    18 C    0.976
    37   1 H    0.991 --    18 C    0.979
    38   1 H    0.991 --    18 C    0.977
    39   1 H    0.991 --    19 C    0.977
    40   1 H    0.991 --    19 C    0.976
    41   1 H    0.991 --    19 C    0.979
    42   1 H    0.923 --    21 N    0.852
    43   1 H    0.836 --    25 O    0.797
 ---------------------------------------------------------------------------

           -------------------------------------------------
          | TOTAL ENERGY              -83.119919520605 Eh   |
          | GRADIENT NORM               0.000579694560 Eh/α |
          | HOMO-LUMO GAP               0.133443098358 eV   |
           -------------------------------------------------

 * finished run on 2023/06/20 at 15:36:02.362
