                         Program Version 5.0.1 -  RELEASE  -
|  1> # ORCA input file
|  2> ! SP r2SCAN-3c CPCM
|  3>
|  4> %maxcore 1875.0
|  5> %pal nprocs 4 end
|  6> %cpcm smd true SMDsolvent "DMSO" end
|  7>
|  8> *xyz -1 1
|  9> C      -1.536431   -1.830114    0.058977
| 10> C      -0.371321   -0.969269   -0.244029
| 11> O       0.824918   -1.477837   -0.579349
| 12> C       1.652146   -0.371567   -0.822839
| 13> C       2.993986   -0.444239   -0.491263
| 14> O       4.075054   -0.374648   -1.004867
| 15> Cl      3.483809    4.688118    3.482220
| 16> N       0.917209    0.783593   -0.631746
| 17> N      -0.302528    0.330532   -0.269366
| 18> C      -1.364815    1.277017   -0.019710
| 19> H      -2.330899   -1.665974   -0.669826
| 20> H      -1.229751   -2.872885    0.025106
| 21> H      -1.935106   -1.602301    1.047751
| 22> H      -0.944624    2.279423   -0.061610
| 23> H      -2.134870    1.162651   -0.780906
| 24> H      -1.796778    1.087501    0.961457
| 25> **                         ****END OF INPUT****

CARTESIAN COORDINATES (ANGSTROEM)
---------------------------------
  C     -1.536431   -1.830114    0.058977
  C     -0.371321   -0.969269   -0.244029
  O      0.824918   -1.477837   -0.579349
  C      1.652146   -0.371567   -0.822839
  C      2.993986   -0.444239   -0.491263
  O      4.075054   -0.374648   -1.004867
  Cl     3.483809    4.688118    3.482220
  N      0.917209    0.783593   -0.631746
  N     -0.302528    0.330532   -0.269366
  C     -1.364815    1.277017   -0.019710
  H     -2.330899   -1.665974   -0.669826
  H     -1.229751   -2.872885    0.025106
  H     -1.935106   -1.602301    1.047751
  H     -0.944624    2.279423   -0.061610
  H     -2.134870    1.162651   -0.780906
  H     -1.796778    1.087501    0.961457

 Total Charge           Charge          ....   -1
 Multiplicity           Mult            ....    1
 Number of Electrons    NEL             ....   84
 Basis Dimension        Dim             ....  248

ORBITAL ENERGIES
----------------

  NO   OCC          E(Eh)            E(eV)
   0   2.0000    -101.069838     -2750.2501
   1   2.0000     -19.040063      -518.1065
   2   2.0000     -18.964940      -516.0623
   3   2.0000     -14.275596      -388.4587
   4   2.0000     -14.175504      -385.7351
   5   2.0000     -10.154704      -276.3235
   6   2.0000     -10.119989      -275.3789
   7   2.0000     -10.093281      -274.6522
   8   2.0000     -10.072681      -274.0916
   9   2.0000     -10.049830      -273.4698
  10   2.0000      -9.226099      -251.0549
  11   2.0000      -6.965635      -189.5446
  12   2.0000      -6.965627      -189.5444
  13   2.0000      -6.965605      -189.5438
  14   2.0000      -1.128693       -30.7133
  15   2.0000      -1.018654       -27.7190
  16   2.0000      -0.995227       -27.0815
  17   2.0000      -0.839173       -22.8351
  18   2.0000      -0.740644       -20.1540
  19   2.0000      -0.706520       -19.2254
  20   2.0000      -0.670710       -18.2510
  21   2.0000      -0.623950       -16.9785
  22   2.0000      -0.586816       -15.9681
  23   2.0000      -0.555181       -15.1073
  24   2.0000      -0.491211       -13.3665
  25   2.0000      -0.476227       -12.9588
  26   2.0000      -0.431553       -11.7432
  27   2.0000      -0.428453       -11.6588
  28   2.0000      -0.411128       -11.1874
  29   2.0000      -0.405287       -11.0284
  30   2.0000      -0.391369       -10.6497
  31   2.0000      -0.384624       -10.4661
  32   2.0000      -0.376129       -10.2350
  33   2.0000      -0.359999        -9.7961
  34   2.0000      -0.351488        -9.5645
  35   2.0000      -0.323793        -8.8109
  36   2.0000      -0.285783        -7.7766
  37   2.0000      -0.250219        -6.8088
  38   2.0000      -0.186742        -5.0815
  39   2.0000      -0.186737        -5.0814
  40   2.0000      -0.186722        -5.0810
  41   2.0000      -0.130277        -3.5450
  42   0.0000      -0.071225        -1.9381
  43   0.0000      -0.039868        -1.0849
  44   0.0000      -0.019179        -0.5219
  45   0.0000       0.067936         1.8486
  46   0.0000       0.093439         2.5426

MULLIKEN ATOMIC CHARGES
-----------------------
   0 C :   -0.596006
   1 C :    0.177893
   2 O :   -0.070740
   3 C :    0.183390
   4 C :   -0.094478
   5 O :   -0.323806
   6 Cl:   -0.999908
   7 N :   -0.543182
   8 N :    0.488946
   9 C :   -0.459982
  10 H :    0.209750
  11 H :    0.204505
  12 H :    0.210167
  13 H :    0.207248
  14 H :    0.203713
  15 H :    0.202490
Sum of atomic charges:   -1.0000000

LOEWDIN ATOMIC CHARGES
----------------------
   0 C :   -0.309357
   1 C :    0.411908
   2 O :   -0.412522
   3 C :    0.320530
   4 C :    0.205323
   5 O :   -0.423190
   6 Cl:   -0.999937
   7 N :   -0.358317
   8 N :   -0.593735
   9 C :   -0.045144
  10 H :    0.195101
  11 H :    0.193157
  12 H :    0.196386
  13 H :    0.212352
  14 H :    0.203145
  15 H :    0.204299

  Mayer bond orders larger than 0.100000
B(  0-C ,  1-C ) :   0.8523 B(  0-C , 10-H ) :   0.9448 B(  0-C , 11-H ) :   0.9658
B(  0-C , 12-H ) :   0.9444 B(  1-C ,  2-O ) :   1.1159 B(  1-C ,  7-N ) :   0.2171
B(  1-C ,  8-N ) :   1.5911 B(  2-O ,  3-C ) :   0.9428 B(  3-C ,  4-C ) :   1.2143
B(  3-C ,  7-N ) :   1.2677 B(  4-C ,  5-O ) :   1.8872 B(  4-C ,  7-N ) :   0.1365
B(  7-N ,  8-N ) :   1.2435 B(  8-N ,  9-C ) :   0.8825 B(  9-C , 13-H ) :   0.9459
B(  9-C , 14-H ) :   0.9306 B(  9-C , 15-H ) :   0.9349

Dispersion correction           -0.004626533
FINAL SINGLE POINT ENERGY      -914.233156765357

DIPOLE MOMENT
-------------
                                X             Y             Z
Electronic contribution:     11.29235       3.26954       1.02024
Nuclear contribution   :    -20.13125     -11.10581      -6.02772
                        -----------------------------------------
Total Dipole Moment    :     -8.83891      -7.83627      -5.00748
                        -----------------------------------------
Magnitude (a.u.)       :     12.82997
Magnitude (Debye)      :     32.61120

Rotational constants in cm-1:     0.036353     0.011173     0.009058
Rotational constants in MHz :  1089.833834   334.950277   271.544068

                             ****ORCA TERMINATED NORMALLY****
TOTAL RUN TIME: 0 days 0 hours 0 minutes 26 seconds 661 msec
