   * xtb version 6.5.1 (579679a) compiled by 'ehlert@majestix' on 2022-07-11
          program call               : /lustre/hpc/kemi/ree/PhD/git/ReactivityQM/dep/xtb-6.5.1/bin/xtb --gfn 1 /lustre/hpc/kemi/ree/PhD/git/ReactivityQM/calculations/RaltegravirCLI/reac01prodE03/conf10/RaltegravirCLI_reac01prodE03_conf10_gfn1.xyz --opt --vfukui --chrg -1 --uhf 0 --alpb DMSO

   ID    Z sym.   atoms
    1    6 C      1, 2, 4, 5, 10
    2    8 O      3, 6
    3   17 Cl     7
    4    7 N      8, 9
    5    1 H      11-16

      * Solvation model:               ALPB
        Solvent                        DMSO
        Solvent mass                       7.8130E+01 g/mol
          :  Hamiltonian                  GFN1-xTB          :
 * total energy  :   -34.0917096 Eh     change       -0.9242029E-10 Eh
 * total energy  :   -34.1026102 Eh     change       -0.1090062E-01 Eh
 * total energy  :   -34.1084062 Eh     change       -0.5796019E-02 Eh
 * total energy  :   -34.1094287 Eh     change       -0.1022506E-02 Eh
 * total energy  :   -34.1107096 Eh     change       -0.1280860E-02 Eh
 * total energy  :   -34.1110466 Eh     change       -0.3370641E-03 Eh
 * total energy  :   -34.1112577 Eh     change       -0.2110600E-03 Eh
 * total energy  :   -34.1113022 Eh     change       -0.4452141E-04 Eh
 * total energy  :   -34.1113123 Eh     change       -0.1006010E-04 Eh
 * total energy  :   -34.1113194 Eh     change       -0.7092899E-05 Eh
 * total energy  :   -34.1294490 Eh     change       -0.3119844E-03 Eh
 * total energy  :   -34.1297437 Eh     change       -0.2947271E-03 Eh
 * total energy  :   -34.1298658 Eh     change       -0.1221030E-03 Eh
 * total energy  :   -34.1299987 Eh     change       -0.1329001E-03 Eh
 * total energy  :   -34.1300385 Eh     change       -0.3975687E-04 Eh
 * total energy  :   -34.1300620 Eh     change       -0.2355846E-04 Eh
 * total energy  :   -34.1300732 Eh     change       -0.1114652E-04 Eh
 * total energy  :   -34.1300766 Eh     change       -0.3440723E-05 Eh
 * total energy  :   -34.1300796 Eh     change       -0.3004685E-05 Eh
   *** GEOMETRY OPTIMIZATION CONVERGED AFTER 52 ITERATIONS ***

 final structure:
================
16
 xtb: 6.5.1 (579679a)
C           -1.53643136166409       -1.83011417564054        0.05897651566398
C           -0.37132071603100       -0.96926865694354       -0.24402890449419
O            0.82491781088679       -1.47783746048028       -0.57934905381840
C            1.65214618337340       -0.37156676665343       -0.82283886625408
C            2.99398603935503       -0.44423915618508       -0.49126250512383
O            4.07505387766184       -0.37464838468359       -1.00486723807757
Cl           3.48380949066794        4.68811846320504        3.48222005020706
N            0.91720873227469        0.78359341638311       -0.63174618783178
N           -0.30252764897171        0.33053221644402       -0.26936619563083
C           -1.36481476636149        1.27701681248481       -0.01971014151139
H           -2.33089896177570       -1.66597383481646       -0.66982582907385
H           -1.22975104773935       -2.87288535210531        0.02510640789783
H           -1.93510645623383       -1.60230107664034        1.04775147795017
H           -0.94462398436687        2.27942303856628       -0.06161034454804
H           -2.13486973485071        1.16265097377822       -0.78090552280395
H           -1.79677845622513        1.08750094328716        0.96145733744783

          :  Hamiltonian                  GFN1-xTB          :
         :: total energy             -34.130079602384 Eh    ::
         :: gradient norm              0.000441178816 Eh/a0 ::
         :: HOMO-LUMO gap              1.783449587164 eV    ::
         :: SCC energy               -34.410412762320 Eh    ::
         :: -> Gsolv                  -0.134432093830 Eh    ::
         :: repulsion energy           0.286521009911 Eh    ::

    * Orbital Energies and Occupations

         #    Occupation            Energy/Eh            Energy/eV
      -------------------------------------------------------------
         1        2.0000           -0.8525763             -23.1998
       ...           ...                  ...                  ...
        16        2.0000           -0.5647090             -15.3665
        17        2.0000           -0.5580695             -15.1858
        18        2.0000           -0.5523275             -15.0296
        19        2.0000           -0.5416540             -14.7392
        20        2.0000           -0.5365081             -14.5991
        21        2.0000           -0.5248044             -14.2807
        22        2.0000           -0.4991173             -13.5817
        23        2.0000           -0.4755356             -12.9400
        24        2.0000           -0.4755356             -12.9400
        25        2.0000           -0.4755356             -12.9400
        26        2.0000           -0.4574751             -12.4485
        27        2.0000           -0.4417548             -12.0208
        28        2.0000           -0.3462230              -9.4212 (HOMO)
        29                         -0.2806825              -7.6378 (LUMO)
        30                         -0.2708821              -7.3711
        31                         -0.2193640              -5.9692
        32                         -0.1581662              -4.3039
        33                         -0.1442175              -3.9244
        34                         -0.1003712              -2.7312
        35                         -0.0867418              -2.3604
        36                         -0.0712604              -1.9391
        37                         -0.0678483              -1.8462
        38                          0.0191805               0.5219
        39                          0.0371262               1.0103
       ...                                ...                  ...
        57                          0.8143877              22.1606
      -------------------------------------------------------------
                  HL-Gap            0.0655406 Eh            1.7834 eV

Wiberg/Mayer (AO) data.
largest (>0.10) Wiberg bond orders for each atom

     #   Z sym  total        # sym  WBO       # sym  WBO       # sym  WBO
 ---------------------------------------------------------------------------
     1   6 C    3.984 --     2 C    1.028    12 H    0.980    13 H    0.965
                            11 H    0.963
     2   6 C    3.879 --     9 N    1.463     3 O    1.078     1 C    1.028
                             8 N    0.189
     3   8 O    2.228 --     2 C    1.078     4 C    0.928
     4   6 C    3.744 --     5 C    1.438     8 N    1.177     3 O    0.928
                             6 O    0.141
     5   6 C    3.563 --     6 O    1.862     4 C    1.438     8 N    0.155
     6   8 O    2.094 --     5 C    1.862     4 C    0.141
     7  17 Cl   0.000
     8   7 N    2.775 --     4 C    1.177     9 N    1.115     2 C    0.189
                             5 C    0.155
     9   7 N    3.645 --     2 C    1.463     8 N    1.115    10 C    0.936
    10   6 C    3.929 --    14 H    0.982    16 H    0.978    15 H    0.977
                             9 N    0.936
    11   1 H    0.996 --     1 C    0.963
    12   1 H    0.996 --     1 C    0.980
    13   1 H    0.996 --     1 C    0.965
    14   1 H    1.004 --    10 C    0.982
    15   1 H    0.998 --    10 C    0.977
    16   1 H    0.998 --    10 C    0.978
 ---------------------------------------------------------------------------

           -------------------------------------------------
          | TOTAL ENERGY              -34.130079602384 Eh   |
          | GRADIENT NORM               0.000441178816 Eh/α |
          | HOMO-LUMO GAP               1.783449587164 eV   |
           -------------------------------------------------

 * finished run on 2023/06/20 at 14:53:01.306
