   * xtb version 6.5.1 (579679a) compiled by 'ehlert@majestix' on 2022-07-11
          program call               : /lustre/hpc/kemi/ree/PhD/git/ReactivityQM/dep/xtb-6.5.1/bin/xtb --gfn 1 /lustre/hpc/kemi/ree/PhD/git/ReactivityQM/calculations/R02oxygendeprot/reac01prodE08/conf01/R02oxygendeprot_reac01prodE08_conf01_gfn1.xyz --opt --vfukui --chrg -2 --uhf 0 --alpb DMSO

   ID    Z sym.   atoms
    1    6 C      1, 3, 5, 7-10, 12, 14, 15, 18, 19, 22, 24
    2    8 O      2, 4, 13, 20, 23, 25
    3    7 N      6, 11, 16, 17, 21
    4    1 H      26-42

      * Solvation model:               ALPB
        Solvent                        DMSO
        Solvent mass                       7.8130E+01 g/mol
          :  Hamiltonian                  GFN1-xTB          :
 * total energy  :   -83.6225634 Eh     change       -0.2557954E-12 Eh
 * total energy  :   -83.6362734 Eh     change       -0.1371002E-01 Eh
 * total energy  :   -83.6413399 Eh     change       -0.5066496E-02 Eh
 * total energy  :   -83.6422604 Eh     change       -0.9204971E-03 Eh
 * total energy  :   -83.6428680 Eh     change       -0.6075911E-03 Eh
 * total energy  :   -83.6430643 Eh     change       -0.1963376E-03 Eh
 * total energy  :   -83.6431996 Eh     change       -0.1353117E-03 Eh
 * total energy  :   -83.6432872 Eh     change       -0.8763700E-04 Eh
 * total energy  :   -83.6433594 Eh     change       -0.7214659E-04 Eh
 * total energy  :   -83.6434213 Eh     change       -0.6195914E-04 Eh
 * total energy  :   -83.6443913 Eh     change       -0.1311159E-04 Eh
 * total energy  :   -83.6444281 Eh     change       -0.3675299E-04 Eh
 * total energy  :   -83.6444507 Eh     change       -0.2266343E-04 Eh
 * total energy  :   -83.6444673 Eh     change       -0.1655714E-04 Eh
 * total energy  :   -83.6444637 Eh     change        0.3627293E-05 Eh
 * total energy  :   -83.6444869 Eh     change       -0.2319976E-04 Eh
 * total energy  :   -83.6444972 Eh     change       -0.1030436E-04 Eh
 * total energy  :   -83.6445027 Eh     change       -0.5539914E-05 Eh
 * total energy  :   -83.6445046 Eh     change       -0.1861572E-05 Eh
   *** GEOMETRY OPTIMIZATION CONVERGED AFTER 46 ITERATIONS ***

 final structure:
================
42
 xtb: 6.5.1 (579679a)
C            4.63888507533212       -0.40382912437068        3.49417543174532
O            4.35003629877223        0.24274399076613        2.26520555323000
C            3.14691256880704       -0.06015220914834        1.70417538534683
O            2.38184008923023       -0.83413171512659        2.26747238640739
C            2.89352758540392        0.59006169092728        0.42830542974759
N            1.65360147825847        0.27732665487588       -0.10316887472734
C            1.29524567473535        0.73398086376253       -1.24384868522109
C           -0.04340902117124        0.36766892151829       -1.86251435128636
C            0.20207844994966       -0.57591208352950       -3.05334804112317
C           -0.79239552157778        1.62765432534576       -2.32849850110131
N           -0.82655758939794       -0.31147767625090       -0.84657487084207
C           -2.06086684194788       -0.80101832447917       -1.00996368078435
O           -2.66700292015705       -0.83826065448025       -2.08137906031386
C           -2.64209722661594       -1.37093570370950        0.33454169640920
C           -2.80049938646703       -2.89415666597535        0.14610288477675
N           -1.76068962431317       -1.04158165823955        1.44068130500850
N           -2.49377542222943       -0.22832496610632        2.26710913116491
C           -3.67856284493923       -0.08038048189301        1.80545972736032
C           -4.79725437477265        0.71065674554279        2.39008806970509
O           -3.90678686950657       -0.77001454808434        0.60222733438382
N            2.12802558547524        1.54831871572157       -1.98993942716007
C            3.36749004736682        1.95959524645513       -1.57525062115992
O            4.03331809510139        2.70362298401443       -2.29576557773312
C            3.82086336191465        1.43663152166338       -0.23403355355313
O            4.94854626310435        1.76893215679291        0.18299949761867
H            4.64250023485206       -1.49188365718686        3.37079706691181
H            5.62660382164897       -0.06825243202079        3.80763333229843
H            3.90082521588882       -0.13972375638534        4.25898650791620
H            0.68743615575821       -1.48987108315676       -2.71224576322696
H            0.84331353835987       -0.08788795676994       -3.78471355460344
H           -0.74234759486480       -0.83117180640687       -3.53111838206754
H           -0.23982762362196        2.12781621165275       -3.12051952898537
H           -1.77090678233495        1.34926399181146       -2.71712982505576
H           -0.92186377798204        2.31878692982906       -1.49632796964146
H           -0.49238180506428       -0.30477281157916        0.13168266175606
H           -3.43510707862225       -3.10272536461923       -0.71402665922930
H           -3.25325822080050       -3.31939464644172        1.03955780733534
H           -1.82081301129813       -3.34347812613668       -0.00635491063687
H           -5.64487992268978        0.06957181116970        2.64464085504990
H           -5.15394448129143        1.46760340040812        1.68740920842087
H           -4.44979589031138        1.20660029937623        3.29524932476573
H            1.83397529202222        1.88249899046575       -2.89200775891767

          :  Hamiltonian                  GFN1-xTB          :
         :: total energy             -83.644504566422 Eh    ::
         :: gradient norm              0.000451455656 Eh/a0 ::
         :: HOMO-LUMO gap              0.248911750330 eV    ::
         :: SCC energy               -84.383399349062 Eh    ::
         :: -> Gsolv                  -0.272336807308 Eh    ::
         :: repulsion energy           0.765194432275 Eh    ::

    * Orbital Energies and Occupations

         #    Occupation            Energy/Eh            Energy/eV
      -------------------------------------------------------------
         1        2.0000           -0.7934236             -21.5902
       ...           ...                  ...                  ...
        56        2.0000           -0.4490217             -12.2185
        57        2.0000           -0.4441843             -12.0869
        58        2.0000           -0.4326267             -11.7724
        59        2.0000           -0.4307086             -11.7202
        60        2.0000           -0.4106076             -11.1732
        61        2.0000           -0.4038697             -10.9899
        62        2.0000           -0.3991606             -10.8617
        63        2.0000           -0.3967140             -10.7951
        64        2.0000           -0.3749312             -10.2024
        65        2.0000           -0.3729453             -10.1484
        66        2.0000           -0.3594258              -9.7805
        67        2.0000           -0.3479363              -9.4678
        68        1.9839           -0.2741612              -7.4603 (HOMO)
        69        0.0161           -0.2650139              -7.2114 (LUMO)
        70                         -0.2306674              -6.2768
        71                         -0.2055602              -5.5936
        72                         -0.1914243              -5.2089
        73                         -0.1614695              -4.3938
        74                         -0.1203122              -3.2739
        75                         -0.1172933              -3.1917
        76                         -0.1075691              -2.9271
        77                         -0.1072528              -2.9185
        78                         -0.1010752              -2.7504
        79                         -0.0901092              -2.4520
       ...                                ...                  ...
       134                          0.7546075              20.5339
      -------------------------------------------------------------
                  HL-Gap            0.0091473 Eh            0.2489 eV

Wiberg/Mayer (AO) data.
largest (>0.10) Wiberg bond orders for each atom

     #   Z sym  total        # sym  WBO       # sym  WBO       # sym  WBO
 ---------------------------------------------------------------------------
     1   6 C    3.902 --    27 H    0.987    26 H    0.980    28 H    0.980
                             2 O    0.929
     2   8 O    2.153 --     3 C    1.038     1 C    0.929     4 O    0.108
     3   6 C    3.845 --     4 O    1.575     5 C    1.119     2 O    1.038
     4   8 O    1.851 --     3 C    1.575     2 O    0.108
     5   6 C    3.914 --    24 C    1.274     6 N    1.148     3 C    1.119
                            25 O    0.130
     6   7 N    3.039 --     7 C    1.640     5 C    1.148
     7   6 C    3.930 --     6 N    1.640    21 N    1.088     8 C    0.978
     8   6 C    3.955 --    10 C    0.983     9 C    0.979     7 C    0.978
                            11 N    0.946
     9   6 C    3.992 --    30 H    0.987    29 H    0.986    31 H    0.980
                             8 C    0.979
    10   6 C    3.993 --    34 H    0.986    32 H    0.984     8 C    0.983
                            33 H    0.981
    11   7 N    3.357 --    12 C    1.300     8 C    0.946    35 H    0.855
                            13 O    0.165
    12   6 C    3.864 --    13 O    1.564    11 N    1.300    14 C    0.887
    13   8 O    1.861 --    12 C    1.564    11 N    0.165
    14   6 C    3.898 --    16 N    1.020    15 C    0.964    20 O    0.920
                            12 C    0.887
    15   6 C    3.995 --    38 H    0.988    36 H    0.987    37 H    0.985
                            14 C    0.964
    16   7 N    2.638 --    17 N    1.170    14 C    1.020    18 C    0.205
    17   7 N    3.006 --    18 C    1.676    16 N    1.170
    18   6 C    3.862 --    17 N    1.676    19 C    1.015    20 O    0.933
                            16 N    0.205
    19   6 C    3.996 --    18 C    1.015    41 H    0.987    40 H    0.978
                            39 H    0.977
    20   8 O    2.058 --    18 C    0.933    14 C    0.920
    21   7 N    3.420 --    22 C    1.163     7 C    1.088    42 H    0.899
                            23 O    0.134
    22   6 C    3.873 --    23 O    1.566    21 N    1.163    24 C    0.974
    23   8 O    1.845 --    22 C    1.566    21 N    0.134
    24   6 C    3.941 --    25 O    1.508     5 C    1.274    22 C    0.974
    25   8 O    1.812 --    24 C    1.508     5 C    0.130
    26   1 H    1.015 --     1 C    0.980
    27   1 H    1.016 --     1 C    0.987
    28   1 H    1.015 --     1 C    0.980
    29   1 H    1.007 --     9 C    0.986
    30   1 H    1.004 --     9 C    0.987
    31   1 H    1.017 --     9 C    0.980
    32   1 H    1.003 --    10 C    0.984
    33   1 H    1.013 --    10 C    0.981
    34   1 H    1.006 --    10 C    0.986
    35   1 H    1.007 --    11 N    0.855
    36   1 H    1.012 --    15 C    0.987
    37   1 H    1.020 --    15 C    0.985
    38   1 H    1.015 --    15 C    0.988
    39   1 H    1.010 --    19 C    0.977
    40   1 H    1.010 --    19 C    0.978
    41   1 H    1.010 --    19 C    0.987
    42   1 H    0.951 --    21 N    0.899
 ---------------------------------------------------------------------------

           -------------------------------------------------
          | TOTAL ENERGY              -83.644504566422 Eh   |
          | GRADIENT NORM               0.000451455656 Eh/α |
          | HOMO-LUMO GAP               0.248911750330 eV   |
           -------------------------------------------------

 * finished run on 2023/06/21 at 17:10:18.334
