   * xtb version 6.5.1 (579679a) compiled by 'ehlert@majestix' on 2022-07-11
          program call               : /lustre/hpc/kemi/ree/PhD/git/ReactivityQM/dep/xtb-6.5.1/bin/xtb --gfn 1 /lustre/hpc/kemi/ree/PhD/git/ReactivityQM/calculations/R02deprot/reac01prodN19/conf05/R02deprot_reac01prodN19_conf05_gfn1.xyz --opt --vfukui --chrg 0 --uhf 0 --alpb DMSO

   ID    Z sym.   atoms
    1    6 C      1, 3, 5, 7-10, 12, 14, 17, 18, 21, 23, 24
    2    8 O      2, 4, 13, 19, 22, 25
    3    7 N      6, 11, 15, 16, 20
    4    1 H      26-42

      * Solvation model:               ALPB
        Solvent                        DMSO
        Solvent mass                       7.8130E+01 g/mol
          :  Hamiltonian                  GFN1-xTB          :
 * total energy  :   -82.9919859 Eh     change       -0.5698553E-11 Eh
 * total energy  :   -83.0043919 Eh     change       -0.1240603E-01 Eh
 * total energy  :   -83.0091563 Eh     change       -0.4764346E-02 Eh
 * total energy  :   -83.0098703 Eh     change       -0.7139910E-03 Eh
 * total energy  :   -83.0104700 Eh     change       -0.5997668E-03 Eh
 * total energy  :   -83.0107676 Eh     change       -0.2975401E-03 Eh
 * total energy  :   -83.0110309 Eh     change       -0.2633263E-03 Eh
 * total energy  :   -83.0112197 Eh     change       -0.1887664E-03 Eh
 * total energy  :   -83.0113548 Eh     change       -0.1351561E-03 Eh
 * total energy  :   -83.0114570 Eh     change       -0.1021554E-03 Eh
 * total energy  :   -83.0130771 Eh     change       -0.2161895E-04 Eh
 * total energy  :   -83.0131028 Eh     change       -0.2575400E-04 Eh
 * total energy  :   -83.0131124 Eh     change       -0.9592246E-05 Eh
 * total energy  :   -83.0131293 Eh     change       -0.1688295E-04 Eh
 * total energy  :   -83.0131383 Eh     change       -0.8999329E-05 Eh
 * total energy  :   -83.0131498 Eh     change       -0.1149155E-04 Eh
 * total energy  :   -83.0131627 Eh     change       -0.1284365E-04 Eh
 * total energy  :   -83.0131690 Eh     change       -0.6306220E-05 Eh
 * total energy  :   -83.0131737 Eh     change       -0.4725369E-05 Eh
   *** GEOMETRY OPTIMIZATION CONVERGED AFTER 52 ITERATIONS ***

 final structure:
================
42
 xtb: 6.5.1 (579679a)
C           -2.36739902157393        4.63625593124447        0.33825700537878
O           -2.56613626659578        3.21597447576981        0.26627299319748
C           -1.48151213767338        2.48602973042439       -0.02309295645161
O           -0.39492329997707        2.97249533288827       -0.21901870083948
C           -1.75847588745292        1.02138775453641       -0.07995940097202
N           -0.66395858365678        0.26935838591958       -0.32730117180347
C           -0.78687295372388       -1.03220812215477       -0.42085812977176
C            0.43966252589734       -1.86176971248457       -0.73915259983042
C            0.35149744597340       -2.29930065397156       -2.20999109695689
C            0.50926168694857       -3.07800757885373        0.19235764315627
N            1.60505202249989       -1.00529674812693       -0.53607955155556
C            2.87015971254415       -1.39664855586201       -0.75095545951041
O            3.21633667215388       -2.49902576470021       -1.15126662389264
C            3.86255205194220       -0.33301550614790       -0.43822389104627
N            5.15165103504607       -0.39376467254560       -0.56648215661323
N            5.64653749262704        0.80467268349429       -0.14274749748698
C            4.62858419288017        1.52146228743673        0.21889035660462
C            4.63808011835601        2.89870523207998        0.75840485805299
O            3.47016815304715        0.86126569512834        0.05631594639222
N           -1.94531693240138       -1.70007032372151       -0.29309048753363
C           -3.03182068307579       -1.00098804059305       -0.04172028129164
O           -4.20319695342138       -1.62192632876785        0.10776519017715
C           -4.20741226298667       -3.04240003862690       -0.01497710195733
C           -2.99821899573579        0.41904690579416        0.07676937597347
O           -4.15807730618556        1.04512750500610        0.31989896637281
H           -3.33035407409176        5.07226734897527        0.59223814748052
H           -1.62765501372116        4.86745006538681        1.10762077067770
H           -2.02003365509745        5.01057119477059       -0.62712124515551
H            0.35938814157166       -1.42400109012799       -2.85786529461148
H           -0.57702789925246       -2.84666042458963       -2.36273502456779
H            1.19213356726371       -2.94273401363137       -2.46354513756483
H            1.36221682616095       -3.70308962912037       -0.06580079469120
H           -0.40486521764829       -3.65962817830111        0.08856640572151
H            0.60493982794534       -2.74997542558389        1.22610956107790
H            1.41382384605364       -0.05935979712589       -0.22826499231628
H            4.18753755894093        2.91281570631852        1.75041023017023
H            4.05446986402110        3.55565404246002        0.11405136778717
H            5.66115931350495        3.26116457314279        0.81774602782086
H           -3.89015823442989       -3.33699428295691       -1.01897748809898
H           -3.53196154691730       -3.48895121831190        0.71972958097188
H           -5.23100745831103       -3.36541027434173        0.16756052075292
H           -4.04882667144240        2.00952152986949        0.38938813675573

          :  Hamiltonian                  GFN1-xTB          :
         :: total energy             -83.013173690101 Eh    ::
         :: gradient norm              0.000665969806 Eh/a0 ::
         :: HOMO-LUMO gap              2.932361143640 eV    ::
         :: SCC energy               -83.789637647501 Eh    ::
         :: -> Gsolv                  -0.051847747986 Eh    ::
         :: repulsion energy           0.801588264100 Eh    ::

    * Orbital Energies and Occupations

         #    Occupation            Energy/Eh            Energy/eV
      -------------------------------------------------------------
         1        2.0000           -0.8619161             -23.4539
       ...           ...                  ...                  ...
        55        2.0000           -0.5001723             -13.6104
        56        2.0000           -0.4989947             -13.5783
        57        2.0000           -0.4965253             -13.5111
        58        2.0000           -0.4808305             -13.0841
        59        2.0000           -0.4769752             -12.9792
        60        2.0000           -0.4738041             -12.8929
        61        2.0000           -0.4687882             -12.7564
        62        2.0000           -0.4588934             -12.4871
        63        2.0000           -0.4559615             -12.4073
        64        2.0000           -0.4476183             -12.1803
        65        2.0000           -0.4431639             -12.0591
        66        2.0000           -0.4333099             -11.7910
        67        2.0000           -0.4303920             -11.7116 (HOMO)
        68                         -0.3226297              -8.7792 (LUMO)
        69                         -0.3051802              -8.3044
        70                         -0.2818232              -7.6688
        71                         -0.2540510              -6.9131
        72                         -0.2385438              -6.4911
        73                         -0.1934155              -5.2631
        74                         -0.1550789              -4.2199
        75                         -0.1410533              -3.8383
        76                         -0.1398374              -3.8052
        77                         -0.1360621              -3.7024
        78                         -0.1193483              -3.2476
       ...                                ...                  ...
       134                          0.7296814              19.8556
      -------------------------------------------------------------
                  HL-Gap            0.1077623 Eh            2.9324 eV

Wiberg/Mayer (AO) data.
largest (>0.10) Wiberg bond orders for each atom

     #   Z sym  total        # sym  WBO       # sym  WBO       # sym  WBO
 ---------------------------------------------------------------------------
     1   6 C    3.860 --    26 H    0.986    28 H    0.980    27 H    0.980
                             2 O    0.883
     2   8 O    2.206 --     3 C    1.092     1 C    0.883     4 O    0.132
     3   6 C    3.845 --     4 O    1.677     2 O    1.092     5 C    0.998
     4   8 O    1.940 --     3 C    1.677     2 O    0.132
     5   6 C    3.966 --    24 C    1.405     6 N    1.278     3 C    0.998
     6   7 N    3.051 --     7 C    1.476     5 C    1.278
     7   6 C    3.945 --     6 N    1.476    20 N    1.302     8 C    0.984
     8   6 C    3.937 --    10 C    0.984     7 C    0.984     9 C    0.974
                            11 N    0.930
     9   6 C    3.989 --    29 H    0.986    30 H    0.985    31 H    0.980
                             8 C    0.974
    10   6 C    3.990 --    34 H    0.986     8 C    0.984    33 H    0.984
                            32 H    0.982
    11   7 N    3.370 --    12 C    1.282     8 C    0.930    35 H    0.878
                            13 O    0.182
    12   6 C    3.921 --    13 O    1.569    11 N    1.282    14 C    0.988
    13   8 O    1.889 --    12 C    1.569    11 N    0.182
    14   6 C    3.871 --    15 N    1.625    19 O    1.049    12 C    0.988
    15   7 N    2.997 --    14 C    1.625    16 N    1.195
    16   7 N    2.980 --    17 C    1.613    15 N    1.195
    17   6 C    3.870 --    16 N    1.613    19 O    1.073    18 C    1.031
    18   6 C    3.987 --    17 C    1.031    38 H    0.983    36 H    0.963
                            37 H    0.963
    19   8 O    2.317 --    17 C    1.073    14 C    1.049
    20   7 N    3.026 --    21 C    1.415     7 C    1.302
    21   6 C    3.908 --    20 N    1.415    24 C    1.197    22 O    1.095
    22   8 O    2.190 --    21 C    1.095    23 C    0.904
    23   6 C    3.876 --    41 H    0.985    39 H    0.979    40 H    0.979
                            22 O    0.904
    24   6 C    3.924 --     5 C    1.405    21 C    1.197    25 O    1.096
    25   8 O    2.070 --    24 C    1.096    42 H    0.801
    26   1 H    1.009 --     1 C    0.986
    27   1 H    1.006 --     1 C    0.980
    28   1 H    1.006 --     1 C    0.980
    29   1 H    1.003 --     9 C    0.986
    30   1 H    1.005 --     9 C    0.985
    31   1 H    1.010 --     9 C    0.980
    32   1 H    1.009 --    10 C    0.982
    33   1 H    1.011 --    10 C    0.984
    34   1 H    1.003 --    10 C    0.986
    35   1 H    0.959 --    11 N    0.878
    36   1 H    0.997 --    18 C    0.963
    37   1 H    0.997 --    18 C    0.963
    38   1 H    0.999 --    18 C    0.983
    39   1 H    1.010 --    23 C    0.979
    40   1 H    1.010 --    23 C    0.979
    41   1 H    1.011 --    23 C    0.985
    42   1 H    0.853 --    25 O    0.801
 ---------------------------------------------------------------------------

           -------------------------------------------------
          | TOTAL ENERGY              -83.013173690101 Eh   |
          | GRADIENT NORM               0.000665969806 Eh/α |
          | HOMO-LUMO GAP               2.932361143640 eV   |
           -------------------------------------------------

 * finished run on 2023/06/20 at 18:31:16.315
