   * xtb version 6.5.1 (579679a) compiled by 'ehlert@majestix' on 2022-07-11
          program call               : /lustre/hpc/kemi/ree/PhD/git/ReactivityQM/dep/xtb-6.5.1/bin/xtb --gfn 1 /lustre/hpc/kemi/ree/PhD/git/ReactivityQM/calculations/RaltegravirCLI/reac02prodN04/conf04/RaltegravirCLI_reac02prodN04_conf04_gfn1.xyz --opt --vfukui --chrg 1 --uhf 0 --alpb DMSO

   ID    Z sym.   atoms
    1    6 C      1, 3-6, 9-11, 14-18, 20-22, 24
    2    7 N      2, 7, 8, 13
    3    8 O      12, 23, 25
    4    9 F      19
    5    1 H      26-47

      * Solvation model:               ALPB
        Solvent                        DMSO
        Solvent mass                       7.8130E+01 g/mol
          :  Hamiltonian                  GFN1-xTB          :
 * total energy  :   -79.4979050 Eh     change       -0.2232525E-10 Eh
 * total energy  :   -79.5136952 Eh     change       -0.1579017E-01 Eh
 * total energy  :   -79.5191199 Eh     change       -0.5424745E-02 Eh
 * total energy  :   -79.5203321 Eh     change       -0.1212184E-02 Eh
 * total energy  :   -79.5211959 Eh     change       -0.8638205E-03 Eh
 * total energy  :   -79.5217277 Eh     change       -0.5317494E-03 Eh
 * total energy  :   -79.5221922 Eh     change       -0.4644999E-03 Eh
 * total energy  :   -79.5225592 Eh     change       -0.3670457E-03 Eh
 * total energy  :   -79.5227820 Eh     change       -0.2228055E-03 Eh
 * total energy  :   -79.5229184 Eh     change       -0.1363531E-03 Eh
 * total energy  :   -79.5238444 Eh     change       -0.1251166E-04 Eh
 * total energy  :   -79.5238529 Eh     change       -0.8408094E-05 Eh
 * total energy  :   -79.5238670 Eh     change       -0.1411621E-04 Eh
 * total energy  :   -79.5238766 Eh     change       -0.9636687E-05 Eh
 * total energy  :   -79.5238839 Eh     change       -0.7289145E-05 Eh
 * total energy  :   -79.5238915 Eh     change       -0.7574609E-05 Eh
 * total energy  :   -79.5238986 Eh     change       -0.7088350E-05 Eh
 * total energy  :   -79.5239042 Eh     change       -0.5656655E-05 Eh
 * total energy  :   -79.5239089 Eh     change       -0.4723202E-05 Eh
   *** GEOMETRY OPTIMIZATION CONVERGED AFTER 34 ITERATIONS ***

 final structure:
================
47
 xtb: 6.5.1 (579679a)
C           -3.75488555762248       -2.15428272058166        1.23081721008698
N           -2.60829015506148       -1.24068159743068        1.08636765195997
C           -2.37490653055607       -0.47342136248312        0.00153431299687
C           -3.51417373779888       -0.17926390304794       -0.98800159542831
C           -3.57782559359437       -1.23188501835342       -2.10391536649607
C           -3.43334819798296        1.23966122102626       -1.58814095567066
N           -4.75587083477938       -0.23394669867034       -0.22254337043556
N           -1.16842088886391        0.09415017044809       -0.11608292047401
C           -0.64803218433898        0.53358319909400       -1.42253152115379
C           -0.25757047851124        0.16960203570326        0.93551205577490
C            0.92151289019188        1.11397583579445        0.80698092816362
O            0.84092939452620        2.14806548221802        0.16201990013441
N            2.00248471711819        0.73820776822968        1.49398198687827
C            3.21055511648048        1.55985657397369        1.52230349882020
C            4.28438668459591        0.96960330338937        0.63585952581368
C            4.00483141798897        0.66941791926296       -0.69610019549838
C            4.98385049561063        0.13118561979400       -1.51776625642295
C            6.23990299941433       -0.09339772176013       -0.98174738151204
F            7.19141553576384       -0.61466239998892       -1.76982026943592
C            6.55154644518684        0.19549493878578        0.33422881205097
C            5.55803931940629        0.72938301955102        1.14379561559731
C           -0.55729133545353       -0.48027194269262        2.08925816399817
O            0.22162490657540       -0.44027919162776        3.17294215971849
C           -1.75062106855001       -1.29841073477386        2.19153917229008
O           -1.99614325236152       -1.97938888074659        3.16704911071272
H           -4.53848223345003       -1.66638181661361        1.80589164143597
H           -4.12845992562353       -2.44651092104053        0.25890645867736
H           -3.39742066360879       -3.03216379284530        1.76965675105581
H           -4.39755069990980       -0.97924221320739       -2.77435553872388
H           -2.65354709872945       -1.25299240698241       -2.67709055674668
H           -3.75430229070292       -2.22437905055737       -1.69469772083452
H           -4.44530853316905        1.53893946764921       -1.85871135255388
H           -3.05085122577237        1.94976790604513       -0.85770715436431
H           -2.83222570407564        1.28005781274572       -2.49224749104715
H           -4.84830996912579        0.60795849791102        0.33070889988224
H           -5.53407787001000       -0.27293931018895       -0.86628354846496
H           -0.74057590906512        1.61236466874909       -1.52688967700975
H            0.40296197588048        0.25601598122623       -1.46593098601143
H           -1.17570128593081        0.01676089549701       -2.21430704383414
H            2.02675642168649       -0.14115446444742        1.98078428912424
H            3.55507074273912        1.62090099087967        2.55774390060089
H            2.93750584299444        2.56229768960724        1.17655074028078
H            3.01284265673349        0.85152089927142       -1.09185767879004
H            4.77903748316929       -0.11090379891575       -2.55230964834404
H            7.54532336739183        0.00292172637233        0.71757146324254
H            5.77910879750248        0.95986014493543        2.17936690967887
H           -0.15549398630037       -1.00499582120235        3.87377807027807

          :  Hamiltonian                  GFN1-xTB          :
         :: total energy             -79.523908938247 Eh    ::
         :: gradient norm              0.000622552926 Eh/a0 ::
         :: HOMO-LUMO gap              2.314839422824 eV    ::
         :: SCC energy               -80.424423263282 Eh    ::
         :: -> Gsolv                  -0.107349880166 Eh    ::
         :: repulsion energy           0.931814115085 Eh    ::

    * Orbital Energies and Occupations

         #    Occupation            Energy/Eh            Energy/eV
      -------------------------------------------------------------
         1        2.0000           -0.8796535             -23.9366
       ...           ...                  ...                  ...
        55        2.0000           -0.5208078             -14.1719
        56        2.0000           -0.5171795             -14.0732
        57        2.0000           -0.5158298             -14.0364
        58        2.0000           -0.5086369             -13.8407
        59        2.0000           -0.5055397             -13.7564
        60        2.0000           -0.5054118             -13.7530
        61        2.0000           -0.4807986             -13.0832
        62        2.0000           -0.4790208             -13.0348
        63        2.0000           -0.4703779             -12.7996
        64        2.0000           -0.4615065             -12.5582
        65        2.0000           -0.4582975             -12.4709
        66        2.0000           -0.4434332             -12.0664
        67        2.0000           -0.4372944             -11.8994 (HOMO)
        68                         -0.3522256              -9.5845 (LUMO)
        69                         -0.3506225              -9.5409
        70                         -0.2803817              -7.6296
        71                         -0.2746997              -7.4750
        72                         -0.2661885              -7.2434
        73                         -0.2086206              -5.6769
        74                         -0.1624909              -4.4216
        75                         -0.1529218              -4.1612
        76                         -0.1511507              -4.1130
        77                         -0.1452690              -3.9530
        78                         -0.1391756              -3.7872
       ...                                ...                  ...
       144                          0.6963075              18.9475
      -------------------------------------------------------------
                  HL-Gap            0.0850688 Eh            2.3148 eV

Wiberg/Mayer (AO) data.
largest (>0.10) Wiberg bond orders for each atom

     #   Z sym  total        # sym  WBO       # sym  WBO       # sym  WBO
 ---------------------------------------------------------------------------
     1   6 C    3.891 --    27 H    0.977    26 H    0.970    28 H    0.969
                             2 N    0.905
     2   7 N    3.541 --     3 C    1.296    24 C    1.074     1 C    0.905
                            25 O    0.117
     3   6 C    3.886 --     8 N    1.356     2 N    1.296     4 C    0.967
     4   6 C    3.954 --     7 N    0.991     6 C    0.981     5 C    0.978
                             3 C    0.967
     5   6 C    3.987 --    29 H    0.979     4 C    0.978    30 H    0.977
                            31 H    0.977
     6   6 C    3.988 --    33 H    0.984     4 C    0.981    34 H    0.979
                            32 H    0.978
     7   7 N    2.975 --     4 C    0.991    35 H    0.935    36 H    0.928
     8   7 N    3.563 --     3 C    1.356    10 C    1.093     9 C    0.905
     9   6 C    3.896 --    39 H    0.977    38 H    0.973    37 H    0.967
                             8 N    0.905
    10   6 C    3.919 --    22 C    1.538     8 N    1.093    11 C    0.960
    11   6 C    3.920 --    12 O    1.570    13 N    1.312    10 C    0.960
    12   8 O    1.912 --    11 C    1.570    13 N    0.186
    13   7 N    3.387 --    11 C    1.312    14 C    0.931    40 H    0.890
                            12 O    0.186
    14   6 C    3.933 --    15 C    0.995    41 H    0.973    42 H    0.962
                            13 N    0.931
    15   6 C    3.988 --    21 C    1.421    16 C    1.414    14 C    0.995
    16   6 C    3.994 --    17 C    1.449    15 C    1.414    43 H    0.970
                            20 C    0.111
    17   6 C    3.992 --    16 C    1.449    18 C    1.396    44 H    0.969
                            21 C    0.110
    18   6 C    3.862 --    20 C    1.403    17 C    1.396    19 F    0.929
    19   9 F    1.059 --    18 C    0.929
    20   6 C    3.991 --    21 C    1.440    18 C    1.403    45 H    0.969
                            16 C    0.111
    21   6 C    3.993 --    20 C    1.440    15 C    1.421    46 H    0.970
                            17 C    0.110
    22   6 C    3.927 --    10 C    1.538    23 O    1.109    24 C    1.065
    23   8 O    2.088 --    22 C    1.109    47 H    0.790
    24   6 C    3.909 --    25 O    1.621     2 N    1.074    22 C    1.065
    25   8 O    1.953 --    24 C    1.621     2 N    0.117
    26   1 H    1.012 --     1 C    0.970
    27   1 H    1.018 --     1 C    0.977
    28   1 H    1.002 --     1 C    0.969
    29   1 H    0.994 --     5 C    0.979
    30   1 H    1.001 --     5 C    0.977
    31   1 H    1.001 --     5 C    0.977
    32   1 H    0.998 --     6 C    0.978
    33   1 H    0.997 --     6 C    0.984
    34   1 H    0.999 --     6 C    0.979
    35   1 H    0.948 --     7 N    0.935
    36   1 H    0.944 --     7 N    0.928
    37   1 H    1.009 --     9 C    0.967
    38   1 H    1.001 --     9 C    0.973
    39   1 H    1.003 --     9 C    0.977
    40   1 H    0.937 --    13 N    0.890
    41   1 H    1.001 --    14 C    0.973
    42   1 H    1.007 --    14 C    0.962
    43   1 H    1.002 --    16 C    0.970
    44   1 H    0.997 --    17 C    0.969
    45   1 H    0.997 --    20 C    0.969
    46   1 H    0.998 --    21 C    0.970
    47   1 H    0.824 --    23 O    0.790
 ---------------------------------------------------------------------------

           -------------------------------------------------
          | TOTAL ENERGY              -79.523908938247 Eh   |
          | GRADIENT NORM               0.000622552926 Eh/α |
          | HOMO-LUMO GAP               2.314839422824 eV   |
           -------------------------------------------------

 * finished run on 2023/06/20 at 15:19:57.880
