   * xtb version 6.5.1 (579679a) compiled by 'ehlert@majestix' on 2022-07-11
          program call               : /lustre/hpc/kemi/ree/PhD/git/ReactivityQM/dep/xtb-6.5.1/bin/xtb --gfn 1 /lustre/hpc/kemi/ree/PhD/git/ReactivityQM/calculations/R03/reac01prodE01/conf09/R03_reac01prodE01_conf09_gfn1.xyz --opt --vfukui --chrg -1 --uhf 0 --alpb DMSO

   ID    Z sym.   atoms
    1    6 C      1-3, 5-7, 9, 10
    2    7 N      4
    3    9 F      8
    4    1 H      11-21

      * Solvation model:               ALPB
        Solvent                        DMSO
        Solvent mass                       7.8130E+01 g/mol
          :  Hamiltonian                  GFN1-xTB          :
 * total energy  :   -31.4533404 Eh     change       -0.1982414E-11 Eh
 * total energy  :   -31.4557519 Eh     change       -0.2411465E-02 Eh
 * total energy  :   -31.4560856 Eh     change       -0.3337326E-03 Eh
 * total energy  :   -31.4561658 Eh     change       -0.8018996E-04 Eh
 * total energy  :   -31.4562144 Eh     change       -0.4858892E-04 Eh
 * total energy  :   -31.4562660 Eh     change       -0.5163441E-04 Eh
 * total energy  :   -31.4563079 Eh     change       -0.4186716E-04 Eh
 * total energy  :   -31.4563258 Eh     change       -0.1789419E-04 Eh
 * total energy  :   -31.4563298 Eh     change       -0.4009553E-05 Eh
   *** GEOMETRY OPTIMIZATION CONVERGED AFTER 9 ITERATIONS ***

 final structure:
================
21
 xtb: 6.5.1 (579679a)
C           -0.83948465333410       -1.51519127865506        1.14902652382863
C           -0.37989553338678       -0.36126928273870        0.20136669967093
C           -1.68413847863430        0.22923009466254       -0.42054838002861
N           -1.37554801171046        1.40176474265754       -1.24839911840247
C            0.34469506842504        0.70478707551602        1.00522882715414
C            1.65731589270300        1.03364648932844        0.79561811774089
C            2.39637983658428        0.40807952945672       -0.20817780546671
F            3.72837684551334        0.77575937057765       -0.40668131278789
C            1.82351908267000       -0.55164139020809       -1.04528272304677
C            0.51811097795477       -0.92592888840863       -0.88579123011367
H           -1.48412004716858       -1.13097984759108        1.94135213123870
H           -1.38479167817618       -2.27991920491659        0.59269253772550
H            0.03648423004995       -1.97600449092161        1.60668805875531
H           -2.39083255676059        0.50143190952934        0.38210528838397
H           -2.16800035552058       -0.52344032364827       -1.05612609402253
H           -0.96493957673952        2.10786412365793       -0.64117485745131
H           -2.24582412084525        1.78469196773472       -1.58867290596778
H           -0.22509016549800        1.19152771412157        1.79199119225873
H            2.13309876070314        1.79516761102240        1.40996163623194
H            2.42888175824036       -0.99846017921112       -1.83182205928162
H            0.07580272493046       -1.67111674196577       -1.54335652641935

          :  Hamiltonian                  GFN1-xTB          :
         :: total energy             -31.456329787214 Eh    ::
         :: gradient norm              0.000480752006 Eh/a0 ::
         :: HOMO-LUMO gap              2.361882460576 eV    ::
         :: SCC energy               -31.825195965519 Eh    ::
         :: -> Gsolv                  -0.083337557546 Eh    ::
         :: repulsion energy           0.379529319220 Eh    ::

    * Orbital Energies and Occupations

         #    Occupation            Energy/Eh            Energy/eV
      -------------------------------------------------------------
         1        2.0000           -0.7746661             -21.0797
       ...           ...                  ...                  ...
        16        2.0000           -0.4861677             -13.2293
        17        2.0000           -0.4769976             -12.9798
        18        2.0000           -0.4661314             -12.6841
        19        2.0000           -0.4626881             -12.5904
        20        2.0000           -0.4549716             -12.3804
        21        2.0000           -0.4433404             -12.0639
        22        2.0000           -0.4343129             -11.8183
        23        2.0000           -0.4162451             -11.3266
        24        2.0000           -0.4042139             -10.9992
        25        2.0000           -0.3935170             -10.7081
        26        2.0000           -0.3728968             -10.1470
        27        2.0000           -0.3698904             -10.0652
        28        2.0000           -0.2717405              -7.3944 (HOMO)
        29                         -0.1849429              -5.0326 (LUMO)
        30                         -0.1052802              -2.8648
        31                         -0.0877977              -2.3891
        32                         -0.0713569              -1.9417
        33                         -0.0680074              -1.8506
        34                         -0.0578971              -1.5755
        35                         -0.0496363              -1.3507
        36                         -0.0471475              -1.2829
        37                         -0.0291943              -0.7944
        38                         -0.0220940              -0.6012
        39                         -0.0138837              -0.3778
       ...                                ...                  ...
        62                          0.6513576              17.7243
      -------------------------------------------------------------
                  HL-Gap            0.0867976 Eh            2.3619 eV

Wiberg/Mayer (AO) data.
largest (>0.10) Wiberg bond orders for each atom

     #   Z sym  total        # sym  WBO       # sym  WBO       # sym  WBO
 ---------------------------------------------------------------------------
     1   6 C    3.990 --    13 H    0.987    12 H    0.987    11 H    0.986
                             2 C    0.963
     2   6 C    3.983 --    10 C    1.008     5 C    1.008     1 C    0.963
                             3 C    0.959
     3   6 C    3.967 --     4 N    0.989    15 H    0.982    14 H    0.976
                             2 C    0.959
     4   7 N    2.940 --     3 C    0.989    17 H    0.959    16 H    0.955
     5   6 C    3.927 --     6 C    1.584     2 C    1.008    18 H    0.975
                            10 C    0.109     7 C    0.108
     6   6 C    3.992 --     5 C    1.584     7 C    1.321    19 H    0.972
     7   6 C    3.740 --     6 C    1.321     9 C    1.312     8 F    0.828
                             5 C    0.108    10 C    0.106
     8   9 F    0.920 --     7 C    0.828
     9   6 C    3.992 --    10 C    1.598     7 C    1.312    20 H    0.972
    10   6 C    3.929 --     9 C    1.598     2 C    1.008    21 H    0.975
                             5 C    0.109     7 C    0.106
    11   1 H    1.012 --     1 C    0.986
    12   1 H    1.011 --     1 C    0.987
    13   1 H    1.029 --     1 C    0.987
    14   1 H    1.008 --     3 C    0.976
    15   1 H    1.020 --     3 C    0.982
    16   1 H    0.991 --     4 N    0.955
    17   1 H    0.974 --     4 N    0.959
    18   1 H    1.003 --     5 C    0.975
    19   1 H    1.008 --     6 C    0.972
    20   1 H    1.008 --     9 C    0.972
    21   1 H    1.004 --    10 C    0.975
 ---------------------------------------------------------------------------

           -------------------------------------------------
          | TOTAL ENERGY              -31.456329787214 Eh   |
          | GRADIENT NORM               0.000480752006 Eh/α |
          | HOMO-LUMO GAP               2.361882460576 eV   |
           -------------------------------------------------

 * finished run on 2023/06/20 at 15:12:35.300
