   * xtb version 6.5.1 (579679a) compiled by 'ehlert@majestix' on 2022-07-11
          program call               : /lustre/hpc/kemi/ree/PhD/git/ReactivityQM/dep/xtb-6.5.1/bin/xtb --gfn 1 /lustre/hpc/kemi/ree/PhD/git/ReactivityQM/calculations/R03/reac02prodE10/conf11/R03_reac02prodE10_conf11_gfn1.xyz --opt --vfukui --chrg -1 --uhf 0 --alpb DMSO

   ID    Z sym.   atoms
    1    6 C      1, 3, 5, 7-10, 12, 14, 17-19, 22, 23, 25
    2    8 O      2, 4, 13, 20, 24, 26
    3    7 N      6, 11, 15, 16, 21
    4    1 H      27-46

      * Solvation model:               ALPB
        Solvent                        DMSO
        Solvent mass                       7.8130E+01 g/mol
          :  Hamiltonian                  GFN1-xTB          :
 * total energy  :   -86.9861766 Eh     change       -0.1473666E-10 Eh
 * total energy  :   -86.9987162 Eh     change       -0.1253951E-01 Eh
 * total energy  :   -87.0036420 Eh     change       -0.4925805E-02 Eh
 * total energy  :   -87.0043524 Eh     change       -0.7104731E-03 Eh
 * total energy  :   -87.0050019 Eh     change       -0.6494146E-03 Eh
 * total energy  :   -87.0052147 Eh     change       -0.2128872E-03 Eh
 * total energy  :   -87.0054380 Eh     change       -0.2233071E-03 Eh
 * total energy  :   -87.0055602 Eh     change       -0.1221048E-03 Eh
 * total energy  :   -87.0056297 Eh     change       -0.6953411E-04 Eh
 * total energy  :   -87.0056710 Eh     change       -0.4132511E-04 Eh
 * total energy  :   -87.0060355 Eh     change       -0.6842982E-05 Eh
 * total energy  :   -87.0060447 Eh     change       -0.9128183E-05 Eh
 * total energy  :   -87.0060565 Eh     change       -0.1182132E-04 Eh
 * total energy  :   -87.0060727 Eh     change       -0.1622508E-04 Eh
 * total energy  :   -87.0060841 Eh     change       -0.1141250E-04 Eh
 * total energy  :   -87.0060886 Eh     change       -0.4472393E-05 Eh
 * total energy  :   -87.0060956 Eh     change       -0.6966339E-05 Eh
 * total energy  :   -87.0061014 Eh     change       -0.5822005E-05 Eh
 * total energy  :   -87.0061035 Eh     change       -0.2157106E-05 Eh
   *** GEOMETRY OPTIMIZATION CONVERGED AFTER 42 ITERATIONS ***

 final structure:
================
46
 xtb: 6.5.1 (579679a)
C            4.75361512057057        0.97906366233297        3.60017380457375
O            3.95599116937423        0.55556701445927        2.50603080784407
C            4.44001705801286        0.88734471892502        1.26154239321851
O            5.49672993612191        1.50749581236621        1.14827461924133
C            3.58209396155262        0.43326627956464        0.19194812565355
N            2.43260874313610       -0.24167674452829        0.54740284408604
C            1.59352006190468       -0.68305026263075       -0.32821098202580
C            0.39083327547280       -1.45613210425824        0.21731248278096
C            0.53826414435946       -2.93961976745044       -0.16044028741733
C            0.37150463129169       -1.32485133636376        1.75142631565246
N           -0.82632118591110       -0.87089306179155       -0.35687580052981
C           -2.10296179690623       -1.31675587193227        0.12915125803385
O           -2.28093227077718       -2.48093228822535        0.57194277354798
C           -3.07449375524970       -0.33331413201446       -0.02841766043158
N           -2.89349975566985        0.95751304210279       -0.49274861130250
N           -4.11229002761916        1.49625381658491       -0.41714417520563
C           -4.30917282002723        2.86505109255376       -0.83250221753743
C           -5.01790060944096        0.66648297074757        0.04536727794821
C           -6.46289197309813        0.91915219170113        0.25299999505974
O           -4.44819850148660       -0.52041072724383        0.32067479129867
N            1.78893388177806       -0.50355100685952       -1.68364385929353
C            0.91020519589449       -0.98801667082292       -2.74416341596723
C            2.94827382391086        0.14114310267568       -2.15805119477782
O            3.14344144911374        0.26834356673936       -3.38488423693584
C            3.84355726105187        0.61989109768209       -1.17188645552905
O            4.96576511136145        1.25332555413245       -1.63071449246741
H            5.75185806095167        0.53022673830370        3.55329441087044
H            4.24895583808556        0.65440345154135        4.50983495015424
H            4.85939856170107        2.06935941568135        3.60809950047892
H           -0.20715606350368       -3.53769765168001        0.36113089656556
H            0.41025157794499       -3.08870377482284       -1.23050845919696
H            1.53079108252740       -3.28831166106603        0.12626051279285
H            0.28279087657437       -0.27710000884263        2.03717094612613
H            1.29377902440676       -1.72415218151663        2.17169031174833
H           -0.47225469264055       -1.87908261494609        2.15962104414165
H           -0.78081345722791        0.14368397949147       -0.34233961737961
H           -3.34993331910139        3.25838985674155       -1.16030750218633
H           -4.68804829986389        3.44938128244402        0.00445980060958
H           -5.02690400862711        2.89862624806373       -1.65073440124472
H           -6.93511489264080        1.23652685831872       -0.67750308992986
H           -6.61645034544361        1.70727626197886        0.99194823610903
H           -6.93913703261396        0.00554967757838        0.60279176657673
H           -0.08477003766883       -1.19502115384728       -2.36031250205396
H            0.84323978564050       -0.21700034611829       -3.51401682229456
H            1.33403993872039       -1.88978102822237       -3.19244254393433
H            4.91878327406563        1.25273970251514       -2.60211653746054

          :  Hamiltonian                  GFN1-xTB          :
         :: total energy             -87.006103532585 Eh    ::
         :: gradient norm              0.000522519997 Eh/a0 ::
         :: HOMO-LUMO gap              0.040468344512 eV    ::
         :: SCC energy               -87.796954742367 Eh    ::
         :: -> Gsolv                  -0.127708090070 Eh    ::
         :: repulsion energy           0.819299372863 Eh    ::

    * Orbital Energies and Occupations

         #    Occupation            Energy/Eh            Energy/eV
      -------------------------------------------------------------
         1        2.0000           -0.8395316             -22.8448
       ...           ...                  ...                  ...
        59        2.0000           -0.4721737             -12.8485
        60        2.0000           -0.4656913             -12.6721
        61        2.0000           -0.4621432             -12.5756
        62        2.0000           -0.4462847             -12.1440
        63        2.0000           -0.4368834             -11.8882
        64        2.0000           -0.4290086             -11.6739
        65        2.0000           -0.4196520             -11.4193
        66        2.0000           -0.4171597             -11.3515
        67        2.0000           -0.4042781             -11.0010
        68        2.0000           -0.4042061             -10.9990
        69        2.0000           -0.3880766             -10.5601
        70        2.0000           -0.3839541             -10.4479
        71        1.3725           -0.2906220              -7.9082 (HOMO)
        72        0.6275           -0.2891348              -7.8678 (LUMO)
        73                         -0.2611728              -7.1069
        74                         -0.2395428              -6.5183
        75                         -0.1954203              -5.3177
        76                         -0.1536513              -4.1811
        77                         -0.1463351              -3.9820
        78                         -0.1390768              -3.7845
        79                         -0.1217306              -3.3125
        80                         -0.1181580              -3.2152
        81                         -0.1111152              -3.0236
        82                         -0.1004987              -2.7347
       ...                                ...                  ...
       144                          0.7181711              19.5424
      -------------------------------------------------------------
                  HL-Gap            0.0014872 Eh            0.0405 eV

Wiberg/Mayer (AO) data.
largest (>0.10) Wiberg bond orders for each atom

     #   Z sym  total        # sym  WBO       # sym  WBO       # sym  WBO
 ---------------------------------------------------------------------------
     1   6 C    3.902 --    28 H    0.987    27 H    0.980    29 H    0.980
                             2 O    0.931
     2   8 O    2.103 --     3 C    1.006     1 C    0.931     4 O    0.102
     3   6 C    3.743 --     4 O    1.541     5 C    1.129     2 O    1.006
     4   8 O    1.765 --     3 C    1.541     2 O    0.102
     5   6 C    3.812 --    25 C    1.311     6 N    1.151     3 C    1.129
     6   7 N    3.009 --     7 C    1.598     5 C    1.151
     7   6 C    3.902 --     6 N    1.598    21 N    1.137     8 C    0.972
     8   6 C    3.956 --    10 C    0.990     9 C    0.986     7 C    0.972
                            11 N    0.951
     9   6 C    3.992 --    32 H    0.988     8 C    0.986    31 H    0.982
                            30 H    0.978
    10   6 C    3.993 --     8 C    0.990    33 H    0.986    34 H    0.986
                            35 H    0.983
    11   7 N    3.099 --    12 C    0.992     8 C    0.951    36 H    0.929
    12   6 C    3.805 --    13 O    1.397    14 C    1.316    11 N    0.992
    13   8 O    1.655 --    12 C    1.397
    14   6 C    3.561 --    12 C    1.316    15 N    1.179    20 O    0.883
    15   7 N    2.681 --    14 C    1.179    16 N    1.159    18 C    0.199
    16   7 N    3.639 --    18 C    1.409    15 N    1.159    17 C    0.940
    17   6 C    3.936 --    37 H    0.983    38 H    0.979    39 H    0.978
                            16 N    0.940
    18   6 C    3.794 --    16 N    1.409    20 O    1.082    19 C    1.028
                            15 N    0.199
    19   6 C    3.987 --    18 C    1.028    42 H    0.981    40 H    0.967
                            41 H    0.965
    20   8 O    2.126 --    18 C    1.082    14 C    0.883
    21   7 N    3.361 --     7 C    1.137    23 C    1.047    22 C    0.943
    22   6 C    3.940 --    45 H    0.979    44 H    0.978    43 H    0.974
                            21 N    0.943
    23   6 C    3.835 --    24 O    1.450    25 C    1.213    21 N    1.047
    24   8 O    1.756 --    23 C    1.450
    25   6 C    3.738 --     5 C    1.311    23 C    1.213    26 O    1.035
    26   8 O    1.985 --    25 C    1.035    46 H    0.833
    27   1 H    1.014 --     1 C    0.980
    28   1 H    1.016 --     1 C    0.987
    29   1 H    1.014 --     1 C    0.980
    30   1 H    1.025 --     9 C    0.978
    31   1 H    1.008 --     9 C    0.982
    32   1 H    1.007 --     9 C    0.988
    33   1 H    1.013 --    10 C    0.986
    34   1 H    1.018 --    10 C    0.986
    35   1 H    1.015 --    10 C    0.983
    36   1 H    0.979 --    11 N    0.929
    37   1 H    1.006 --    17 C    0.983
    38   1 H    0.999 --    17 C    0.979
    39   1 H    0.999 --    17 C    0.978
    40   1 H    0.996 --    19 C    0.967
    41   1 H    0.996 --    19 C    0.965
    42   1 H    0.998 --    19 C    0.981
    43   1 H    1.026 --    22 C    0.974
    44   1 H    1.014 --    22 C    0.978
    45   1 H    1.005 --    22 C    0.979
    46   1 H    0.877 --    26 O    0.833
 ---------------------------------------------------------------------------

           -------------------------------------------------
          | TOTAL ENERGY              -87.006103532585 Eh   |
          | GRADIENT NORM               0.000522519997 Eh/α |
          | HOMO-LUMO GAP               0.040468344512 eV   |
           -------------------------------------------------

 * finished run on 2023/06/20 at 15:29:57.297
