   * xtb version 6.5.1 (579679a) compiled by 'ehlert@majestix' on 2022-07-11
          program call               : /lustre/hpc/kemi/ree/PhD/git/ReactivityQM/dep/xtb-6.5.1/bin/xtb --gfn 1 /lustre/hpc/kemi/ree/PhD/git/ReactivityQM/calculations/RaltegravirCLI/reac02prodN09/conf19/RaltegravirCLI_reac02prodN09_conf19_gfn1.xyz --opt --vfukui --chrg 1 --uhf 0 --alpb DMSO

   ID    Z sym.   atoms
    1    6 C      1-4, 6-9, 11, 13, 15-18, 21, 22, 24
    2    9 F      5
    3    7 N      10, 14, 19, 20
    4    8 O      12, 23, 25
    5    1 H      26-47

      * Solvation model:               ALPB
        Solvent                        DMSO
        Solvent mass                       7.8130E+01 g/mol
          :  Hamiltonian                  GFN1-xTB          :
 * total energy  :   -79.4644317 Eh     change       -0.6821210E-12 Eh
 * total energy  :   -79.4736348 Eh     change       -0.9203076E-02 Eh
 * total energy  :   -79.4760875 Eh     change       -0.2452733E-02 Eh
 * total energy  :   -79.4765602 Eh     change       -0.4726467E-03 Eh
 * total energy  :   -79.4770787 Eh     change       -0.5185343E-03 Eh
 * total energy  :   -79.4774157 Eh     change       -0.3369959E-03 Eh
 * total energy  :   -79.4778278 Eh     change       -0.4120737E-03 Eh
 * total energy  :   -79.4782481 Eh     change       -0.4203017E-03 Eh
 * total energy  :   -79.4786364 Eh     change       -0.3883761E-03 Eh
 * total energy  :   -79.4790711 Eh     change       -0.4346823E-03 Eh
 * total energy  :   -79.4831106 Eh     change       -0.2176730E-04 Eh
 * total energy  :   -79.4831198 Eh     change       -0.9221009E-05 Eh
 * total energy  :   -79.4831485 Eh     change       -0.2867292E-04 Eh
 * total energy  :   -79.4831595 Eh     change       -0.1098172E-04 Eh
 * total energy  :   -79.4831728 Eh     change       -0.1331176E-04 Eh
 * total energy  :   -79.4831829 Eh     change       -0.1012247E-04 Eh
 * total energy  :   -79.4831905 Eh     change       -0.7598672E-05 Eh
 * total energy  :   -79.4831958 Eh     change       -0.5304801E-05 Eh
 * total energy  :   -79.4832002 Eh     change       -0.4398461E-05 Eh
   *** GEOMETRY OPTIMIZATION CONVERGED AFTER 53 ITERATIONS ***

 final structure:
================
47
 xtb: 6.5.1 (579679a)
C            5.49112081834169        2.00821875137499       -0.40372542535129
C            5.20161782430602        0.50169474202510       -0.63242983351379
C            6.21155682287042       -0.35173746044346        0.02387257216271
C            5.83203834630698       -1.44183941105232        0.74090685287315
F            6.75264436052913       -2.20689947743802        1.31328494025322
C            4.48433413373949       -1.79116864177928        0.92049748510012
C            3.48857300256860       -1.01560151831167        0.34341037592122
C            3.79135483622369        0.11282996083232       -0.39870940487265
C            2.71442981148087        0.95253153457991       -1.00070069393045
N            1.43092125270930        0.29281971983521       -0.97642196441181
C            0.42064152895524        0.79097635492163       -0.21505026313693
O            0.52612317175763        1.84024047244350        0.39666165301188
C           -0.81488904088472       -0.05112221508841       -0.19151979798337
N           -1.97601427142781        0.61669017145067        0.05918551872845
C           -3.11272926239347       -0.00391943105791        0.14859407426377
C           -4.34027425173795        0.87819109906756        0.34691820665122
C           -3.88784698527706        2.30951389610599        0.68351068571256
C           -5.16347589079592        0.89785405009940       -0.94876565106509
N           -5.16417078708975        0.36658479775292        1.43468437139684
N           -3.20140694672196       -1.36503098296063        0.01346465931183
C           -4.44455381977122       -2.13746756226428        0.10173049872197
C           -2.08136679398143       -2.13598670884259       -0.23910308490555
O           -2.13618519599779       -3.35592609611731       -0.37108586951505
C           -0.83454848171485       -1.40614189636059       -0.33943758595379
O            0.26763334183107       -2.15640812801758       -0.55924031557919
H            5.28714164390756        2.26059652705064        0.63464936611073
H            6.53626360987460        2.21114893400344       -0.62726146795579
H            4.86554170853618        2.61120265057973       -1.05668824094138
H            5.36910913833919        0.35598185713856       -1.71632470421449
H            7.25623005522440       -0.09201263775128       -0.09428581079002
H            4.23687500390515       -2.66283208745313        1.51480103999495
H            2.45053296891349       -1.29856977711976        0.48348726142510
H            2.97876525149641        1.23377800030505       -2.02457937086867
H            2.61293297701665        1.88087112695351       -0.41814170980158
H            1.33601115104049       -0.56905032256885       -1.48475426611170
H           -3.25707198254464        2.30480144725293        1.57084572323348
H           -4.76323613104454        2.92843769082121        0.87200934063462
H           -3.32292451401756        2.73096446816063       -0.14664501576262
H           -5.99673019776357        1.59067720380481       -0.83993107072499
H           -4.53934945190177        1.22475656330584       -1.77966152974125
H           -5.56060668400175       -0.08942202242145       -1.17472941044410
H           -6.03496086982479        0.87532667227958        1.47796097614268
H           -4.68542482828452        0.45594110666196        2.31949257751443
H           -5.20169095678699       -1.56505749913066        0.62969960888307
H           -4.23065185124535       -3.05872213515234        0.64455562795913
H           -4.78342372063733       -2.38673911363103       -0.90412020995840
H           -0.00886084402935       -3.09097167384883       -0.63123271847255

          :  Hamiltonian                  GFN1-xTB          :
         :: total energy             -79.483200194013 Eh    ::
         :: gradient norm              0.000358442166 Eh/a0 ::
         :: HOMO-LUMO gap              0.162524888714 eV    ::
         :: SCC energy               -80.365979895380 Eh    ::
         :: -> Gsolv                  -0.108506513980 Eh    ::
         :: repulsion energy           0.912906912411 Eh    ::

    * Orbital Energies and Occupations

         #    Occupation            Energy/Eh            Energy/eV
      -------------------------------------------------------------
         1        2.0000           -0.9138353             -24.8667
       ...           ...                  ...                  ...
        55        2.0000           -0.5204756             -14.1629
        56        2.0000           -0.5170759             -14.0704
        57        2.0000           -0.5088740             -13.8472
        58        2.0000           -0.5016438             -13.6504
        59        2.0000           -0.4996655             -13.5966
        60        2.0000           -0.4934282             -13.4269
        61        2.0000           -0.4806313             -13.0786
        62        2.0000           -0.4748757             -12.9220
        63        2.0000           -0.4633993             -12.6097
        64        2.0000           -0.4592047             -12.4956
        65        2.0000           -0.4454253             -12.1206
        66        2.0000           -0.4306172             -11.7177
        67        1.9173           -0.4223287             -11.4921 (HOMO)
        68        0.0827           -0.4163560             -11.3296 (LUMO)
        69                         -0.3240078              -8.8167
        70                         -0.3204926              -8.7210
        71                         -0.2834055              -7.7119
        72                         -0.2437091              -6.6317
        73                         -0.2400211              -6.5313
        74                         -0.1655875              -4.5059
        75                         -0.1628729              -4.4320
        76                         -0.1534743              -4.1762
        77                         -0.1461905              -3.9780
        78                         -0.1389905              -3.7821
       ...                                ...                  ...
       144                          0.7059277              19.2093
      -------------------------------------------------------------
                  HL-Gap            0.0059727 Eh            0.1625 eV

Wiberg/Mayer (AO) data.
largest (>0.10) Wiberg bond orders for each atom

     #   Z sym  total        # sym  WBO       # sym  WBO       # sym  WBO
 ---------------------------------------------------------------------------
     1   6 C    3.963 --    26 H    0.983    28 H    0.982    27 H    0.981
                             2 C    0.921
     2   6 C    3.987 --     3 C    1.079     8 C    1.076     1 C    0.921
                            29 H    0.842
     3   6 C    3.930 --     4 C    1.546     2 C    1.079    30 H    0.959
     4   6 C    3.882 --     3 C    1.546     6 C    1.281     5 F    0.964
     5   9 F    1.106 --     4 C    0.964
     6   6 C    3.909 --     7 C    1.430     4 C    1.281    31 H    0.960
     7   6 C    3.982 --     8 C    1.460     6 C    1.430    32 H    0.955
     8   6 C    3.897 --     7 C    1.460     2 C    1.076     9 C    1.046
     9   6 C    3.957 --     8 C    1.046    10 N    0.969    33 H    0.943
                            34 H    0.912
    10   7 N    3.320 --    11 C    1.217     9 C    0.969    35 H    0.885
                            12 O    0.161
    11   6 C    3.896 --    12 O    1.608    10 N    1.217    13 C    0.990
    12   8 O    1.905 --    11 C    1.608    10 N    0.161
    13   6 C    3.965 --    24 C    1.506    14 N    1.204    11 C    0.990
    14   7 N    3.027 --    15 C    1.553    13 C    1.204
    15   6 C    3.920 --    14 N    1.553    20 N    1.183    16 C    0.974
    16   6 C    3.956 --    17 C    0.984    18 C    0.983    19 N    0.980
                            15 C    0.974
    17   6 C    3.980 --    37 H    0.985    16 C    0.984    36 H    0.984
                            38 H    0.982
    18   6 C    3.992 --    40 H    0.985    16 C    0.983    39 H    0.982
                            41 H    0.982
    19   7 N    2.965 --    16 C    0.980    43 H    0.932    42 H    0.931
    20   7 N    3.518 --    15 C    1.183    22 C    1.131    21 C    0.925
                            23 O    0.133
    21   6 C    3.911 --    45 H    0.976    46 H    0.976    44 H    0.966
                            20 N    0.925
    22   6 C    3.917 --    23 O    1.546    20 N    1.131    24 C    1.092
    23   8 O    1.889 --    22 C    1.546    20 N    0.133
    24   6 C    3.913 --    13 C    1.506    22 C    1.092    25 O    1.066
    25   8 O    2.060 --    24 C    1.066    47 H    0.798
    26   1 H    0.994 --     1 C    0.983
    27   1 H    0.993 --     1 C    0.981
    28   1 H    0.995 --     1 C    0.982
    29   1 H    0.972 --     2 C    0.842
    30   1 H    0.986 --     3 C    0.959
    31   1 H    0.988 --     6 C    0.960
    32   1 H    1.005 --     7 C    0.955
    33   1 H    0.993 --     9 C    0.943
    34   1 H    0.999 --     9 C    0.912
    35   1 H    0.934 --    10 N    0.885
    36   1 H    1.009 --    17 C    0.984
    37   1 H    1.002 --    17 C    0.985
    38   1 H    1.010 --    17 C    0.982
    39   1 H    0.999 --    18 C    0.982
    40   1 H    1.002 --    18 C    0.985
    41   1 H    1.002 --    18 C    0.982
    42   1 H    0.946 --    19 N    0.931
    43   1 H    0.948 --    19 N    0.932
    44   1 H    1.022 --    21 C    0.966
    45   1 H    1.006 --    21 C    0.976
    46   1 H    1.002 --    21 C    0.976
    47   1 H    0.841 --    25 O    0.798
 ---------------------------------------------------------------------------

           -------------------------------------------------
          | TOTAL ENERGY              -79.483200194013 Eh   |
          | GRADIENT NORM               0.000358442166 Eh/α |
          | HOMO-LUMO GAP               0.162524888714 eV   |
           -------------------------------------------------

 * finished run on 2023/06/20 at 15:28:25.488
