   * xtb version 6.5.1 (579679a) compiled by 'ehlert@majestix' on 2022-07-11
          program call               : /lustre/hpc/kemi/ree/PhD/git/ReactivityQM/dep/xtb-6.5.1/bin/xtb --gfn 1 /lustre/hpc/kemi/ree/PhD/git/ReactivityQM/calculations/R02oxygendeprot/reac01prodN03/conf14/R02oxygendeprot_reac01prodN03_conf14_gfn1.xyz --opt --vfukui --chrg 0 --uhf 0 --alpb DMSO

   ID    Z sym.   atoms
    1    6 C      1, 3, 5, 6, 8-11, 13, 15, 18, 19, 22, 24
    2    8 O      2, 4, 14, 20, 23, 25
    3    7 N      7, 12, 16, 17, 21
    4    1 H      26-42

      * Solvation model:               ALPB
        Solvent                        DMSO
        Solvent mass                       7.8130E+01 g/mol
          :  Hamiltonian                  GFN1-xTB          :
 * total energy  :   -82.9864696 Eh     change       -0.6281198E-11 Eh
 * total energy  :   -82.9977911 Eh     change       -0.1132149E-01 Eh
 * total energy  :   -83.0019298 Eh     change       -0.4138797E-02 Eh
 * total energy  :   -83.0026641 Eh     change       -0.7342671E-03 Eh
 * total energy  :   -83.0031626 Eh     change       -0.4984394E-03 Eh
 * total energy  :   -83.0034664 Eh     change       -0.3038547E-03 Eh
 * total energy  :   -83.0037781 Eh     change       -0.3116967E-03 Eh
 * total energy  :   -83.0040722 Eh     change       -0.2940833E-03 Eh
 * total energy  :   -83.0043079 Eh     change       -0.2356642E-03 Eh
 * total energy  :   -83.0045084 Eh     change       -0.2005893E-03 Eh
 * total energy  :   -83.0048399 Eh     change       -0.2994201E-04 Eh
 * total energy  :   -83.0048563 Eh     change       -0.1646889E-04 Eh
 * total energy  :   -83.0048811 Eh     change       -0.2474058E-04 Eh
 * total energy  :   -83.0048924 Eh     change       -0.1132870E-04 Eh
 * total energy  :   -83.0048997 Eh     change       -0.7256144E-05 Eh
 * total energy  :   -83.0049113 Eh     change       -0.1165809E-04 Eh
 * total energy  :   -83.0049161 Eh     change       -0.4808521E-05 Eh
 * total energy  :   -83.0049261 Eh     change       -0.9936907E-05 Eh
 * total energy  :   -83.0049289 Eh     change       -0.2807722E-05 Eh
   *** GEOMETRY OPTIMIZATION CONVERGED AFTER 22 ITERATIONS ***

 final structure:
================
42
 xtb: 6.5.1 (579679a)
C           -3.99042918711119        0.59624404084418        2.90645634089127
O           -3.40372193608693        0.99378149703933        1.65599923247945
C           -2.67954533619126        0.09950365784566        1.02085074504909
O           -2.48032691557652       -1.02736877293730        1.38873813977073
C           -2.11173905388030        0.65701419919609       -0.31916243011184
C           -2.04125153682242        2.18245849448472       -0.31926335142163
N           -0.78465334186007        0.09741690444154       -0.43185722398677
C           -0.60831707992252       -1.05203744944058       -0.93737115526561
C            0.76460204382513       -1.69403842044735       -0.90816811590301
C            1.22615518826622       -2.05553762206153       -2.32607414843167
C            0.70856974985080       -2.93034543873386        0.00245837987051
N            1.67114950068137       -0.70210500853073       -0.33686904924466
C            2.98064528599267       -0.91929358185674       -0.12169175240513
O            3.57785643426908       -1.95631102710486       -0.36618857611956
C            3.67095661750735        0.26109009058029        0.45983806478973
N            4.92063628891839        0.35634134503815        0.79218120081368
N            5.10692911351564        1.62020878360412        1.26706022032161
C            3.95977631334715        2.21936902502290        1.19402468487060
C            3.64099584605146        3.60995244286711        1.58393873413105
O            3.00704432762203        1.41495591030220        0.69278900920607
N           -1.62110751100215       -1.80058048165043       -1.52228779703482
C           -2.85771773413734       -1.30952113119259       -1.81761767240713
O           -3.69428123643829       -1.95789596063240       -2.40286148040488
C           -3.08517004258748        0.13713609216848       -1.36135275694535
O           -4.00813210684977        0.78728587920745       -1.77478739060969
H           -3.22290139344671        0.17245370015125        3.55627115937568
H           -4.77118707870961       -0.14511392990698        2.72678598370682
H           -4.41156901484497        1.49666224992274        3.34691109463372
H           -1.55674112236057        2.51808204761550       -1.23392224573781
H           -1.46446217938400        2.52259082690766        0.53686267357278
H           -3.04477909007984        2.60086500899963       -0.27043044862873
H            0.53668280220655       -2.76599887494725       -2.77659278870105
H            2.21556223025540       -2.50793046182851       -2.28460703033378
H            1.26753539623803       -1.15901772945148       -2.94237210021000
H            0.02256359647511       -3.66589776434417       -0.41173781813007
H            0.36508257418141       -2.64152719987311        0.99484353029883
H            1.69791293786488       -3.37731567825134        0.07878639299118
H            1.26174139816879        0.19161878800353       -0.09659161429032
H            4.53614766763772        4.09746080304330        1.96248106404035
H            2.86934650888834        3.61451887471760        2.35315902822372
H            3.26174856283950        4.16001876076297        0.72309805517223
H           -1.43160648730328       -2.73919388958362       -1.84016278788403

          :  Hamiltonian                  GFN1-xTB          :
         :: total energy             -83.004928873092 Eh    ::
         :: gradient norm              0.000295748374 Eh/a0 ::
         :: HOMO-LUMO gap              2.414820607662 eV    ::
         :: SCC energy               -83.792842437027 Eh    ::
         :: -> Gsolv                  -0.054327725312 Eh    ::
         :: repulsion energy           0.814661371915 Eh    ::

    * Orbital Energies and Occupations

         #    Occupation            Energy/Eh            Energy/eV
      -------------------------------------------------------------
         1        2.0000           -0.8651837             -23.5428
       ...           ...                  ...                  ...
        55        2.0000           -0.5116018             -13.9214
        56        2.0000           -0.5052924             -13.7497
        57        2.0000           -0.5043267             -13.7234
        58        2.0000           -0.5027192             -13.6797
        59        2.0000           -0.4925189             -13.4021
        60        2.0000           -0.4798044             -13.0561
        61        2.0000           -0.4711629             -12.8210
        62        2.0000           -0.4636302             -12.6160
        63        2.0000           -0.4620863             -12.5740
        64        2.0000           -0.4587998             -12.4846
        65        2.0000           -0.4513619             -12.2822
        66        2.0000           -0.4473848             -12.1740
        67        2.0000           -0.4420869             -12.0298 (HOMO)
        68                         -0.3533438              -9.6150 (LUMO)
        69                         -0.3095785              -8.4241
        70                         -0.2983254              -8.1178
        71                         -0.2702967              -7.3551
        72                         -0.2567588              -6.9868
        73                         -0.2260605              -6.1514
        74                         -0.1974185              -5.3720
        75                         -0.1465301              -3.9873
        76                         -0.1430272              -3.8920
        77                         -0.1419645              -3.8631
        78                         -0.1252470              -3.4081
       ...                                ...                  ...
       134                          0.7597772              20.6746
      -------------------------------------------------------------
                  HL-Gap            0.0887430 Eh            2.4148 eV

Wiberg/Mayer (AO) data.
largest (>0.10) Wiberg bond orders for each atom

     #   Z sym  total        # sym  WBO       # sym  WBO       # sym  WBO
 ---------------------------------------------------------------------------
     1   6 C    3.852 --    28 H    0.985    26 H    0.980    27 H    0.979
                             2 O    0.873
     2   8 O    2.233 --     3 C    1.160     1 C    0.873     4 O    0.140
     3   6 C    3.845 --     4 O    1.695     2 O    1.160     5 C    0.862
     4   8 O    1.965 --     3 C    1.695     2 O    0.140
     5   6 C    3.962 --     6 C    0.985     7 N    0.977    24 C    0.949
                             3 C    0.862
     6   6 C    3.984 --     5 C    0.985    30 H    0.985    29 H    0.983
                            31 H    0.982
     7   7 N    3.047 --     8 C    1.751     5 C    0.977
     8   6 C    3.926 --     7 N    1.751    21 N    1.070     9 C    0.980
     9   6 C    3.939 --    10 C    0.981     8 C    0.980    11 C    0.975
                            12 N    0.937
    10   6 C    3.987 --    34 H    0.985    32 H    0.983     9 C    0.981
                            33 H    0.978
    11   6 C    3.987 --    36 H    0.984    35 H    0.983    37 H    0.977
                             9 C    0.975
    12   7 N    3.360 --    13 C    1.269     9 C    0.937    38 H    0.876
                            14 O    0.179
    13   6 C    3.919 --    14 O    1.577    12 N    1.269    15 C    0.991
    14   8 O    1.897 --    13 C    1.577    12 N    0.179
    15   6 C    3.872 --    16 N    1.624    20 O    1.047    13 C    0.991
    16   7 N    2.999 --    15 C    1.624    17 N    1.197
    17   7 N    2.982 --    18 C    1.613    16 N    1.197
    18   6 C    3.869 --    17 N    1.613    20 O    1.072    19 C    1.031
    19   6 C    3.987 --    18 C    1.031    39 H    0.982    40 H    0.963
                            41 H    0.963
    20   8 O    2.315 --    18 C    1.072    15 C    1.047
    21   7 N    3.429 --    22 C    1.185     8 C    1.070    42 H    0.881
                            23 O    0.149
    22   6 C    3.892 --    23 O    1.676    21 N    1.185    24 C    0.906
    23   8 O    1.960 --    22 C    1.676    21 N    0.149
    24   6 C    3.848 --    25 O    1.814     5 C    0.949    22 C    0.906
    25   8 O    2.028 --    24 C    1.814
    26   1 H    1.004 --     1 C    0.980
    27   1 H    1.003 --     1 C    0.979
    28   1 H    1.007 --     1 C    0.985
    29   1 H    1.000 --     6 C    0.983
    30   1 H    1.003 --     6 C    0.985
    31   1 H    1.007 --     6 C    0.982
    32   1 H    0.999 --    10 C    0.983
    33   1 H    1.007 --    10 C    0.978
    34   1 H    1.001 --    10 C    0.985
    35   1 H    0.999 --    11 C    0.983
    36   1 H    1.002 --    11 C    0.984
    37   1 H    1.007 --    11 C    0.977
    38   1 H    0.955 --    12 N    0.876
    39   1 H    0.998 --    19 C    0.982
    40   1 H    0.997 --    19 C    0.963
    41   1 H    0.997 --    19 C    0.963
    42   1 H    0.928 --    21 N    0.881
 ---------------------------------------------------------------------------

           -------------------------------------------------
          | TOTAL ENERGY              -83.004928873092 Eh   |
          | GRADIENT NORM               0.000295748374 Eh/α |
          | HOMO-LUMO GAP               2.414820607662 eV   |
           -------------------------------------------------

 * finished run on 2023/06/21 at 17:19:09.460
