   * xtb version 6.5.1 (579679a) compiled by 'ehlert@majestix' on 2022-07-11
          program call               : /lustre/hpc/kemi/ree/PhD/git/ReactivityQM/dep/xtb-6.5.1/bin/xtb --gfn 1 /lustre/hpc/kemi/ree/PhD/git/ReactivityQM/calculations/R02deprot/reac01prodN05/conf05/R02deprot_reac01prodN05_conf05_gfn1.xyz --opt --vfukui --chrg 0 --uhf 0 --alpb DMSO

   ID    Z sym.   atoms
    1    6 C      1, 3, 5, 7-10, 12, 14, 17, 18, 21, 23, 25
    2    8 O      2, 4, 13, 19, 22, 24
    3    7 N      6, 11, 15, 16, 20
    4    1 H      26-42

      * Solvation model:               ALPB
        Solvent                        DMSO
        Solvent mass                       7.8130E+01 g/mol
          :  Hamiltonian                  GFN1-xTB          :
 * total energy  :   -82.9217577 Eh     change       -0.8355983E-11 Eh
 * total energy  :   -82.9367597 Eh     change       -0.1500200E-01 Eh
 * total energy  :   -82.9421297 Eh     change       -0.5369968E-02 Eh
 * total energy  :   -82.9433461 Eh     change       -0.1216399E-02 Eh
 * total energy  :   -82.9445124 Eh     change       -0.1166291E-02 Eh
 * total energy  :   -82.9453256 Eh     change       -0.8131698E-03 Eh
 * total energy  :   -82.9459860 Eh     change       -0.6604940E-03 Eh
 * total energy  :   -82.9464939 Eh     change       -0.5078561E-03 Eh
 * total energy  :   -82.9467554 Eh     change       -0.2614445E-03 Eh
 * total energy  :   -82.9468976 Eh     change       -0.1422120E-03 Eh
 * total energy  :   -82.9490491 Eh     change       -0.1851963E-04 Eh
 * total energy  :   -82.9490768 Eh     change       -0.2766764E-04 Eh
 * total energy  :   -82.9490948 Eh     change       -0.1803062E-04 Eh
 * total energy  :   -82.9491110 Eh     change       -0.1618295E-04 Eh
 * total energy  :   -82.9491277 Eh     change       -0.1675583E-04 Eh
 * total energy  :   -82.9491366 Eh     change       -0.8879318E-05 Eh
 * total energy  :   -82.9491429 Eh     change       -0.6241083E-05 Eh
 * total energy  :   -82.9491479 Eh     change       -0.5025514E-05 Eh
 * total energy  :   -82.9491522 Eh     change       -0.4330128E-05 Eh
   *** GEOMETRY OPTIMIZATION CONVERGED AFTER 62 ITERATIONS ***

 final structure:
================
42
 xtb: 6.5.1 (579679a)
C           -2.74344583966179        3.86044488783558        0.82396189056218
O           -2.76599072591300        2.49418310221659        0.36659996642026
C           -1.56307248004573        1.91191078757864        0.18027133272308
O           -0.52602515656079        2.48874017498176        0.36680999507791
C           -1.68001145263477        0.48856823707672       -0.26638846977611
N           -0.50673926922875       -0.12767603475544       -0.46874917736326
C           -0.54567726842772       -1.39470655750411       -0.88474725831118
C            0.78339893356285       -2.08760462058909       -1.13841258457126
C            0.90436220693370       -2.37007830640904       -2.64355519346114
C            0.83684468207963       -3.39086652463260       -0.32925267986458
N            1.84805458422153       -1.18508749359838       -0.70764813593632
C            3.15483567741183       -1.46764640792124       -0.79416826232787
O            3.63446665680541       -2.49863989949843       -1.24649795969214
C            4.01958349710201       -0.37603889794114       -0.26762491856361
N            5.31542317867651       -0.35671415705079       -0.21225637933171
N            5.66802282138993        0.83385517192148        0.35265756480213
C            4.56566657433102        1.46661560165975        0.60663509769062
C            4.41288190526160        2.80329551733904        1.22195511579581
O            3.48617943908702        0.75718195880461        0.23811837994947
N           -1.61940747800313       -2.11429404770085       -1.11916543718213
C           -2.86773226603680       -1.58110714833333       -0.92248415444038
O           -3.90569753731963       -2.22360489929392       -1.09540632649490
C           -2.84924615185055       -0.19720179057230       -0.48417136052541
O           -4.13272072996650        0.44387997003152       -0.32786715623594
C           -5.01708600014607       -0.11536462784950        0.69058109150524
H           -3.77389228747850        4.13084147607121        1.03743821003403
H           -2.13196250672224        3.93216111665723        1.72525033319430
H           -2.33084958336622        4.50072166496820        0.04242756310578
H            1.81786167640429       -2.92349564068036       -2.85516449601933
H            0.04520506763587       -2.95830549052710       -2.96350394912057
H            0.91790568811099       -1.43196998799144       -3.19661903682660
H            1.75037050943362       -3.93982280849465       -0.55190094413094
H           -0.02446455871152       -4.00507475419150       -0.58899636015992
H            0.80400583618821       -3.16735290206962        0.73615690022675
H            1.54513539205707       -0.29921383242305       -0.31997154787707
H            3.72990203007911        2.74742493189972        2.06833602496337
H            3.99606034998797        3.50233935450904        0.49703852268607
H            5.38276245420858        3.16422184267529        1.55512918749342
H           -3.95959095385168        1.40757143624249       -0.12828164859002
H           -5.23779751528104       -1.13863975049101        0.39062062027645
H           -5.91475822497576        0.49646675980438        0.68159729852481
H           -4.52276217478890       -0.07991741175977        1.66037534176953

          :  Hamiltonian                  GFN1-xTB          :
         :: total energy             -82.949152218985 Eh    ::
         :: gradient norm              0.000690940561 Eh/a0 ::
         :: HOMO-LUMO gap              2.335469339992 eV    ::
         :: SCC energy               -83.722586670273 Eh    ::
         :: -> Gsolv                  -0.073635268276 Eh    ::
         :: repulsion energy           0.799020639175 Eh    ::

    * Orbital Energies and Occupations

         #    Occupation            Energy/Eh            Energy/eV
      -------------------------------------------------------------
         1        2.0000           -0.8967974             -24.4031
       ...           ...                  ...                  ...
        55        2.0000           -0.4956245             -13.4866
        56        2.0000           -0.4931314             -13.4188
        57        2.0000           -0.4862011             -13.2302
        58        2.0000           -0.4752654             -12.9326
        59        2.0000           -0.4686733             -12.7532
        60        2.0000           -0.4666961             -12.6994
        61        2.0000           -0.4582469             -12.4695
        62        2.0000           -0.4536536             -12.3445
        63        2.0000           -0.4471733             -12.1682
        64        2.0000           -0.4384017             -11.9295
        65        2.0000           -0.4372361             -11.8978
        66        2.0000           -0.4192718             -11.4090
        67        2.0000           -0.4088821             -11.1262 (HOMO)
        68                         -0.3230552              -8.7908 (LUMO)
        69                         -0.3030225              -8.2457
        70                         -0.2667303              -7.2581
        71                         -0.2529184              -6.8823
        72                         -0.2287475              -6.2245
        73                         -0.1912098              -5.2031
        74                         -0.1631047              -4.4383
        75                         -0.1487705              -4.0483
        76                         -0.1421315              -3.8676
        77                         -0.1406339              -3.8268
        78                         -0.1393363              -3.7915
       ...                                ...                  ...
       134                          0.7413483              20.1731
      -------------------------------------------------------------
                  HL-Gap            0.0858269 Eh            2.3355 eV

Wiberg/Mayer (AO) data.
largest (>0.10) Wiberg bond orders for each atom

     #   Z sym  total        # sym  WBO       # sym  WBO       # sym  WBO
 ---------------------------------------------------------------------------
     1   6 C    3.847 --    26 H    0.986    28 H    0.979    27 H    0.979
                             2 O    0.869
     2   8 O    2.213 --     3 C    1.065     1 C    0.869     4 O    0.129
     3   6 C    3.835 --     4 O    1.710     2 O    1.065     5 C    0.981
     4   8 O    1.966 --     3 C    1.710     2 O    0.129
     5   6 C    3.976 --    23 C    1.476     6 N    1.308     3 C    0.981
     6   7 N    3.032 --     7 C    1.352     5 C    1.308
     7   6 C    3.948 --    20 N    1.467     6 N    1.352     8 C    0.979
     8   6 C    3.935 --    10 C    0.982     7 C    0.979     9 C    0.978
                            11 N    0.929
     9   6 C    3.991 --    31 H    0.986    30 H    0.985    29 H    0.982
                             8 C    0.978
    10   6 C    3.991 --    34 H    0.986    33 H    0.984    32 H    0.982
                             8 C    0.982
    11   7 N    3.375 --    12 C    1.290     8 C    0.929    35 H    0.876
                            13 O    0.183
    12   6 C    3.922 --    13 O    1.564    11 N    1.290    14 C    0.987
    13   8 O    1.884 --    12 C    1.564    11 N    0.183
    14   6 C    3.870 --    15 N    1.625    19 O    1.049    12 C    0.987
    15   7 N    2.996 --    14 C    1.625    16 N    1.194
    16   7 N    2.980 --    17 C    1.614    15 N    1.194
    17   6 C    3.871 --    16 N    1.614    19 O    1.073    18 C    1.031
    18   6 C    3.987 --    17 C    1.031    38 H    0.983    36 H    0.967
                            37 H    0.961
    19   8 O    2.317 --    17 C    1.073    14 C    1.049
    20   7 N    3.007 --     7 C    1.467    21 C    1.174    22 O    0.108
    21   6 C    3.930 --    22 O    1.523    20 N    1.174    23 C    1.122
    22   8 O    1.844 --    21 C    1.523    20 N    0.108
    23   6 C    3.779 --     5 C    1.476    21 C    1.122    24 O    0.822
    24   8 O    2.434 --    23 C    0.822    25 C    0.817    39 H    0.711
    25   6 C    3.793 --    42 H    0.984    41 H    0.981    40 H    0.972
                            24 O    0.817
    26   1 H    1.007 --     1 C    0.986
    27   1 H    1.005 --     1 C    0.979
    28   1 H    1.003 --     1 C    0.979
    29   1 H    1.011 --     9 C    0.982
    30   1 H    1.010 --     9 C    0.985
    31   1 H    1.003 --     9 C    0.986
    32   1 H    1.010 --    10 C    0.982
    33   1 H    1.013 --    10 C    0.984
    34   1 H    1.004 --    10 C    0.986
    35   1 H    0.962 --    11 N    0.876
    36   1 H    0.997 --    18 C    0.967
    37   1 H    0.997 --    18 C    0.961
    38   1 H    0.999 --    18 C    0.983
    39   1 H    0.817 --    24 O    0.711
    40   1 H    1.016 --    25 C    0.972
    41   1 H    0.997 --    25 C    0.981
    42   1 H    0.998 --    25 C    0.984
 ---------------------------------------------------------------------------

           -------------------------------------------------
          | TOTAL ENERGY              -82.949152218985 Eh   |
          | GRADIENT NORM               0.000690940561 Eh/α |
          | HOMO-LUMO GAP               2.335469339992 eV   |
           -------------------------------------------------

 * finished run on 2023/06/20 at 18:10:16.109
