                         Program Version 5.0.1 -  RELEASE  -
|  1> # ORCA input file
|  2> ! SP r2SCAN-3c CPCM
|  3>
|  4> %maxcore 1875.0
|  5> %pal nprocs 4 end
|  6> %cpcm smd true SMDsolvent "DMSO" end
|  7>
|  8> *xyz 0 1
|  9> C       5.981051    1.135677    2.435147
| 10> O       4.848078    1.264306    1.565407
| 11> C       4.068507    0.207235    1.444143
| 12> O       4.236248   -0.844389    2.006588
| 13> C       2.903064    0.460699    0.511369
| 14> N       1.910420   -0.351984    0.590357
| 15> C       0.868370   -0.231705   -0.328711
| 16> C       0.034834   -1.485776   -0.540726
| 17> C       0.341466   -2.505598    0.565547
| 18> C       0.347548   -2.111722   -1.902167
| 19> N      -1.361396   -1.113400   -0.369747
| 20> C      -2.209968   -0.534931   -1.419326
| 21> C      -3.054793   -1.643959   -2.062975
| 22> O      -1.501493    0.117620   -2.423965
| 23> C      -3.154079    0.447824   -0.743488
| 24> N      -4.142108    1.058115   -1.306504
| 25> N      -4.720968    1.844671   -0.339764
| 26> C      -4.045332    1.654231    0.743935
| 27> C      -4.267854    2.258059    2.077111
| 28> O      -3.033807    0.779293    0.556667
| 29> N       0.559090    0.881180   -0.896348
| 30> C       1.393139    1.988870   -0.773793
| 31> O       1.032410    3.120320   -0.958647
| 32> C       2.852993    1.621067   -0.430904
| 33> O       3.805005    2.222507   -0.851262
| 34> H       5.644380    0.914459    3.449684
| 35> H       6.503301    2.089035    2.404619
| 36> H       6.628013    0.330249    2.082465
| 37> H       0.155936   -2.068732    1.544949
| 38> H       1.384199   -2.813216    0.510162
| 39> H      -0.301123   -3.374225    0.436299
| 40> H       1.385616   -2.441749   -1.908253
| 41> H      -0.293957   -2.976764   -2.059225
| 42> H       0.202443   -1.404158   -2.714486
| 43> H      -1.494901   -0.653246    0.522922
| 44> H      -2.408680   -2.315971   -2.621975
| 45> H      -3.573586   -2.203005   -1.288257
| 46> H      -3.779880   -1.193901   -2.739746
| 47> H      -4.463226    1.476125    2.810608
| 48> H      -5.116779    2.936379    2.034175
| 49> H      -3.379508    2.803200    2.395202
| 50> H      -0.782675    0.657309   -2.007090
| 51> **                         ****END OF INPUT****

CARTESIAN COORDINATES (ANGSTROEM)
---------------------------------
  C      5.981051    1.135677    2.435147
  O      4.848078    1.264306    1.565407
  C      4.068507    0.207235    1.444143
  O      4.236248   -0.844389    2.006588
  C      2.903064    0.460699    0.511369
  N      1.910420   -0.351984    0.590357
  C      0.868370   -0.231705   -0.328711
  C      0.034834   -1.485776   -0.540726
  C      0.341466   -2.505598    0.565547
  C      0.347548   -2.111722   -1.902167
  N     -1.361396   -1.113400   -0.369747
  C     -2.209968   -0.534931   -1.419326
  C     -3.054793   -1.643959   -2.062975
  O     -1.501493    0.117620   -2.423965
  C     -3.154079    0.447824   -0.743488
  N     -4.142108    1.058115   -1.306504
  N     -4.720968    1.844671   -0.339764
  C     -4.045332    1.654231    0.743935
  C     -4.267854    2.258059    2.077111
  O     -3.033807    0.779293    0.556667
  N      0.559090    0.881180   -0.896348
  C      1.393139    1.988870   -0.773793
  O      1.032410    3.120320   -0.958647
  C      2.852993    1.621067   -0.430904
  O      3.805005    2.222507   -0.851262
  H      5.644380    0.914459    3.449684
  H      6.503301    2.089035    2.404619
  H      6.628013    0.330249    2.082465
  H      0.155936   -2.068732    1.544949
  H      1.384199   -2.813216    0.510162
  H     -0.301123   -3.374225    0.436299
  H      1.385616   -2.441749   -1.908253
  H     -0.293957   -2.976764   -2.059225
  H      0.202443   -1.404158   -2.714486
  H     -1.494901   -0.653246    0.522922
  H     -2.408680   -2.315971   -2.621975
  H     -3.573586   -2.203005   -1.288257
  H     -3.779880   -1.193901   -2.739746
  H     -4.463226    1.476125    2.810608
  H     -5.116779    2.936379    2.034175
  H     -3.379508    2.803200    2.395202
  H     -0.782675    0.657309   -2.007090

 Total Charge           Charge          ....    0
 Multiplicity           Mult            ....    1
 Number of Electrons    NEL             ....  184
 Basis Dimension        Dim             ....  615

ORBITAL ENERGIES
----------------

  NO   OCC          E(Eh)            E(eV)
   0   2.0000     -19.059396      -518.6325
   1   2.0000     -19.020410      -517.5717
   2   2.0000     -18.992134      -516.8022
   3   2.0000     -18.974520      -516.3229
   4   2.0000     -18.957048      -515.8475
   5   2.0000     -18.947754      -515.5946
   6   2.0000     -14.210777      -386.6949
   7   2.0000     -14.191406      -386.1678
   8   2.0000     -14.191019      -386.1572
   9   2.0000     -14.190204      -386.1351
  10   2.0000     -14.177495      -385.7893
  11   2.0000     -10.181667      -277.0572
  12   2.0000     -10.167006      -276.6583
  13   2.0000     -10.160318      -276.4763
  14   2.0000     -10.154110      -276.3074
  15   2.0000     -10.148704      -276.1603
  16   2.0000     -10.137921      -275.8668
  17   2.0000     -10.137845      -275.8648
  18   2.0000     -10.133366      -275.7429
  19   2.0000     -10.102458      -274.9019
  20   2.0000     -10.084408      -274.4107
  21   2.0000     -10.042832      -273.2794
  22   2.0000     -10.024179      -272.7718
  23   2.0000     -10.021876      -272.7091
  24   2.0000     -10.021278      -272.6928
  25   2.0000      -1.147062       -31.2131
  26   2.0000      -1.097768       -29.8718
  27   2.0000      -1.065924       -29.0053
  28   2.0000      -1.041884       -28.3511
  29   2.0000      -1.010563       -27.4988
  30   2.0000      -1.006476       -27.3876
  31   2.0000      -0.983939       -26.7743
  32   2.0000      -0.964628       -26.2489
  33   2.0000      -0.900067       -24.4921
  34   2.0000      -0.887856       -24.1598
  35   2.0000      -0.827299       -22.5119
  36   2.0000      -0.779812       -21.2198
  37   2.0000      -0.743684       -20.2367
  38   2.0000      -0.718298       -19.5459
  39   2.0000      -0.706426       -19.2228
  40   2.0000      -0.697064       -18.9681
  41   2.0000      -0.665090       -18.0980
  42   2.0000      -0.647531       -17.6202
  43   2.0000      -0.642889       -17.4939
  44   2.0000      -0.633099       -17.2275
  45   2.0000      -0.593137       -16.1401
  46   2.0000      -0.576270       -15.6811
  47   2.0000      -0.563249       -15.3268
  48   2.0000      -0.545752       -14.8507
  49   2.0000      -0.533188       -14.5088
  50   2.0000      -0.524233       -14.2651
  51   2.0000      -0.510097       -13.8804
  52   2.0000      -0.502040       -13.6612
  53   2.0000      -0.485855       -13.2208
  54   2.0000      -0.473103       -12.8738
  55   2.0000      -0.465254       -12.6602
  56   2.0000      -0.459143       -12.4939
  57   2.0000      -0.454009       -12.3542
  58   2.0000      -0.451825       -12.2948
  59   2.0000      -0.446402       -12.1472
  60   2.0000      -0.430846       -11.7239
  61   2.0000      -0.424302       -11.5458
  62   2.0000      -0.410519       -11.1708
  63   2.0000      -0.403372       -10.9763
  64   2.0000      -0.400722       -10.9042
  65   2.0000      -0.393967       -10.7204
  66   2.0000      -0.392012       -10.6672
  67   2.0000      -0.385499       -10.4900
  68   2.0000      -0.381229       -10.3738
  69   2.0000      -0.379686       -10.3318
  70   2.0000      -0.367820       -10.0089
  71   2.0000      -0.364270        -9.9123
  72   2.0000      -0.359911        -9.7937
  73   2.0000      -0.355115        -9.6632
  74   2.0000      -0.349764        -9.5176
  75   2.0000      -0.343116        -9.3367
  76   2.0000      -0.337878        -9.1941
  77   2.0000      -0.335186        -9.1209
  78   2.0000      -0.334711        -9.1079
  79   2.0000      -0.323508        -8.8031
  80   2.0000      -0.316243        -8.6054
  81   2.0000      -0.306964        -8.3529
  82   2.0000      -0.303965        -8.2713
  83   2.0000      -0.295191        -8.0326
  84   2.0000      -0.290388        -7.9019
  85   2.0000      -0.277720        -7.5571
  86   2.0000      -0.272530        -7.4159
  87   2.0000      -0.267666        -7.2835
  88   2.0000      -0.260575        -7.0906
  89   2.0000      -0.247378        -6.7315
  90   2.0000      -0.221204        -6.0193
  91   2.0000      -0.216036        -5.8786
  92   0.0000      -0.184961        -5.0330
  93   0.0000      -0.087872        -2.3911
  94   0.0000      -0.066233        -1.8023
  95   0.0000      -0.043092        -1.1726
  96   0.0000      -0.007907        -0.2152

MULLIKEN ATOMIC CHARGES
-----------------------
   0 C :   -0.309480
   1 O :   -0.145217
   2 C :    0.175385
   3 O :   -0.387172
   4 C :    0.386154
   5 N :   -0.102155
   6 C :    0.041445
   7 C :    0.180235
   8 C :   -0.541905
   9 C :   -0.593416
  10 N :   -0.213662
  11 C :   -0.222728
  12 C :   -0.562156
  13 O :   -0.409721
  14 C :    0.440583
  15 N :   -0.198544
  16 N :   -0.300808
  17 C :    0.384166
  18 C :   -0.636378
  19 O :   -0.068866
  20 N :   -0.153154
  21 C :    0.146395
  22 O :   -0.320820
  23 C :    0.165105
  24 O :   -0.277092
  25 H :    0.183374
  26 H :    0.183610
  27 H :    0.184009
  28 H :    0.184327
  29 H :    0.191298
  30 H :    0.183742
  31 H :    0.188059
  32 H :    0.197000
  33 H :    0.205292
  34 H :    0.329845
  35 H :    0.188797
  36 H :    0.190787
  37 H :    0.182112
  38 H :    0.197511
  39 H :    0.202715
  40 H :    0.197373
  41 H :    0.333955
Sum of atomic charges:   -0.0000000

LOEWDIN ATOMIC CHARGES
----------------------
   0 C :   -0.028055
   1 O :   -0.555993
   2 C :    0.397726
   3 O :   -0.377692
   4 C :    0.296417
   5 N :   -0.475339
   6 C :    0.399042
   7 C :    0.094744
   8 C :   -0.334799
   9 C :   -0.343021
  10 N :   -0.636388
  11 C :    0.285625
  12 C :   -0.320089
  13 O :   -0.529663
  14 C :    0.406797
  15 N :   -0.361908
  16 N :   -0.374589
  17 C :    0.366408
  18 C :   -0.320276
  19 O :   -0.406380
  20 N :   -0.521081
  21 C :    0.377768
  22 O :   -0.332152
  23 C :    0.326932
  24 O :   -0.340419
  25 H :    0.187496
  26 H :    0.190370
  27 H :    0.187966
  28 H :    0.175352
  29 H :    0.177772
  30 H :    0.170379
  31 H :    0.174343
  32 H :    0.178513
  33 H :    0.184664
  34 H :    0.289494
  35 H :    0.175705
  36 H :    0.176540
  37 H :    0.175654
  38 H :    0.189020
  39 H :    0.189705
  40 H :    0.188833
  41 H :    0.294579

  Mayer bond orders larger than 0.100000
B(  0-C ,  1-O ) :   0.8285 B(  0-C , 25-H ) :   0.9495 B(  0-C , 26-H ) :   0.9603
B(  0-C , 27-H ) :   0.9491 B(  1-O ,  2-C ) :   1.1580 B(  2-C ,  3-O ) :   1.8985
B(  2-C ,  4-C ) :   0.9864 B(  4-C ,  5-N ) :   1.4693 B(  4-C , 23-C ) :   0.8479
B(  5-N ,  6-C ) :   1.1141 B(  6-C ,  7-C ) :   0.9232 B(  6-C ,  9-C ) :   0.1066
B(  6-C , 20-N ) :   1.6279 B(  7-C ,  8-C ) :   1.0030 B(  7-C ,  9-C ) :   0.8233
B(  7-C , 10-N ) :   0.8595 B(  8-C , 28-H ) :   0.9516 B(  8-C , 29-H ) :   0.9674
B(  8-C , 30-H ) :   0.9691 B(  9-C , 31-H ) :   0.9492 B(  9-C , 32-H ) :   0.9635
B(  9-C , 33-H ) :   0.9527 B( 10-N , 11-C ) :   0.8431 B( 10-N , 34-H ) :   0.8709
B( 11-C , 12-C ) :   1.0005 B( 11-C , 13-O ) :   0.9999 B( 11-C , 14-C ) :   0.7249
B( 12-C , 35-H ) :   0.9479 B( 12-C , 36-H ) :   0.9653 B( 12-C , 37-H ) :   0.9624
B( 13-O , 41-H ) :   0.7306 B( 14-C , 15-N ) :   1.7449 B( 14-C , 17-C ) :   0.1359
B( 14-C , 19-O ) :   1.1591 B( 15-N , 16-N ) :   1.2324 B( 16-N , 17-C ) :   1.6774
B( 17-C , 18-C ) :   0.8127 B( 17-C , 19-O ) :   1.0405 B( 18-C , 38-H ) :   0.9459
B( 18-C , 39-H ) :   0.9918 B( 18-C , 40-H ) :   0.9463 B( 20-N , 21-C ) :   0.9636
B( 20-N , 41-H ) :   0.1878 B( 21-C , 22-O ) :   2.0300 B( 21-C , 23-C ) :   0.9018
B( 23-C , 24-O ) :   1.9928

Dispersion correction           -0.019312583
FINAL SINGLE POINT ENERGY     -1268.556558836782

DIPOLE MOMENT
-------------
                                X             Y             Z
Electronic contribution:      8.05181      14.22911      -1.39114
Nuclear contribution   :     -6.22693     -16.07146       4.32752
                        -----------------------------------------
Total Dipole Moment    :      1.82489      -1.84235       2.93639
                        -----------------------------------------
Magnitude (a.u.)       :      3.91750
Magnitude (Debye)      :      9.95750

Rotational constants in cm-1:     0.012924     0.004102     0.003788
Rotational constants in MHz :   387.438363   122.983672   113.559060

                             ****ORCA TERMINATED NORMALLY****
TOTAL RUN TIME: 0 days 0 hours 1 minutes 35 seconds 836 msec
