   * xtb version 6.5.1 (579679a) compiled by 'ehlert@majestix' on 2022-07-11
          program call               : /lustre/hpc/kemi/ree/PhD/git/ReactivityQM/dep/xtb-6.5.1/bin/xtb --gfn 1 /lustre/hpc/kemi/ree/PhD/git/ReactivityQM/calculations/R02oxygendeprot/reac01prodN11/conf06/R02oxygendeprot_reac01prodN11_conf06_gfn1.xyz --opt --vfukui --chrg 0 --uhf 0 --alpb DMSO

   ID    Z sym.   atoms
    1    6 C      1, 3, 5, 7-10, 12, 13, 15, 18, 19, 22, 24
    2    8 O      2, 4, 14, 20, 23, 25
    3    7 N      6, 11, 16, 17, 21
    4    1 H      26-42

      * Solvation model:               ALPB
        Solvent                        DMSO
        Solvent mass                       7.8130E+01 g/mol
          :  Hamiltonian                  GFN1-xTB          :
 * total energy  :   -82.8649264 Eh     change       -0.5969127E-09 Eh
 * total energy  :   -82.8777617 Eh     change       -0.1283522E-01 Eh
 * total energy  :   -82.8845210 Eh     change       -0.6759386E-02 Eh
 * total energy  :   -82.8862322 Eh     change       -0.1711137E-02 Eh
 * total energy  :   -82.8878423 Eh     change       -0.1610140E-02 Eh
 * total energy  :   -82.8900883 Eh     change       -0.2246014E-02 Eh
 * total energy  :   -82.8927657 Eh     change       -0.2677359E-02 Eh
 * total energy  :   -82.8962877 Eh     change       -0.3522043E-02 Eh
 * total energy  :   -82.9010122 Eh     change       -0.4724496E-02 Eh
 * total energy  :   -82.9053183 Eh     change       -0.4306101E-02 Eh
 * total energy  :   -82.9139923 Eh     change       -0.5343546E-04 Eh
 * total energy  :   -82.9140032 Eh     change       -0.1088280E-04 Eh
 * total energy  :   -82.9140346 Eh     change       -0.3140233E-04 Eh
 * total energy  :   -82.9140443 Eh     change       -0.9705433E-05 Eh
 * total energy  :   -82.9140557 Eh     change       -0.1139607E-04 Eh
 * total energy  :   -82.9140611 Eh     change       -0.5398869E-05 Eh
 * total energy  :   -82.9140654 Eh     change       -0.4310628E-05 Eh
 * total energy  :   -82.9140687 Eh     change       -0.3355118E-05 Eh
 * total energy  :   -82.9140703 Eh     change       -0.1582446E-05 Eh
   *** GEOMETRY OPTIMIZATION CONVERGED AFTER 44 ITERATIONS ***

 final structure:
================
42
 xtb: 6.5.1 (579679a)
C            5.98105062516020        1.13567717160275        2.43514665927838
O            4.84807799281525        1.26430552723613        1.56540734614140
C            4.06850689897011        0.20723495712179        1.44414257914207
O            4.23624847027525       -0.84438945987696        2.00658786411649
C            2.90306401727225        0.46069903359383        0.51136877935126
N            1.91042035119231       -0.35198403458128        0.59035748678729
C            0.86837001075542       -0.23170491092900       -0.32871117953779
C            0.03483439464475       -1.48577607966530       -0.54072564770067
C            0.34146552272578       -2.50559785280295        0.56554731083462
C            0.34754792357070       -2.11172169354895       -1.90216665687029
N           -1.36139594495977       -1.11339970934012       -0.36974737470614
C           -2.20996786317225       -0.53493069897214       -1.41932632747216
C           -3.05479347611607       -1.64395942174044       -2.06297515393778
O           -1.50149279775089        0.11762027561185       -2.42396498567128
C           -3.15407947702233        0.44782372188244       -0.74348775723981
N           -4.14210799724957        1.05811486588667       -1.30650412205081
N           -4.72096791139277        1.84467102682448       -0.33976376929624
C           -4.04533171633327        1.65423119205327        0.74393524033287
C           -4.26785411400950        2.25805919631902        2.07711095749278
O           -3.03380660698140        0.77929331054244        0.55666706905759
N            0.55909029932333        0.88118036873090       -0.89634812844015
C            1.39313862686499        1.98886968600554       -0.77379255931581
O            1.03240975752844        3.12032047975788       -0.95864664054086
C            2.85299323805213        1.62106666834659       -0.43090391107792
O            3.80500510281005        2.22250657006501       -0.85126220045240
H            5.64437964612400        0.91445887855707        3.44968421414841
H            6.50330112442473        2.08903459793103        2.40461881304778
H            6.62801340111324        0.33024896547644        2.08246460985621
H            0.15593594072230       -2.06873163662092        1.54494900849014
H            1.38419905799186       -2.81321551240462        0.51016233245065
H           -0.30112334483292       -3.37422536210238        0.43629924986779
H            1.38561603391422       -2.44174899051020       -1.90825323073316
H           -0.29395726054539       -2.97676428486034       -2.05922533952308
H            0.20244320945371       -1.40415750461018       -2.71448641224249
H           -1.49490094460606       -0.65324619579658        0.52292211449514
H           -2.40868003003884       -2.31597131735854       -2.62197489227334
H           -3.57358588284564       -2.20300549279026       -1.28825684873996
H           -3.77988024531456       -1.19390064722039       -2.73974557601235
H           -4.46322593746742        1.47612482454238        2.81060790999964
H           -5.11677886894434        2.93637902512916        2.03417533243644
H           -3.37950751460199        2.80320012096643        2.39520214246944
H           -0.78267471151654        0.65730934153746       -2.00709030596333

          :  Hamiltonian                  GFN1-xTB          :
         :: total energy             -82.914070327711 Eh    ::
         :: gradient norm              0.000458549349 Eh/a0 ::
         :: HOMO-LUMO gap              0.488810247897 eV    ::
         :: SCC energy               -83.675098384501 Eh    ::
         :: -> Gsolv                  -0.048705143883 Eh    ::
         :: repulsion energy           0.787916299524 Eh    ::

    * Orbital Energies and Occupations

         #    Occupation            Energy/Eh            Energy/eV
      -------------------------------------------------------------
         1        2.0000           -0.8593327             -23.3836
       ...           ...                  ...                  ...
        55        2.0000           -0.5071905             -13.8014
        56        2.0000           -0.5032338             -13.6937
        57        2.0000           -0.5029652             -13.6864
        58        2.0000           -0.4980692             -13.5532
        59        2.0000           -0.4963763             -13.5071
        60        2.0000           -0.4895236             -13.3206
        61        2.0000           -0.4860845             -13.2270
        62        2.0000           -0.4812435             -13.0953
        63        2.0000           -0.4691521             -12.7663
        64        2.0000           -0.4497006             -12.2370
        65        2.0000           -0.4466179             -12.1531
        66        2.0000           -0.4319516             -11.7540
        67        1.9998           -0.4255918             -11.5809 (HOMO)
        68        0.0002           -0.4076284             -11.0921 (LUMO)
        69                         -0.3235276              -8.8036
        70                         -0.3072544              -8.3608
        71                         -0.2655170              -7.2251
        72                         -0.2553635              -6.9488
        73                         -0.2472258              -6.7274
        74                         -0.2043272              -5.5600
        75                         -0.1413176              -3.8454
        76                         -0.1408273              -3.8321
        77                         -0.1356288              -3.6906
        78                         -0.1228930              -3.3441
       ...                                ...                  ...
       134                          0.7761459              21.1200
      -------------------------------------------------------------
                  HL-Gap            0.0179634 Eh            0.4888 eV

Wiberg/Mayer (AO) data.
largest (>0.10) Wiberg bond orders for each atom

     #   Z sym  total        # sym  WBO       # sym  WBO       # sym  WBO
 ---------------------------------------------------------------------------
     1   6 C    3.856 --    27 H    0.985    28 H    0.978    26 H    0.978
                             2 O    0.883
     2   8 O    2.227 --     3 C    1.149     1 C    0.883     4 O    0.149
     3   6 C    3.856 --     4 O    1.683     2 O    1.149     5 C    0.948
     4   8 O    1.950 --     3 C    1.683     2 O    0.149
     5   6 C    3.942 --     6 N    1.720    24 C    0.983     3 C    0.948
     6   7 N    3.058 --     5 C    1.720     7 C    1.082
     7   6 C    3.905 --    21 N    1.636     6 N    1.082     8 C    0.960
     8   6 C    3.947 --     9 C    0.985    10 C    0.980     7 C    0.960
                            11 N    0.954
     9   6 C    3.988 --     8 C    0.985    31 H    0.985    29 H    0.983
                            30 H    0.982
    10   6 C    3.987 --    32 H    0.984     8 C    0.980    33 H    0.979
                            34 H    0.978
    11   7 N    3.146 --     8 C    0.954    12 C    0.939    35 H    0.907
    12   6 C    3.905 --    14 O    0.981    13 C    0.970    15 C    0.954
                            11 N    0.939
    13   6 C    3.983 --    37 H    0.987    38 H    0.983    36 H    0.980
                            12 C    0.970
    14   8 O    1.921 --    12 C    0.981    42 H    0.786
    15   6 C    3.870 --    16 N    1.668    20 O    1.061    12 C    0.954
    16   7 N    2.991 --    15 C    1.668    17 N    1.162
    17   7 N    2.980 --    18 C    1.650    16 N    1.162
    18   6 C    3.870 --    17 N    1.650    20 O    1.049    19 C    1.029
    19   6 C    3.988 --    18 C    1.029    40 H    0.983    41 H    0.966
                            39 H    0.965
    20   8 O    2.312 --    15 C    1.061    18 C    1.049
    21   7 N    3.145 --     7 C    1.636    22 C    1.087
    22   6 C    3.875 --    23 O    1.755    21 N    1.087    24 C    0.886
    23   8 O    2.005 --    22 C    1.755
    24   6 C    3.852 --    25 O    1.822     5 C    0.983    22 C    0.886
    25   8 O    2.006 --    24 C    1.822
    26   1 H    1.003 --     1 C    0.978
    27   1 H    1.008 --     1 C    0.985
    28   1 H    1.003 --     1 C    0.978
    29   1 H    1.003 --     9 C    0.983
    30   1 H    1.007 --     9 C    0.982
    31   1 H    1.003 --     9 C    0.985
    32   1 H    1.001 --    10 C    0.984
    33   1 H    1.001 --    10 C    0.979
    34   1 H    1.010 --    10 C    0.978
    35   1 H    0.950 --    11 N    0.907
    36   1 H    1.006 --    13 C    0.980
    37   1 H    1.007 --    13 C    0.987
    38   1 H    1.007 --    13 C    0.983
    39   1 H    0.998 --    19 C    0.965
    40   1 H    0.999 --    19 C    0.983
    41   1 H    0.998 --    19 C    0.966
    42   1 H    0.902 --    14 O    0.786
 ---------------------------------------------------------------------------

           -------------------------------------------------
          | TOTAL ENERGY              -82.914070327711 Eh   |
          | GRADIENT NORM               0.000458549349 Eh/α |
          | HOMO-LUMO GAP               0.488810247897 eV   |
           -------------------------------------------------

 * finished run on 2023/06/21 at 17:26:57.010
