                         Program Version 5.0.1 -  RELEASE  -
|  1> # ORCA input file
|  2> ! SP r2SCAN-3c CPCM
|  3>
|  4> %maxcore 1875.0
|  5> %pal nprocs 4 end
|  6> %cpcm smd true SMDsolvent "DMSO" end
|  7>
|  8> *xyz -1 1
|  9> C      -5.123750   -3.061357    0.986762
| 10> O      -3.870348   -2.473792    0.696072
| 11> C      -3.875086   -1.078755    0.634807
| 12> O      -4.959875   -0.464401    0.860410
| 13> C      -2.661127   -0.480508    0.333046
| 14> C      -2.557402    0.975460    0.214864
| 15> O      -3.696295    1.718340    0.376741
| 16> C      -1.373205    1.531583   -0.093108
| 17> O      -1.057482    2.870994   -0.262219
| 18> C      -2.032601    3.696175   -0.877664
| 19> N      -0.204088    0.716194   -0.189251
| 20> C      -0.416881   -0.673167   -0.217115
| 21> C       0.799351   -1.503042   -0.594213
| 22> C       0.708733   -2.902430    0.022491
| 23> C       0.886256   -1.599991   -2.121618
| 24> N       2.015496   -0.823718   -0.133555
| 25> C       2.164364   -0.396839    1.146139
| 26> O       1.465596   -0.754613    2.090771
| 27> C       3.287123    0.543043    1.313889
| 28> N       3.681211    1.124676    2.413955
| 29> N       4.725382    1.938324    2.075489
| 30> C       4.904975    1.808894    0.800290
| 31> C       5.917504    2.482031   -0.043684
| 32> O       4.032305    0.943594    0.250605
| 33> N      -1.518202   -1.246140    0.065079
| 34> H      -5.485884   -2.759935    1.977780
| 35> H      -5.877737   -2.780108    0.241341
| 36> H      -4.985602   -4.143761    0.967562
| 37> H      -4.422933    1.044598    0.580468
| 38> H      -2.843657    3.948171   -0.183726
| 39> H      -2.461133    3.215000   -1.764406
| 40> H      -1.523440    4.613980   -1.179521
| 41> H       0.471967    1.059462   -0.855376
| 42> H       1.569959   -3.498107   -0.274746
| 43> H      -0.202518   -3.387609   -0.326370
| 44> H       0.676480   -2.836829    1.109743
| 45> H       1.767417   -2.167321   -2.416416
| 46> H       0.945971   -0.605171   -2.560288
| 47> H      -0.001337   -2.099935   -2.506825
| 48> H       2.618957   -0.433619   -0.835682
| 49> H       5.431692    2.999933   -0.869928
| 50> H       6.601817    1.746051   -0.465076
| 51> H       6.478027    3.194646    0.556213
| 52> **                         ****END OF INPUT****

CARTESIAN COORDINATES (ANGSTROEM)
---------------------------------
  C     -5.123750   -3.061357    0.986762
  O     -3.870348   -2.473792    0.696072
  C     -3.875086   -1.078755    0.634807
  O     -4.959875   -0.464401    0.860410
  C     -2.661127   -0.480508    0.333046
  C     -2.557402    0.975460    0.214864
  O     -3.696295    1.718340    0.376741
  C     -1.373205    1.531583   -0.093108
  O     -1.057482    2.870994   -0.262219
  C     -2.032601    3.696175   -0.877664
  N     -0.204088    0.716194   -0.189251
  C     -0.416881   -0.673167   -0.217115
  C      0.799351   -1.503042   -0.594213
  C      0.708733   -2.902430    0.022491
  C      0.886256   -1.599991   -2.121618
  N      2.015496   -0.823718   -0.133555
  C      2.164364   -0.396839    1.146139
  O      1.465596   -0.754613    2.090771
  C      3.287123    0.543043    1.313889
  N      3.681211    1.124676    2.413955
  N      4.725382    1.938324    2.075489
  C      4.904975    1.808894    0.800290
  C      5.917504    2.482031   -0.043684
  O      4.032305    0.943594    0.250605
  N     -1.518202   -1.246140    0.065079
  H     -5.485884   -2.759935    1.977780
  H     -5.877737   -2.780108    0.241341
  H     -4.985602   -4.143761    0.967562
  H     -4.422933    1.044598    0.580468
  H     -2.843657    3.948171   -0.183726
  H     -2.461133    3.215000   -1.764406
  H     -1.523440    4.613980   -1.179521
  H      0.471967    1.059462   -0.855376
  H      1.569959   -3.498107   -0.274746
  H     -0.202518   -3.387609   -0.326370
  H      0.676480   -2.836829    1.109743
  H      1.767417   -2.167321   -2.416416
  H      0.945971   -0.605171   -2.560288
  H     -0.001337   -2.099935   -2.506825
  H      2.618957   -0.433619   -0.835682
  H      5.431692    2.999933   -0.869928
  H      6.601817    1.746051   -0.465076
  H      6.478027    3.194646    0.556213

 Total Charge           Charge          ....   -1
 Multiplicity           Mult            ....    1
 Number of Electrons    NEL             ....  186
 Basis Dimension        Dim             ....  620

ORBITAL ENERGIES
----------------

  NO   OCC          E(Eh)            E(eV)
   0   2.0000     -19.055281      -518.5206
   1   2.0000     -18.967767      -516.1392
   2   2.0000     -18.949571      -515.6441
   3   2.0000     -18.933968      -515.2195
   4   2.0000     -18.918860      -514.8084
   5   2.0000     -18.887313      -513.9499
   6   2.0000     -14.194177      -386.2432
   7   2.0000     -14.190443      -386.1416
   8   2.0000     -14.185040      -385.9945
   9   2.0000     -14.168340      -385.5401
  10   2.0000     -14.129301      -384.4778
  11   2.0000     -10.140460      -275.9359
  12   2.0000     -10.138713      -275.8884
  13   2.0000     -10.131653      -275.6963
  14   2.0000     -10.096023      -274.7268
  15   2.0000     -10.083975      -274.3989
  16   2.0000     -10.082007      -274.3454
  17   2.0000     -10.078953      -274.2623
  18   2.0000     -10.060665      -273.7646
  19   2.0000     -10.060610      -273.7631
  20   2.0000     -10.054433      -273.5950
  21   2.0000     -10.041660      -273.2475
  22   2.0000     -10.019139      -272.6346
  23   2.0000     -10.015964      -272.5482
  24   2.0000     -10.007369      -272.3143
  25   2.0000      -1.142082       -31.0776
  26   2.0000      -1.014329       -27.6013
  27   2.0000      -1.010072       -27.4854
  28   2.0000      -1.003973       -27.3195
  29   2.0000      -0.975766       -26.5519
  30   2.0000      -0.964767       -26.2527
  31   2.0000      -0.925095       -25.1731
  32   2.0000      -0.919424       -25.0188
  33   2.0000      -0.891935       -24.2708
  34   2.0000      -0.833012       -22.6674
  35   2.0000      -0.821402       -22.3515
  36   2.0000      -0.760326       -20.6895
  37   2.0000      -0.713095       -19.4043
  38   2.0000      -0.706463       -19.2238
  39   2.0000      -0.675898       -18.3921
  40   2.0000      -0.655974       -17.8500
  41   2.0000      -0.654036       -17.7972
  42   2.0000      -0.649517       -17.6742
  43   2.0000      -0.617653       -16.8072
  44   2.0000      -0.595097       -16.1934
  45   2.0000      -0.590683       -16.0733
  46   2.0000      -0.567917       -15.4538
  47   2.0000      -0.529784       -14.4162
  48   2.0000      -0.522148       -14.2084
  49   2.0000      -0.510068       -13.8796
  50   2.0000      -0.498158       -13.5556
  51   2.0000      -0.488475       -13.2921
  52   2.0000      -0.483964       -13.1693
  53   2.0000      -0.465582       -12.6691
  54   2.0000      -0.452034       -12.3005
  55   2.0000      -0.444927       -12.1071
  56   2.0000      -0.428135       -11.6501
  57   2.0000      -0.422065       -11.4850
  58   2.0000      -0.416504       -11.3336
  59   2.0000      -0.408517       -11.1163
  60   2.0000      -0.406041       -11.0489
  61   2.0000      -0.402636       -10.9563
  62   2.0000      -0.398877       -10.8540
  63   2.0000      -0.396053       -10.7772
  64   2.0000      -0.393083       -10.6963
  65   2.0000      -0.381002       -10.3676
  66   2.0000      -0.377103       -10.2615
  67   2.0000      -0.376433       -10.2433
  68   2.0000      -0.371717       -10.1149
  69   2.0000      -0.356995        -9.7143
  70   2.0000      -0.356406        -9.6983
  71   2.0000      -0.349541        -9.5115
  72   2.0000      -0.339783        -9.2460
  73   2.0000      -0.335459        -9.1283
  74   2.0000      -0.327694        -8.9170
  75   2.0000      -0.323117        -8.7925
  76   2.0000      -0.318754        -8.6737
  77   2.0000      -0.314060        -8.5460
  78   2.0000      -0.306305        -8.3350
  79   2.0000      -0.304854        -8.2955
  80   2.0000      -0.296177        -8.0594
  81   2.0000      -0.286267        -7.7897
  82   2.0000      -0.272175        -7.4062
  83   2.0000      -0.260553        -7.0900
  84   2.0000      -0.253257        -6.8915
  85   2.0000      -0.242742        -6.6053
  86   2.0000      -0.239563        -6.5188
  87   2.0000      -0.231465        -6.2985
  88   2.0000      -0.230994        -6.2857
  89   2.0000      -0.219951        -5.9852
  90   2.0000      -0.199694        -5.4340
  91   2.0000      -0.181727        -4.9451
  92   2.0000      -0.094156        -2.5621
  93   0.0000      -0.079178        -2.1545
  94   0.0000      -0.013623        -0.3707
  95   0.0000      -0.001263        -0.0344
  96   0.0000       0.038744         1.0543
  97   0.0000       0.050479         1.3736

MULLIKEN ATOMIC CHARGES
-----------------------
   0 C :   -0.347552
   1 O :   -0.221525
   2 C :    0.165724
   3 O :   -0.558764
   4 C :   -0.244979
   5 C :    0.020438
   6 O :   -0.427122
   7 C :   -0.167830
   8 O :   -0.198167
   9 C :   -0.324767
  10 N :   -0.173679
  11 C :    0.252053
  12 C :    0.105159
  13 C :   -0.641898
  14 C :   -0.569687
  15 N :   -0.160354
  16 C :   -0.160316
  17 O :   -0.423357
  18 C :    0.390029
  19 N :   -0.189463
  20 N :   -0.282459
  21 C :    0.382900
  22 C :   -0.638794
  23 O :   -0.061201
  24 N :   -0.188837
  25 H :    0.153728
  26 H :    0.155137
  27 H :    0.154952
  28 H :    0.381559
  29 H :    0.166776
  30 H :    0.155834
  31 H :    0.156296
  32 H :    0.314366
  33 H :    0.176982
  34 H :    0.180408
  35 H :    0.193096
  36 H :    0.182170
  37 H :    0.185660
  38 H :    0.190592
  39 H :    0.318299
  40 H :    0.196719
  41 H :    0.199279
  42 H :    0.202595
Sum of atomic charges:   -1.0000000

LOEWDIN ATOMIC CHARGES
----------------------
   0 C :   -0.066436
   1 O :   -0.649372
   2 C :    0.343486
   3 O :   -0.629881
   4 C :    0.079069
   5 C :    0.208596
   6 O :   -0.557490
   7 C :    0.304180
   8 O :   -0.650062
   9 C :   -0.052825
  10 N :   -0.574891
  11 C :    0.319344
  12 C :    0.102433
  13 C :   -0.356102
  14 C :   -0.348465
  15 N :   -0.591578
  16 C :    0.363118
  17 O :   -0.465561
  18 C :    0.403563
  19 N :   -0.352527
  20 N :   -0.374456
  21 C :    0.369339
  22 C :   -0.320278
  23 O :   -0.403272
  24 N :   -0.607180
  25 H :    0.165181
  26 H :    0.166614
  27 H :    0.172295
  28 H :    0.308979
  29 H :    0.172857
  30 H :    0.169554
  31 H :    0.173878
  32 H :    0.286747
  33 H :    0.162318
  34 H :    0.172673
  35 H :    0.179901
  36 H :    0.169697
  37 H :    0.169824
  38 H :    0.174389
  39 H :    0.294053
  40 H :    0.188892
  41 H :    0.189902
  42 H :    0.189494

  Mayer bond orders larger than 0.100000
B(  0-C ,  1-O ) :   0.8569 B(  0-C , 25-H ) :   0.9683 B(  0-C , 26-H ) :   0.9699
B(  0-C , 27-H ) :   0.9694 B(  1-O ,  2-C ) :   1.0389 B(  2-C ,  3-O ) :   1.4898
B(  2-C ,  4-C ) :   1.4581 B(  3-O , 28-H ) :   0.1583 B(  4-C ,  5-C ) :   0.8833
B(  4-C , 24-N ) :   0.9813 B(  5-C ,  6-O ) :   1.0510 B(  5-C ,  7-C ) :   1.5491
B(  6-O ,  7-C ) :   0.1034 B(  6-O , 28-H ) :   0.6894 B(  7-C ,  8-O ) :   1.2559
B(  7-C , 10-N ) :   1.0819 B(  8-O ,  9-C ) :   0.8430 B(  9-C , 29-H ) :   0.9632
B(  9-C , 30-H ) :   0.9574 B(  9-C , 31-H ) :   0.9667 B( 10-N , 11-C ) :   0.9155
B( 10-N , 32-H ) :   0.8531 B( 11-C , 12-C ) :   0.7677 B( 11-C , 24-N ) :   1.8471
B( 12-C , 13-C ) :   0.8804 B( 12-C , 14-C ) :   0.9394 B( 12-C , 15-N ) :   0.8866
B( 13-C , 33-H ) :   0.9748 B( 13-C , 34-H ) :   0.9673 B( 13-C , 35-H ) :   0.9753
B( 14-C , 36-H ) :   0.9614 B( 14-C , 37-H ) :   0.9619 B( 14-C , 38-H ) :   0.9720
B( 15-N , 16-C ) :   1.0933 B( 15-N , 39-H ) :   0.8831 B( 16-C , 17-O ) :   1.9188
B( 16-C , 18-C ) :   0.8204 B( 17-O , 18-C ) :  -0.1098 B( 18-C , 19-N ) :   1.6855
B( 18-C , 21-C ) :   0.1037 B( 18-C , 23-O ) :   1.0692 B( 19-N , 20-N ) :   1.2774
B( 20-N , 21-C ) :   1.6479 B( 21-C , 22-C ) :   0.8258 B( 21-C , 23-O ) :   1.0628
B( 22-C , 40-H ) :   0.9482 B( 22-C , 41-H ) :   0.9402 B( 22-C , 42-H ) :   0.9916

Dispersion correction           -0.019071182
FINAL SINGLE POINT ENERGY     -1269.307944069428

DIPOLE MOMENT
-------------
                                X             Y             Z
Electronic contribution:      6.54829       5.51394       9.72324
Nuclear contribution   :     -1.17810      -4.72895     -14.58081
                        -----------------------------------------
Total Dipole Moment    :      5.37018       0.78499      -4.85757
                        -----------------------------------------
Magnitude (a.u.)       :      7.28362
Magnitude (Debye)      :     18.51348

Rotational constants in cm-1:     0.012586     0.004028     0.003477
Rotational constants in MHz :   377.311423   120.757551   104.230042

                             ****ORCA TERMINATED NORMALLY****
TOTAL RUN TIME: 0 days 0 hours 3 minutes 47 seconds 415 msec
