   * xtb version 6.5.1 (579679a) compiled by 'ehlert@majestix' on 2022-07-11
          program call               : /lustre/hpc/kemi/ree/PhD/git/ReactivityQM/dep/xtb-6.5.1/bin/xtb --gfn 1 /lustre/hpc/kemi/ree/PhD/git/ReactivityQM/calculations/R02/reac01prodE13/conf09/R02_reac01prodE13_conf09_gfn1.xyz --opt --vfukui --chrg -1 --uhf 0 --alpb DMSO

   ID    Z sym.   atoms
    1    6 C      1, 3, 5, 6, 8, 10, 12-15, 17, 19, 22, 23
    2    8 O      2, 4, 7, 9, 18, 24
    3    7 N      11, 16, 20, 21, 25
    4    1 H      26-43

      * Solvation model:               ALPB
        Solvent                        DMSO
        Solvent mass                       7.8130E+01 g/mol
          :  Hamiltonian                  GFN1-xTB          :
 * total energy  :   -83.8261671 Eh     change       -0.1417675E-09 Eh
 * total energy  :   -83.8417662 Eh     change       -0.1559909E-01 Eh
 * total energy  :   -83.8477695 Eh     change       -0.6003378E-02 Eh
 * total energy  :   -83.8491972 Eh     change       -0.1427681E-02 Eh
 * total energy  :   -83.8503731 Eh     change       -0.1175868E-02 Eh
 * total energy  :   -83.8510243 Eh     change       -0.6512145E-03 Eh
 * total energy  :   -83.8515696 Eh     change       -0.5453281E-03 Eh
 * total energy  :   -83.8520747 Eh     change       -0.5050513E-03 Eh
 * total energy  :   -83.8525243 Eh     change       -0.4495974E-03 Eh
 * total energy  :   -83.8528582 Eh     change       -0.3339007E-03 Eh
 * total energy  :   -83.8559641 Eh     change       -0.1900559E-04 Eh
 * total energy  :   -83.8559763 Eh     change       -0.1219830E-04 Eh
 * total energy  :   -83.8559864 Eh     change       -0.1010467E-04 Eh
 * total energy  :   -83.8559956 Eh     change       -0.9237362E-05 Eh
 * total energy  :   -83.8560023 Eh     change       -0.6642372E-05 Eh
 * total energy  :   -83.8560117 Eh     change       -0.9419235E-05 Eh
 * total energy  :   -83.8560213 Eh     change       -0.9586458E-05 Eh
 * total energy  :   -83.8560273 Eh     change       -0.5985756E-05 Eh
 * total energy  :   -83.8560309 Eh     change       -0.3637426E-05 Eh
   *** GEOMETRY OPTIMIZATION CONVERGED AFTER 50 ITERATIONS ***

 final structure:
================
43
 xtb: 6.5.1 (579679a)
C           -5.12374971125515       -3.06135674973627        0.98676188225978
O           -3.87034769946395       -2.47379197618405        0.69607185732664
C           -3.87508552811028       -1.07875529588964        0.63480727120256
O           -4.95987464384744       -0.46440070680488        0.86041031070470
C           -2.66112740206414       -0.48050791527108        0.33304552874078
C           -2.55740216700020        0.97545994678570        0.21486369205075
O           -3.69629536937294        1.71834026294046        0.37674134100581
C           -1.37320505156554        1.53158339845559       -0.09310794081628
O           -1.05748158349030        2.87099352545225       -0.26221882455558
C           -2.03260091454051        3.69617453333886       -0.87766441092746
N           -0.20408821497314        0.71619371496725       -0.18925055312536
C           -0.41688103561957       -0.67316742606502       -0.21711474005635
C            0.79935076680087       -1.50304167279152       -0.59421258523011
C            0.70873329806370       -2.90243027181816        0.02249103589724
C            0.88625615931067       -1.59999082028302       -2.12161750481161
N            2.01549618170329       -0.82371761001879       -0.13355459773772
C            2.16436377929854       -0.39683948858648        1.14613864167771
O            1.46559620848129       -0.75461329726335        2.09077132331896
C            3.28712345063383        0.54304310550514        1.31388924638621
N            3.68121096341555        1.12467621926324        2.41395502838146
N            4.72538228114924        1.93832353726529        2.07548932505576
C            4.90497497539749        1.80889412298858        0.80029016711212
C            5.91750423358161        2.48203141963413       -0.04368419164662
O            4.03230523954013        0.94359365799518        0.25060545012409
N           -1.51820229356499       -1.24614048836064        0.06507930818850
H           -5.48588375212616       -2.75993483065835        1.97778018896190
H           -5.87773677424137       -2.78010803906932        0.24134108706202
H           -4.98560228878517       -4.14376078777821        0.96756186148946
H           -4.42293333375282        1.04459825445989        0.58046792321336
H           -2.84365724151254        3.94817074244212       -0.18372593130016
H           -2.46113266693500        3.21500019285714       -1.76440587886467
H           -1.52344001189907        4.61398016817548       -1.17952061983165
H            0.47196703948195        1.05946207048432       -0.85537641128658
H            1.56995915747787       -3.49810749282635       -0.27474564064283
H           -0.20251774636886       -3.38760882065141       -0.32637007963276
H            0.67647950790041       -2.83682860115752        1.10974264723433
H            1.76741716919838       -2.16732138689324       -2.41641569355346
H            0.94597081204559       -0.60517137245883       -2.56028750725490
H           -0.00133663190601       -2.09993546848674       -2.50682490068356
H            2.61895665592029       -0.43361924522263       -0.83568158378268
H            5.43169164353310        2.99993332869097       -0.86992782497632
H            6.60181702273065        1.74605140628480       -0.46507647236083
H            6.47802651671548        3.19464615628682        0.55621277566917

          :  Hamiltonian                  GFN1-xTB          :
         :: total energy             -83.856030897005 Eh    ::
         :: gradient norm              0.000472453917 Eh/a0 ::
         :: HOMO-LUMO gap              0.179676082569 eV    ::
         :: SCC energy               -84.609681304646 Eh    ::
         :: -> Gsolv                  -0.125710379297 Eh    ::
         :: repulsion energy           0.779646974466 Eh    ::

    * Orbital Energies and Occupations

         #    Occupation            Energy/Eh            Energy/eV
      -------------------------------------------------------------
         1        2.0000           -0.8471666             -23.0526
       ...           ...                  ...                  ...
        56        2.0000           -0.4648080             -12.6481
        57        2.0000           -0.4627110             -12.5910
        58        2.0000           -0.4552569             -12.3882
        59        2.0000           -0.4456169             -12.1259
        60        2.0000           -0.4424199             -12.0389
        61        2.0000           -0.4410481             -12.0015
        62        2.0000           -0.4345212             -11.8239
        63        2.0000           -0.4271730             -11.6240
        64        2.0000           -0.4206102             -11.4454
        65        2.0000           -0.4056627             -11.0386
        66        2.0000           -0.3849225             -10.4743
        67        2.0000           -0.3797802             -10.3343
        68        1.9399           -0.3003361              -8.1726 (HOMO)
        69        0.0601           -0.2937331              -7.9929 (LUMO)
        70                         -0.2428003              -6.6069
        71                         -0.2232810              -6.0758
        72                         -0.1869950              -5.0884
        73                         -0.1784888              -4.8569
        74                         -0.1365005              -3.7144
        75                         -0.1192071              -3.2438
        76                         -0.1156414              -3.1468
        77                         -0.1112440              -3.0271
        78                         -0.1087044              -2.9580
        79                         -0.0952374              -2.5915
       ...                                ...                  ...
       136                          0.7231227              19.6772
      -------------------------------------------------------------
                  HL-Gap            0.0066030 Eh            0.1797 eV

Wiberg/Mayer (AO) data.
largest (>0.10) Wiberg bond orders for each atom

     #   Z sym  total        # sym  WBO       # sym  WBO       # sym  WBO
 ---------------------------------------------------------------------------
     1   6 C    3.914 --    28 H    0.987    26 H    0.981    27 H    0.980
                             2 O    0.945
     2   8 O    2.071 --     3 C    0.954     1 C    0.945
     3   6 C    3.844 --     5 C    1.378     4 O    1.360     2 O    0.954
     4   8 O    1.788 --     3 C    1.360    29 H    0.124     5 C    0.107
     5   6 C    3.829 --     3 C    1.378    25 N    1.083     6 C    1.073
                             4 O    0.107
     6   6 C    3.900 --     8 C    1.625     5 C    1.073     7 O    1.034
     7   8 O    1.974 --     6 C    1.034    29 H    0.747
     8   6 C    3.807 --     6 C    1.625    11 N    0.979     9 O    0.963
     9   8 O    2.054 --     8 C    0.963    10 C    0.933
    10   6 C    3.906 --    32 H    0.985    31 H    0.982    30 H    0.980
                             9 O    0.933
    11   7 N    3.205 --    12 C    1.049     8 C    0.979    33 H    0.915
                            25 N    0.101
    12   6 C    3.938 --    25 N    1.706    11 N    1.049    13 C    0.969
    13   6 C    3.934 --    14 C    0.993    15 C    0.988    12 C    0.969
                            16 N    0.921
    14   6 C    3.993 --    13 C    0.993    34 H    0.988    35 H    0.984
                            36 H    0.981
    15   6 C    3.992 --    13 C    0.988    37 H    0.985    39 H    0.984
                            38 H    0.984
    16   7 N    3.312 --    17 C    1.225    13 C    0.921    40 H    0.904
                            18 O    0.161
    17   6 C    3.894 --    18 O    1.544    16 N    1.225    19 C    1.020
    18   8 O    1.842 --    17 C    1.544    16 N    0.161
    19   6 C    3.827 --    20 N    1.573    24 O    1.028    17 C    1.020
    20   7 N    2.929 --    19 C    1.573    21 N    1.189
    21   7 N    2.980 --    22 C    1.622    20 N    1.189
    22   6 C    3.855 --    21 N    1.622    24 O    1.065    23 C    1.029
    23   6 C    3.989 --    22 C    1.029    43 H    0.983    41 H    0.967
                            42 H    0.964
    24   8 O    2.282 --    22 C    1.065    19 C    1.028
    25   7 N    3.027 --    12 C    1.706     5 C    1.083    11 N    0.101
    26   1 H    1.018 --     1 C    0.981
    27   1 H    1.019 --     1 C    0.980
    28   1 H    1.019 --     1 C    0.987
    29   1 H    0.884 --     7 O    0.747     4 O    0.124
    30   1 H    1.025 --    10 C    0.980
    31   1 H    1.011 --    10 C    0.982
    32   1 H    1.018 --    10 C    0.985
    33   1 H    0.962 --    11 N    0.915
    34   1 H    1.005 --    14 C    0.988
    35   1 H    1.018 --    14 C    0.984
    36   1 H    1.018 --    14 C    0.981
    37   1 H    1.000 --    15 C    0.985
    38   1 H    1.001 --    15 C    0.984
    39   1 H    1.005 --    15 C    0.984
    40   1 H    0.946 --    16 N    0.904
    41   1 H    0.998 --    23 C    0.967
    42   1 H    0.998 --    23 C    0.964
    43   1 H    1.000 --    23 C    0.983
 ---------------------------------------------------------------------------

           -------------------------------------------------
          | TOTAL ENERGY              -83.856030897005 Eh   |
          | GRADIENT NORM               0.000472453917 Eh/α |
          | HOMO-LUMO GAP               0.179676082569 eV   |
           -------------------------------------------------

 * finished run on 2023/06/20 at 15:15:59.906
