   * xtb version 6.5.1 (579679a) compiled by 'ehlert@majestix' on 2022-07-11
          program call               : /lustre/hpc/kemi/ree/PhD/git/ReactivityQM/dep/xtb-6.5.1/bin/xtb --gfn 1 /lustre/hpc/kemi/ree/PhD/git/ReactivityQM/calculations/R01/reac02prodN02/conf06/R01_reac02prodN02_conf06_gfn1.xyz --opt --vfukui --chrg 1 --uhf 0 --alpb DMSO

   ID    Z sym.   atoms
    1    6 C      1, 3-6, 8, 9, 12, 13, 15
    2    7 N      2, 7, 17
    3    8 O      10, 11, 14, 16
    4    1 H      18-33

      * Solvation model:               ALPB
        Solvent                        DMSO
        Solvent mass                       7.8130E+01 g/mol
          :  Hamiltonian                  GFN1-xTB          :
 * total energy  :   -57.8601177 Eh     change       -0.4391154E-11 Eh
 * total energy  :   -57.8699808 Eh     change       -0.9863071E-02 Eh
 * total energy  :   -57.8728577 Eh     change       -0.2876937E-02 Eh
 * total energy  :   -57.8732661 Eh     change       -0.4083356E-03 Eh
 * total energy  :   -57.8735196 Eh     change       -0.2535511E-03 Eh
 * total energy  :   -57.8736229 Eh     change       -0.1033282E-03 Eh
 * total energy  :   -57.8737230 Eh     change       -0.1000555E-03 Eh
 * total energy  :   -57.8738071 Eh     change       -0.8414855E-04 Eh
 * total energy  :   -57.8738550 Eh     change       -0.4781956E-04 Eh
 * total energy  :   -57.8739026 Eh     change       -0.4766265E-04 Eh
 * total energy  :   -57.8739319 Eh     change       -0.2931659E-04 Eh
 * total energy  :   -57.8739483 Eh     change       -0.1636397E-04 Eh
 * total energy  :   -57.8739643 Eh     change       -0.1599454E-04 Eh
 * total energy  :   -57.8739719 Eh     change       -0.7629807E-05 Eh
 * total energy  :   -57.8739798 Eh     change       -0.7906252E-05 Eh
 * total energy  :   -57.8739821 Eh     change       -0.2234620E-05 Eh
 * total energy  :   -57.8739861 Eh     change       -0.4067422E-05 Eh
   *** GEOMETRY OPTIMIZATION CONVERGED AFTER 17 ITERATIONS ***

 final structure:
================
33
 xtb: 6.5.1 (579679a)
C           -1.85762212846516       -2.16657621927972       -0.19907145800515
N           -2.03642262198266       -1.07603966396205        0.79009478370260
C           -2.08285299497023        0.32213988532751        0.23407768846107
C           -2.52838600989302        1.22995886846685        1.38566501980648
C           -3.05654373137339        0.39956390645845       -0.93805973746849
C           -0.65708000852142        0.65346117034759       -0.14059469586432
N            0.28367529330996       -0.08400735306582        0.33706025386979
C            1.59887682697351        0.21934743009660        0.05989538345913
C            2.54654161614251       -0.75152320709456        0.67723283131321
O            2.19007983865510       -1.70508523183699        1.32595618236039
O            3.82821335805874       -0.46158940993233        0.43846606447880
C            4.79600253534288       -1.35926631342248        1.01079996227958
C            1.92511900412308        1.30709391884665       -0.70834799836021
O            3.15846002100584        1.69029943090843       -1.03200780717341
C            0.86355509460445        2.16862290433125       -1.25488892853889
O            1.02654592264921        3.15538495804849       -1.94122610920373
N           -0.41342755611073        1.74601699472477       -0.90764964205878
H           -1.72431303256548       -3.08958907949032        0.35992747865465
H           -2.74186453395800       -2.23218515502738       -0.82459942161082
H           -0.97309815849633       -1.95121089606771       -0.79268456713151
H           -1.22824679768196       -1.10340082034121        1.42220351348605
H           -2.87965923944242       -1.25138318297379        1.32750802216321
H           -2.49104806311458        2.26838821241076        1.06104343309838
H           -3.54850994031911        0.98778074137012        1.67779515322825
H           -1.86832271734909        1.10351797469260        2.24239218238811
H           -4.00554805137200       -0.05553993603185       -0.66111466493736
H           -3.23795896778825        1.44450977293422       -1.18411907675773
H           -2.65715722864120       -0.10205389412901       -1.81715797922660
H            5.77391724091950       -1.00777321946295        0.69046415142163
H            4.61470546910315       -2.37376014619514        0.65049890250980
H            4.71741971783165       -1.33697227869535        2.09971313872073
H            3.84244381081522        1.10963488138017       -0.65280510580255
H           -1.17749696748836        2.30223495666642       -1.26097495326255

          :  Hamiltonian                  GFN1-xTB          :
         :: total energy             -57.873986131426 Eh    ::
         :: gradient norm              0.000404798304 Eh/a0 ::
         :: HOMO-LUMO gap              2.965981993342 eV    ::
         :: SCC energy               -58.455512275620 Eh    ::
         :: -> Gsolv                  -0.119174143928 Eh    ::
         :: repulsion energy           0.600871539158 Eh    ::

    * Orbital Energies and Occupations

         #    Occupation            Energy/Eh            Energy/eV
      -------------------------------------------------------------
         1        2.0000           -0.8855136             -24.0961
       ...           ...                  ...                  ...
        35        2.0000           -0.5595500             -15.2261
        36        2.0000           -0.5520288             -15.0215
        37        2.0000           -0.5480738             -14.9138
        38        2.0000           -0.5453048             -14.8385
        39        2.0000           -0.5331212             -14.5070
        40        2.0000           -0.5304050             -14.4331
        41        2.0000           -0.5231155             -14.2347
        42        2.0000           -0.5082933             -13.8314
        43        2.0000           -0.5048110             -13.7366
        44        2.0000           -0.4989409             -13.5769
        45        2.0000           -0.4809462             -13.0872
        46        2.0000           -0.4700354             -12.7903
        47        2.0000           -0.4486394             -12.2081 (HOMO)
        48                         -0.3396416              -9.2421 (LUMO)
        49                         -0.3059850              -8.3263
        50                         -0.2552523              -6.9458
        51                         -0.1806468              -4.9156
        52                         -0.1763026              -4.7974
        53                         -0.1700743              -4.6280
        54                         -0.1635908              -4.4515
        55                         -0.1448346              -3.9411
        56                         -0.1418413              -3.8597
        57                         -0.1368359              -3.7235
        58                         -0.1212584              -3.2996
       ...                                ...                  ...
       100                          0.7265940              19.7716
      -------------------------------------------------------------
                  HL-Gap            0.1089978 Eh            2.9660 eV

Wiberg/Mayer (AO) data.
largest (>0.10) Wiberg bond orders for each atom

     #   Z sym  total        # sym  WBO       # sym  WBO       # sym  WBO
 ---------------------------------------------------------------------------
     1   6 C    3.895 --    19 H    0.984    20 H    0.983    18 H    0.980
                             2 N    0.918
     2   7 N    3.603 --     1 C    0.918    22 H    0.892     3 C    0.890
                            21 H    0.874
     3   6 C    3.907 --     5 C    0.997     6 C    0.985     4 C    0.982
                             2 N    0.890
     4   6 C    3.981 --     3 C    0.982    25 H    0.981    24 H    0.979
                            23 H    0.978
     5   6 C    3.983 --     3 C    0.997    28 H    0.981    26 H    0.980
                            27 H    0.975
     6   6 C    3.943 --     7 N    1.587    17 N    1.187     3 C    0.985
     7   7 N    3.052 --     6 C    1.587     8 C    1.158
     8   6 C    3.957 --    13 C    1.505     7 N    1.158     9 C    1.002
     9   6 C    3.852 --    10 O    1.671    11 O    1.101     8 C    1.002
    10   8 O    1.934 --     9 C    1.671    11 O    0.133
    11   8 O    2.210 --     9 C    1.101    12 C    0.878    10 O    0.133
    12   6 C    3.854 --    29 H    0.986    30 H    0.980    31 H    0.979
                            11 O    0.878
    13   6 C    3.920 --     8 C    1.505    14 O    1.126    15 C    1.046
    14   8 O    2.105 --    13 C    1.126    32 H    0.794
    15   6 C    3.904 --    16 O    1.629    17 N    1.101    13 C    1.046
    16   8 O    1.923 --    15 C    1.629    17 N    0.132
    17   7 N    3.460 --     6 C    1.187    15 C    1.101    33 H    0.879
                            16 O    0.132
    18   1 H    0.989 --     1 C    0.980
    19   1 H    0.994 --     1 C    0.984
    20   1 H    1.001 --     1 C    0.983
    21   1 H    0.945 --     2 N    0.874
    22   1 H    0.917 --     2 N    0.892
    23   1 H    0.994 --     4 C    0.978
    24   1 H    0.992 --     4 C    0.979
    25   1 H    0.994 --     4 C    0.981
    26   1 H    0.992 --     5 C    0.980
    27   1 H    0.994 --     5 C    0.975
    28   1 H    0.996 --     5 C    0.981
    29   1 H    1.008 --    12 C    0.986
    30   1 H    1.005 --    12 C    0.980
    31   1 H    1.005 --    12 C    0.979
    32   1 H    0.846 --    14 O    0.794
    33   1 H    0.921 --    17 N    0.879
 ---------------------------------------------------------------------------

           -------------------------------------------------
          | TOTAL ENERGY              -57.873986131426 Eh   |
          | GRADIENT NORM               0.000404798304 Eh/α |
          | HOMO-LUMO GAP               2.965981993342 eV   |
           -------------------------------------------------

 * finished run on 2023/06/20 at 15:03:37.805
