                         Program Version 5.0.1 -  RELEASE  -
|  1> # ORCA input file
|  2> ! SP r2SCAN-3c CPCM
|  3>
|  4> %maxcore 1875.0
|  5> %pal nprocs 4 end
|  6> %cpcm smd true SMDsolvent "DMSO" end
|  7>
|  8> *xyz 1 1
|  9> C       4.117256   -0.221148   -0.029538
| 10> O       2.702665    0.049818   -0.049972
| 11> C       1.893976   -0.973088    0.063789
| 12> O       2.198194   -2.126377    0.187242
| 13> C       0.452851   -0.529996    0.018347
| 14> N      -0.596697   -1.288136    0.104477
| 15> N      -1.639828   -0.446397    0.001310
| 16> C      -2.988131   -0.971451    0.053882
| 17> C      -1.208501    0.790940   -0.145594
| 18> C      -1.973181    2.039079   -0.298358
| 19> O       0.107445    0.761097   -0.136528
| 20> H       4.388225   -0.671156    0.926667
| 21> H       4.608448    0.740083   -0.158886
| 22> H       4.369785   -0.901177   -0.844584
| 23> H      -3.100586   -1.538544    0.976526
| 24> H      -3.685104   -0.139475    0.027720
| 25> H      -3.138589   -1.624180   -0.805123
| 26> H      -2.552128    2.233895    0.606149
| 27> H      -2.671357    1.952492   -1.131690
| 28> H      -1.284742    2.863719   -0.474926
| 29> **                         ****END OF INPUT****

CARTESIAN COORDINATES (ANGSTROEM)
---------------------------------
  C      4.117256   -0.221148   -0.029538
  O      2.702665    0.049818   -0.049972
  C      1.893976   -0.973088    0.063789
  O      2.198194   -2.126377    0.187242
  C      0.452851   -0.529996    0.018347
  N     -0.596697   -1.288136    0.104477
  N     -1.639828   -0.446397    0.001310
  C     -2.988131   -0.971451    0.053882
  C     -1.208501    0.790940   -0.145594
  C     -1.973181    2.039079   -0.298358
  O      0.107445    0.761097   -0.136528
  H      4.388225   -0.671156    0.926667
  H      4.608448    0.740083   -0.158886
  H      4.369785   -0.901177   -0.844584
  H     -3.100586   -1.538544    0.976526
  H     -3.685104   -0.139475    0.027720
  H     -3.138589   -1.624180   -0.805123
  H     -2.552128    2.233895    0.606149
  H     -2.671357    1.952492   -1.131690
  H     -1.284742    2.863719   -0.474926

 Total Charge           Charge          ....    1
 Multiplicity           Mult            ....    1
 Number of Electrons    NEL             ....   82
 Basis Dimension        Dim             ....  279

ORBITAL ENERGIES
----------------

  NO   OCC          E(Eh)            E(eV)
   0   2.0000     -19.115868      -520.1692
   1   2.0000     -19.036853      -518.0191
   2   2.0000     -18.974983      -516.3355
   3   2.0000     -14.326035      -389.8312
   4   2.0000     -14.261192      -388.0668
   5   2.0000     -10.218266      -278.0532
   6   2.0000     -10.208893      -277.7981
   7   2.0000     -10.195801      -277.4419
   8   2.0000     -10.093520      -274.6586
   9   2.0000     -10.093243      -274.6511
  10   2.0000     -10.071006      -274.0460
  11   2.0000      -1.219894       -33.1950
  12   2.0000      -1.115732       -30.3606
  13   2.0000      -1.061913       -28.8961
  14   2.0000      -1.026347       -27.9283
  15   2.0000      -0.905969       -24.6527
  16   2.0000      -0.786597       -21.4044
  17   2.0000      -0.756624       -20.5888
  18   2.0000      -0.722982       -19.6733
  19   2.0000      -0.694386       -18.8952
  20   2.0000      -0.647116       -17.6089
  21   2.0000      -0.597481       -16.2583
  22   2.0000      -0.554473       -15.0880
  23   2.0000      -0.546429       -14.8691
  24   2.0000      -0.509830       -13.8732
  25   2.0000      -0.481073       -13.0907
  26   2.0000      -0.477920       -13.0049
  27   2.0000      -0.465333       -12.6624
  28   2.0000      -0.451094       -12.2749
  29   2.0000      -0.449721       -12.2375
  30   2.0000      -0.418471       -11.3872
  31   2.0000      -0.415626       -11.3098
  32   2.0000      -0.406740       -11.0679
  33   2.0000      -0.398436       -10.8420
  34   2.0000      -0.392491       -10.6802
  35   2.0000      -0.370166       -10.0727
  36   2.0000      -0.349888        -9.5209
  37   2.0000      -0.345286        -9.3957
  38   2.0000      -0.307591        -8.3700
  39   2.0000      -0.306391        -8.3373
  40   2.0000      -0.289003        -7.8642
  41   0.0000      -0.123936        -3.3725
  42   0.0000      -0.088971        -2.4210
  43   0.0000       0.015941         0.4338
  44   0.0000       0.035829         0.9750
  45   0.0000       0.053437         1.4541

MULLIKEN ATOMIC CHARGES
-----------------------
   0 C :   -0.289586
   1 O :   -0.175302
   2 C :    0.085969
   3 O :   -0.375338
   4 C :    0.456776
   5 N :   -0.354316
   6 N :    0.439638
   7 C :   -0.385308
   8 C :    0.285672
   9 C :   -0.612665
  10 O :    0.023036
  11 H :    0.189469
  12 H :    0.190688
  13 H :    0.189140
  14 H :    0.214925
  15 H :    0.210196
  16 H :    0.215965
  17 H :    0.237563
  18 H :    0.232785
  19 H :    0.220692
Sum of atomic charges:    1.0000000

LOEWDIN ATOMIC CHARGES
----------------------
   0 C :   -0.016752
   1 O :   -0.540948
   2 C :    0.406746
   3 O :   -0.358278
   4 C :    0.467883
   5 N :   -0.185108
   6 N :   -0.502138
   7 C :   -0.016557
   8 C :    0.486480
   9 C :   -0.291733
  10 O :   -0.309125
  11 H :    0.190987
  12 H :    0.195180
  13 H :    0.191222
  14 H :    0.217549
  15 H :    0.216351
  16 H :    0.216730
  17 H :    0.214579
  18 H :    0.212590
  19 H :    0.204342

  Mayer bond orders larger than 0.100000
B(  0-C ,  1-O ) :   0.8183 B(  0-C , 11-H ) :   0.9472 B(  0-C , 12-H ) :   0.9566
B(  0-C , 13-H ) :   0.9478 B(  1-O ,  2-C ) :   1.1691 B(  2-C ,  3-O ) :   1.8956
B(  2-C ,  4-C ) :   0.9043 B(  4-C ,  5-N ) :   1.6258 B(  4-C , 10-O ) :   1.0766
B(  5-N ,  6-N ) :   1.3155 B(  5-N ,  8-C ) :   0.1615 B(  6-N ,  7-C ) :   0.9216
B(  6-N ,  8-C ) :   1.4668 B(  7-C , 14-H ) :   0.9204 B(  7-C , 15-H ) :   0.9334
B(  7-C , 16-H ) :   0.9172 B(  8-C ,  9-C ) :   0.8743 B(  8-C , 10-O ) :   1.1563
B(  9-C , 17-H ) :   0.9200 B(  9-C , 18-H ) :   0.9287 B(  9-C , 19-H ) :   0.9555

Dispersion correction           -0.005855969
FINAL SINGLE POINT ENERGY      -568.946523470416

DIPOLE MOMENT
-------------
                                X             Y             Z
Electronic contribution:      2.40400      -2.61628       0.36709
Nuclear contribution   :     -5.47801       4.91236      -0.63695
                        -----------------------------------------
Total Dipole Moment    :     -3.07401       2.29608      -0.26987
                        -----------------------------------------
Magnitude (a.u.)       :      3.84634
Magnitude (Debye)      :      9.77663

Rotational constants in cm-1:     0.087590     0.021719     0.017577
Rotational constants in MHz :  2625.889146   651.123440   526.957292

                             ****ORCA TERMINATED NORMALLY****
TOTAL RUN TIME: 0 days 0 hours 0 minutes 30 seconds 736 msec
