   * xtb version 6.5.1 (579679a) compiled by 'ehlert@majestix' on 2022-07-11
          program call               : /lustre/hpc/kemi/ree/PhD/git/ReactivityQM/dep/xtb-6.5.1/bin/xtb --gfn 1 /lustre/hpc/kemi/ree/PhD/git/ReactivityQM/calculations/R01/reac01prodN04/conf01/R01_reac01prodN04_conf01_gfn1.xyz --opt --vfukui --chrg 1 --uhf 0 --alpb DMSO

   ID    Z sym.   atoms
    1    6 C      1, 3, 5, 8-10
    2    8 O      2, 4, 11
    3    7 N      6, 7
    4    1 H      12-20

      * Solvation model:               ALPB
        Solvent                        DMSO
        Solvent mass                       7.8130E+01 g/mol
          :  Hamiltonian                  GFN1-xTB          :
 * total energy  :   -37.6284166 Eh     change       -0.7794654E-11 Eh
 * total energy  :   -37.6404922 Eh     change       -0.1207557E-01 Eh
 * total energy  :   -37.6440536 Eh     change       -0.3561476E-02 Eh
 * total energy  :   -37.6447139 Eh     change       -0.6602337E-03 Eh
 * total energy  :   -37.6451871 Eh     change       -0.4732511E-03 Eh
 * total energy  :   -37.6453524 Eh     change       -0.1652794E-03 Eh
 * total energy  :   -37.6455095 Eh     change       -0.1571318E-03 Eh
 * total energy  :   -37.6456467 Eh     change       -0.1371615E-03 Eh
 * total energy  :   -37.6457215 Eh     change       -0.7482780E-04 Eh
 * total energy  :   -37.6457656 Eh     change       -0.4410287E-04 Eh
 * total energy  :   -37.6457780 Eh     change       -0.1234397E-04 Eh
 * total energy  :   -37.6457833 Eh     change       -0.5343154E-05 Eh
 * total energy  :   -37.6457849 Eh     change       -0.1608944E-05 Eh
   *** GEOMETRY OPTIMIZATION CONVERGED AFTER 13 ITERATIONS ***

 final structure:
================
20
 xtb: 6.5.1 (579679a)
C            4.11725638836070       -0.22114782220580       -0.02953788161824
O            2.70266489789239        0.04981796170775       -0.04997218395809
C            1.89397611672667       -0.97308753514638        0.06378935409359
O            2.19819377163030       -2.12637696572907        0.18724152846308
C            0.45285104263955       -0.52999550266357        0.01834745830072
N           -0.59669729114179       -1.28813590516422        0.10447730944282
N           -1.63982793464483       -0.44639665375707        0.00131041904260
C           -2.98813128487297       -0.97145117711437        0.05388211395277
C           -1.20850122994957        0.79094034122716       -0.14559395189263
C           -1.97318060239529        2.03907942080047       -0.29835804604045
O            0.10744459805406        0.76109721590340       -0.13652788831735
H            4.38822541828996       -0.67115594918135        0.92666747532771
H            4.60844775208215        0.74008342817444       -0.15888605141876
H            4.36978521703513       -0.90117725963425       -0.84458372577453
H           -3.10058610298037       -1.53854412136872        0.97652603544074
H           -3.68510352649447       -0.13947493889104        0.02771957556156
H           -3.13858943759386       -1.62417950316934       -0.80512293933508
H           -2.55212814079165        2.23389495827995        0.60614885667725
H           -2.67135668677473        1.95249172907282       -1.13168990921327
H           -1.28474196507133        2.86371927885919       -0.47492554873460

          :  Hamiltonian                  GFN1-xTB          :
         :: total energy             -37.645784924022 Eh    ::
         :: gradient norm              0.000354972341 Eh/a0 ::
         :: HOMO-LUMO gap              4.092267211258 eV    ::
         :: SCC energy               -38.000890951827 Eh    ::
         :: -> Gsolv                  -0.086171598575 Eh    ::
         :: repulsion energy           0.363132087082 Eh    ::

    * Orbital Energies and Occupations

         #    Occupation            Energy/Eh            Energy/eV
      -------------------------------------------------------------
         1        2.0000           -0.9448687             -25.7112
       ...           ...                  ...                  ...
        18        2.0000           -0.6257866             -17.0285
        19        2.0000           -0.6135892             -16.6966
        20        2.0000           -0.6010577             -16.3556
        21        2.0000           -0.5948389             -16.1864
        22        2.0000           -0.5930662             -16.1382
        23        2.0000           -0.5804761             -15.7956
        24        2.0000           -0.5764700             -15.6865
        25        2.0000           -0.5654119             -15.3856
        26        2.0000           -0.5525013             -15.0343
        27        2.0000           -0.5397362             -14.6870
        28        2.0000           -0.5293829             -14.4052
        29        2.0000           -0.5250738             -14.2880
        30        2.0000           -0.5228628             -14.2278 (HOMO)
        31                         -0.3724748             -10.1356 (LUMO)
        32                         -0.3502602              -9.5311
        33                         -0.2566798              -6.9846
        34                         -0.1875593              -5.1037
        35                         -0.1757748              -4.7831
        36                         -0.1533285              -4.1723
        37                         -0.1202197              -3.2713
        38                         -0.1154686              -3.1421
        39                         -0.1076287              -2.9287
        40                         -0.0935987              -2.5469
        41                         -0.0891729              -2.4265
       ...                                ...                  ...
        62                          0.7355032              20.0141
      -------------------------------------------------------------
                  HL-Gap            0.1503881 Eh            4.0923 eV

Wiberg/Mayer (AO) data.
largest (>0.10) Wiberg bond orders for each atom

     #   Z sym  total        # sym  WBO       # sym  WBO       # sym  WBO
 ---------------------------------------------------------------------------
     1   6 C    3.837 --    13 H    0.984    14 H    0.977    12 H    0.977
                             2 O    0.865
     2   8 O    2.245 --     3 C    1.175     1 C    0.865     4 O    0.158
     3   6 C    3.878 --     4 O    1.692     2 O    1.175     5 C    0.945
     4   8 O    1.970 --     3 C    1.692     2 O    0.158
     5   6 C    3.854 --     6 N    1.622    11 O    1.064     3 C    0.945
     6   7 N    2.991 --     5 C    1.622     7 N    1.158
     7   7 N    3.631 --     9 C    1.417     6 N    1.158     8 C    0.908
     8   6 C    3.881 --    16 H    0.981    15 H    0.967    17 H    0.965
                             7 N    0.908
     9   6 C    3.838 --     7 N    1.417    11 O    1.155    10 C    1.041
    10   6 C    3.958 --     9 C    1.041    20 H    0.971    19 H    0.947
                            18 H    0.941
    11   8 O    2.388 --     9 C    1.155     5 C    1.064
    12   1 H    1.000 --     1 C    0.977
    13   1 H    1.005 --     1 C    0.984
    14   1 H    1.000 --     1 C    0.977
    15   1 H    0.989 --     8 C    0.967
    16   1 H    0.989 --     8 C    0.981
    17   1 H    0.989 --     8 C    0.965
    18   1 H    0.984 --    10 C    0.941
    19   1 H    0.985 --    10 C    0.947
    20   1 H    0.985 --    10 C    0.971
 ---------------------------------------------------------------------------

           -------------------------------------------------
          | TOTAL ENERGY              -37.645784924022 Eh   |
          | GRADIENT NORM               0.000354972341 Eh/α |
          | HOMO-LUMO GAP               4.092267211258 eV   |
           -------------------------------------------------

 * finished run on 2023/06/20 at 14:55:33.486
