                         Program Version 5.0.1 -  RELEASE  -
|  1> # ORCA input file
|  2> ! SP r2SCAN-3c CPCM
|  3>
|  4> %maxcore 1875.0
|  5> %pal nprocs 4 end
|  6> %cpcm smd true SMDsolvent "DMSO" end
|  7>
|  8> *xyz 1 1
|  9> C      -3.065069   -2.010421   -0.478831
| 10> C      -2.583324   -0.687908   -1.100656
| 11> C      -1.498731   -0.978763   -2.152471
| 12> N      -3.710750   -0.014442   -1.725740
| 13> C      -1.948118    0.124937    0.014608
| 14> N      -0.790596   -0.217979    0.398870
| 15> C      -0.105820    0.378472    1.432186
| 16> C       1.269257   -0.106143    1.728311
| 17> O       1.928775    0.402008    2.639719
| 18> N       1.696907   -1.104449    0.956747
| 19> C       3.047059   -1.651057    1.076145
| 20> C       3.971207   -0.974873    0.086421
| 21> C       4.353596    0.350348    0.289703
| 22> C       5.182236    0.990653   -0.619568
| 23> C       5.616674    0.280510   -1.725371
| 24> F       6.416708    0.894145   -2.609777
| 25> C       5.258045   -1.035256   -1.955515
| 26> C       4.424777   -1.660162   -1.037211
| 27> C      -0.661853    1.372003    2.187194
| 28> O      -0.054222    1.943230    3.214951
| 29> C      -2.004768    1.857865    1.903268
| 30> O      -2.624741    2.683937    2.499005
| 31> N      -2.664749    1.265671    0.658109
| 32> C      -4.053384    0.882365    1.055068
| 33> C      -2.691761    2.410886   -0.308596
| 34> H      -2.244414   -2.495172    0.047356
| 35> H      -3.417365   -2.667951   -1.271759
| 36> H      -3.880405   -1.831834    0.219729
| 37> H      -1.935047   -1.562627   -2.960684
| 38> H      -1.109287   -0.045415   -2.555671
| 39> H      -0.680978   -1.540643   -1.704931
| 40> H      -3.401943    0.475010   -2.555473
| 41> H      -4.394400   -0.698895   -2.019248
| 42> H       1.107973   -1.424964    0.204604
| 43> H       3.383160   -1.475935    2.102689
| 44> H       2.991658   -2.725049    0.887905
| 45> H       3.997164    0.884626    1.162495
| 46> H       5.483788    2.020536   -0.477638
| 47> H       5.616737   -1.556624   -2.833688
| 48> H       4.125969   -2.688702   -1.200369
| 49> H       0.857053    1.525706    3.298388
| 50> H      -4.512868    1.743737    1.535237
| 51> H      -3.992348    0.045051    1.745634
| 52> H      -4.598678    0.611336    0.156186
| 53> H      -3.307891    2.124551   -1.153322
| 54> H      -3.123147    3.269884    0.201381
| 55> H      -1.672092    2.617802   -0.623982
| 56> **                         ****END OF INPUT****

CARTESIAN COORDINATES (ANGSTROEM)
---------------------------------
  C     -3.065069   -2.010421   -0.478831
  C     -2.583324   -0.687908   -1.100656
  C     -1.498731   -0.978763   -2.152471
  N     -3.710750   -0.014442   -1.725740
  C     -1.948118    0.124937    0.014608
  N     -0.790596   -0.217979    0.398870
  C     -0.105820    0.378472    1.432186
  C      1.269257   -0.106143    1.728311
  O      1.928775    0.402008    2.639719
  N      1.696907   -1.104449    0.956747
  C      3.047059   -1.651057    1.076145
  C      3.971207   -0.974873    0.086421
  C      4.353596    0.350348    0.289703
  C      5.182236    0.990653   -0.619568
  C      5.616674    0.280510   -1.725371
  F      6.416708    0.894145   -2.609777
  C      5.258045   -1.035256   -1.955515
  C      4.424777   -1.660162   -1.037211
  C     -0.661853    1.372003    2.187194
  O     -0.054222    1.943230    3.214951
  C     -2.004768    1.857865    1.903268
  O     -2.624741    2.683937    2.499005
  N     -2.664749    1.265671    0.658109
  C     -4.053384    0.882365    1.055068
  C     -2.691761    2.410886   -0.308596
  H     -2.244414   -2.495172    0.047356
  H     -3.417365   -2.667951   -1.271759
  H     -3.880405   -1.831834    0.219729
  H     -1.935047   -1.562627   -2.960684
  H     -1.109287   -0.045415   -2.555671
  H     -0.680978   -1.540643   -1.704931
  H     -3.401943    0.475010   -2.555473
  H     -4.394400   -0.698895   -2.019248
  H      1.107973   -1.424964    0.204604
  H      3.383160   -1.475935    2.102689
  H      2.991658   -2.725049    0.887905
  H      3.997164    0.884626    1.162495
  H      5.483788    2.020536   -0.477638
  H      5.616737   -1.556624   -2.833688
  H      4.125969   -2.688702   -1.200369
  H      0.857053    1.525706    3.298388
  H     -4.512868    1.743737    1.535237
  H     -3.992348    0.045051    1.745634
  H     -4.598678    0.611336    0.156186
  H     -3.307891    2.124551   -1.153322
  H     -3.123147    3.269884    0.201381
  H     -1.672092    2.617802   -0.623982

 Total Charge           Charge          ....    1
 Multiplicity           Mult            ....    1
 Number of Electrons    NEL             ....  184
 Basis Dimension        Dim             ....  625

ORBITAL ENERGIES
----------------

  NO   OCC          E(Eh)            E(eV)
   0   2.0000     -24.505533      -666.8295
   1   2.0000     -19.007696      -517.2257
   2   2.0000     -19.001768      -517.0644
   3   2.0000     -18.951262      -515.6900
   4   2.0000     -14.316644      -389.5757
   5   2.0000     -14.207404      -386.6031
   6   2.0000     -14.202739      -386.4762
   7   2.0000     -14.147182      -384.9644
   8   2.0000     -10.199731      -277.5488
   9   2.0000     -10.159172      -276.4451
  10   2.0000     -10.154789      -276.3259
  11   2.0000     -10.149585      -276.1842
  12   2.0000     -10.122600      -275.4500
  13   2.0000     -10.116363      -275.2802
  14   2.0000     -10.101072      -274.8642
  15   2.0000     -10.087958      -274.5073
  16   2.0000     -10.079281      -274.2712
  17   2.0000     -10.077727      -274.2289
  18   2.0000     -10.050526      -273.4887
  19   2.0000     -10.045887      -273.3625
  20   2.0000     -10.045287      -273.3462
  21   2.0000     -10.044480      -273.3242
  22   2.0000     -10.044120      -273.3144
  23   2.0000     -10.028724      -272.8955
  24   2.0000     -10.022578      -272.7282
  25   2.0000      -1.197327       -32.5809
  26   2.0000      -1.095182       -29.8014
  27   2.0000      -1.063718       -28.9452
  28   2.0000      -1.031776       -28.0761
  29   2.0000      -1.012129       -27.5414
  30   2.0000      -0.941083       -25.6082
  31   2.0000      -0.914111       -24.8742
  32   2.0000      -0.880363       -23.9559
  33   2.0000      -0.838986       -22.8300
  34   2.0000      -0.794089       -21.6083
  35   2.0000      -0.751635       -20.4530
  36   2.0000      -0.735889       -20.0246
  37   2.0000      -0.730861       -19.8877
  38   2.0000      -0.727241       -19.7892
  39   2.0000      -0.714899       -19.4534
  40   2.0000      -0.673935       -18.3387
  41   2.0000      -0.665064       -18.0973
  42   2.0000      -0.655139       -17.8272
  43   2.0000      -0.647136       -17.6095
  44   2.0000      -0.599320       -16.3083
  45   2.0000      -0.588538       -16.0149
  46   2.0000      -0.582978       -15.8636
  47   2.0000      -0.567434       -15.4407
  48   2.0000      -0.558677       -15.2024
  49   2.0000      -0.545921       -14.8553
  50   2.0000      -0.523725       -14.2513
  51   2.0000      -0.518552       -14.1105
  52   2.0000      -0.496788       -13.5183
  53   2.0000      -0.494896       -13.4668
  54   2.0000      -0.471578       -12.8323
  55   2.0000      -0.469310       -12.7706
  56   2.0000      -0.467423       -12.7192
  57   2.0000      -0.458476       -12.4758
  58   2.0000      -0.453158       -12.3311
  59   2.0000      -0.448833       -12.2134
  60   2.0000      -0.440150       -11.9771
  61   2.0000      -0.438317       -11.9272
  62   2.0000      -0.431356       -11.7378
  63   2.0000      -0.426579       -11.6078
  64   2.0000      -0.415988       -11.3196
  65   2.0000      -0.413486       -11.2515
  66   2.0000      -0.404673       -11.0117
  67   2.0000      -0.401905       -10.9364
  68   2.0000      -0.397162       -10.8073
  69   2.0000      -0.389747       -10.6056
  70   2.0000      -0.384923       -10.4743
  71   2.0000      -0.384105       -10.4520
  72   2.0000      -0.380531       -10.3548
  73   2.0000      -0.376708       -10.2507
  74   2.0000      -0.368886       -10.0379
  75   2.0000      -0.361428        -9.8350
  76   2.0000      -0.353619        -9.6225
  77   2.0000      -0.352669        -9.5966
  78   2.0000      -0.351114        -9.5543
  79   2.0000      -0.347838        -9.4652
  80   2.0000      -0.345249        -9.3947
  81   2.0000      -0.338288        -9.2053
  82   2.0000      -0.320221        -8.7137
  83   2.0000      -0.315495        -8.5851
  84   2.0000      -0.300720        -8.1830
  85   2.0000      -0.289672        -7.8824
  86   2.0000      -0.261287        -7.1100
  87   2.0000      -0.255403        -6.9499
  88   2.0000      -0.250677        -6.8213
  89   2.0000      -0.239759        -6.5242
  90   2.0000      -0.228422        -6.2157
  91   2.0000      -0.223463        -6.0807
  92   0.0000      -0.148957        -4.0533
  93   0.0000      -0.071284        -1.9397
  94   0.0000      -0.046878        -1.2756
  95   0.0000      -0.036870        -1.0033
  96   0.0000      -0.019853        -0.5402

MULLIKEN ATOMIC CHARGES
-----------------------
   0 C :   -0.581608
   1 C :    0.156629
   2 C :   -0.554263
   3 N :   -0.687354
   4 C :    0.285145
   5 N :   -0.113145
   6 C :    0.167164
   7 C :    0.112154
   8 O :   -0.547456
   9 N :   -0.079834
  10 C :   -0.362040
  11 C :    0.109093
  12 C :   -0.165351
  13 C :   -0.317926
  14 C :    0.360992
  15 F :   -0.233649
  16 C :   -0.282623
  17 C :   -0.207177
  18 C :    0.075530
  19 O :   -0.359376
  20 C :    0.250996
  21 O :   -0.316063
  22 N :   -0.030513
  23 C :   -0.378216
  24 C :   -0.311084
  25 H :    0.192386
  26 H :    0.190784
  27 H :    0.192667
  28 H :    0.184893
  29 H :    0.184582
  30 H :    0.179993
  31 H :    0.311082
  32 H :    0.312130
  33 H :    0.312231
  34 H :    0.210654
  35 H :    0.189301
  36 H :    0.196330
  37 H :    0.198075
  38 H :    0.197750
  39 H :    0.188873
  40 H :    0.403286
  41 H :    0.213358
  42 H :    0.226933
  43 H :    0.247356
  44 H :    0.232462
  45 H :    0.218473
  46 H :    0.226376
Sum of atomic charges:    1.0000000

LOEWDIN ATOMIC CHARGES
----------------------
   0 C :   -0.340033
   1 C :    0.065258
   2 C :   -0.349254
   3 N :   -0.707892
   4 C :    0.391945
   5 N :   -0.534182
   6 C :    0.232031
   7 C :    0.374270
   8 O :   -0.520866
   9 N :   -0.561916
  10 C :    0.009332
  11 C :   -0.079296
  12 C :   -0.137193
  13 C :   -0.155694
  14 C :    0.202529
  15 F :   -0.294019
  16 C :   -0.157958
  17 C :   -0.142207
  18 C :    0.277278
  19 O :   -0.434163
  20 C :    0.435318
  21 O :   -0.326546
  22 N :   -0.819224
  23 C :   -0.063465
  24 C :   -0.047447
  25 H :    0.176131
  26 H :    0.174110
  27 H :    0.174630
  28 H :    0.170358
  29 H :    0.172138
  30 H :    0.174278
  31 H :    0.258122
  32 H :    0.260759
  33 H :    0.301150
  34 H :    0.214377
  35 H :    0.205476
  36 H :    0.193238
  37 H :    0.194891
  38 H :    0.194918
  39 H :    0.187990
  40 H :    0.326226
  41 H :    0.216339
  42 H :    0.210066
  43 H :    0.225963
  44 H :    0.222647
  45 H :    0.215654
  46 H :    0.213931

  Mayer bond orders larger than 0.100000
B(  0-C ,  1-C ) :   0.9229 B(  0-C , 25-H ) :   0.9699 B(  0-C , 26-H ) :   0.9560
B(  0-C , 27-H ) :   0.9518 B(  1-C ,  2-C ) :   0.9458 B(  1-C ,  3-N ) :   0.8611
B(  1-C ,  4-C ) :   0.8821 B(  2-C , 28-H ) :   0.9669 B(  2-C , 29-H ) :   0.9621
B(  2-C , 30-H ) :   0.9687 B(  3-N ,  4-C ) :  -0.1061 B(  3-N , 31-H ) :   0.8945
B(  3-N , 32-H ) :   0.9026 B(  4-C ,  5-N ) :   1.6415 B(  4-C , 22-N ) :   0.9668
B(  5-N ,  6-C ) :   0.9538 B(  6-C ,  7-C ) :   0.9876 B(  6-C , 18-C ) :   1.3209
B(  7-C ,  8-O ) :   1.6349 B(  7-C ,  9-N ) :   1.3189 B(  8-O , 40-H ) :   0.1196
B(  9-N , 10-C ) :   0.8253 B(  9-N , 33-H ) :   0.8821 B( 10-C , 11-C ) :   0.8612
B( 10-C , 34-H ) :   0.9679 B( 10-C , 35-H ) :   0.9697 B( 11-C , 12-C ) :   1.3739
B( 11-C , 17-C ) :   1.4098 B( 12-C , 13-C ) :   1.3824 B( 12-C , 36-H ) :   0.9397
B( 13-C , 14-C ) :   1.3844 B( 13-C , 37-H ) :   0.9336 B( 14-C , 15-F ) :   0.8853
B( 14-C , 16-C ) :   1.4076 B( 16-C , 17-C ) :   1.3597 B( 16-C , 38-H ) :   0.9338
B( 17-C , 39-H ) :   0.9455 B( 18-C , 19-O ) :   1.1602 B( 18-C , 20-C ) :   1.0485
B( 19-O , 20-C ) :   0.1116 B( 19-O , 40-H ) :   0.7122 B( 20-C , 21-O ) :   2.0541
B( 20-C , 22-N ) :   0.7499 B( 22-N , 23-C ) :   0.8748 B( 22-N , 24-C ) :   0.8840
B( 23-C , 41-H ) :   0.9177 B( 23-C , 42-H ) :   0.9332 B( 23-C , 43-H ) :   0.9050
B( 24-C , 44-H ) :   0.9098 B( 24-C , 45-H ) :   0.9129 B( 24-C , 46-H ) :   0.9278

Dispersion correction           -0.022068053
FINAL SINGLE POINT ENERGY     -1205.200619756126

DIPOLE MOMENT
-------------
                                X             Y             Z
Electronic contribution:     24.89667       9.33400       7.66559
Nuclear contribution   :    -30.69675     -10.65852      -9.58140
                        -----------------------------------------
Total Dipole Moment    :     -5.80008      -1.32452      -1.91581
                        -----------------------------------------
Magnitude (a.u.)       :      6.25025
Magnitude (Debye)      :     15.88688

Rotational constants in cm-1:     0.011812     0.003783     0.003350
Rotational constants in MHz :   354.122048   113.426227   100.440138

                             ****ORCA TERMINATED NORMALLY****
TOTAL RUN TIME: 0 days 0 hours 2 minutes 43 seconds 939 msec
