   * xtb version 6.5.1 (579679a) compiled by 'ehlert@majestix' on 2022-07-11
          program call               : /lustre/hpc/kemi/ree/PhD/git/ReactivityQM/dep/xtb-6.5.1/bin/xtb --gfn 1 /lustre/hpc/kemi/ree/PhD/git/ReactivityQM/calculations/RaltegravirCLI/reac02prodN14/conf10/RaltegravirCLI_reac02prodN14_conf10_gfn1.xyz --opt --vfukui --chrg 1 --uhf 0 --alpb DMSO

   ID    Z sym.   atoms
    1    6 C      1-3, 5, 7, 8, 11-15, 17-19, 21, 24, 25
    2    7 N      4, 6, 10, 23
    3    8 O      9, 20, 22
    4    9 F      16
    5    1 H      26-47

      * Solvation model:               ALPB
        Solvent                        DMSO
        Solvent mass                       7.8130E+01 g/mol
          :  Hamiltonian                  GFN1-xTB          :
 * total energy  :   -79.4692622 Eh     change       -0.2061995E-10 Eh
 * total energy  :   -79.4815945 Eh     change       -0.1233226E-01 Eh
 * total energy  :   -79.4858838 Eh     change       -0.4289363E-02 Eh
 * total energy  :   -79.4867033 Eh     change       -0.8194526E-03 Eh
 * total energy  :   -79.4872506 Eh     change       -0.5472827E-03 Eh
 * total energy  :   -79.4874835 Eh     change       -0.2329412E-03 Eh
 * total energy  :   -79.4876599 Eh     change       -0.1763952E-03 Eh
 * total energy  :   -79.4877933 Eh     change       -0.1334575E-03 Eh
 * total energy  :   -79.4878890 Eh     change       -0.9567418E-04 Eh
 * total energy  :   -79.4879714 Eh     change       -0.8240655E-04 Eh
 * total energy  :   -79.4887786 Eh     change       -0.4165162E-04 Eh
 * total energy  :   -79.4888291 Eh     change       -0.5049119E-04 Eh
 * total energy  :   -79.4888665 Eh     change       -0.3749384E-04 Eh
 * total energy  :   -79.4888932 Eh     change       -0.2666956E-04 Eh
 * total energy  :   -79.4889369 Eh     change       -0.4365264E-04 Eh
 * total energy  :   -79.4889675 Eh     change       -0.3064877E-04 Eh
 * total energy  :   -79.4889754 Eh     change       -0.7852811E-05 Eh
 * total energy  :   -79.4889841 Eh     change       -0.8739943E-05 Eh
 * total energy  :   -79.4889887 Eh     change       -0.4619239E-05 Eh
   *** GEOMETRY OPTIMIZATION CONVERGED AFTER 38 ITERATIONS ***

 final structure:
================
47
 xtb: 6.5.1 (579679a)
C           -3.06506852439251       -2.01042129878380       -0.47883113830327
C           -2.58332431251282       -0.68790767373675       -1.10065560955517
C           -1.49873055245885       -0.97876332164236       -2.15247081878065
N           -3.71074974617216       -0.01444227318595       -1.72573984350830
C           -1.94811822891223        0.12493651348292        0.01460761695869
N           -0.79059575164162       -0.21797908711635        0.39886959402607
C           -0.10582019597793        0.37847185152207        1.43218599771034
C            1.26925697963445       -0.10614296271158        1.72831145981229
O            1.92877452130488        0.40200791004259        2.63971869781697
N            1.69690716501213       -1.10444874357060        0.95674746897585
C            3.04705893098736       -1.65105672496192        1.07614535627051
C            3.97120717044386       -0.97487297549449        0.08642119996406
C            4.35359616623216        0.35034811219731        0.28970318011933
C            5.18223636365332        0.99065343490012       -0.61956786350130
C            5.61667363775007        0.28051001318019       -1.72537134208660
F            6.41670750246386        0.89414460550631       -2.60977712822411
C            5.25804528130975       -1.03525625839766       -1.95551476249141
C            4.42477661906066       -1.66016205093662       -1.03721070317891
C           -0.66185287137044        1.37200331397319        2.18719417701139
O           -0.05422205756735        1.94323031509958        3.21495073737769
C           -2.00476790261691        1.85786476231972        1.90326820739357
O           -2.62474086597804        2.68393711932826        2.49900461713130
N           -2.66474860066996        1.26567079997792        0.65810895136302
C           -4.05338361476934        0.88236466603556        1.05506767905480
C           -2.69176086066133        2.41088565164993       -0.30859611450029
H           -2.24441360382652       -2.49517222716251        0.04735576283117
H           -3.41736486370512       -2.66795060524412       -1.27175885760689
H           -3.88040459961394       -1.83183365202119        0.21972882051490
H           -1.93504734498214       -1.56262733301282       -2.96068401390474
H           -1.10928652835855       -0.04541468681342       -2.55567111031322
H           -0.68097764941022       -1.54064317632178       -1.70493052184461
H           -3.40194264481638        0.47500994405231       -2.55547310957262
H           -4.39440030962734       -0.69889451563685       -2.01924774008558
H            1.10797304765121       -1.42496394237261        0.20460434732424
H            3.38316012423329       -1.47593480180181        2.10268922442540
H            2.99165845191588       -2.72504856641910        0.88790538150611
H            3.99716434261117        0.88462561856014        1.16249464009501
H            5.48378808008807        2.02053645167428       -0.47763775523887
H            5.61673680362610       -1.55662402005256       -2.83368821716306
H            4.12596916931838       -2.68870208428047       -1.20036932852324
H            0.85705258496715        1.52570569122038        3.29838797742240
H           -4.51286770355232        1.74373738504126        1.53523744388842
H           -3.99234778446765        0.04505053625450        1.74563376074282
H           -4.59867807108552        0.61133605037474        0.15618586698790
H           -3.30789084560676        2.12455119860084       -1.15332228850758
H           -3.12314654256244        3.26988358536676        0.20138094417268
H           -1.67209236495939        2.61780245132082       -0.62398184400695

          :  Hamiltonian                  GFN1-xTB          :
         :: total energy             -79.488988732616 Eh    ::
         :: gradient norm              0.000654767959 Eh/a0 ::
         :: HOMO-LUMO gap              1.361203493582 eV    ::
         :: SCC energy               -80.383241100602 Eh    ::
         :: -> Gsolv                  -0.109860965535 Eh    ::
         :: repulsion energy           0.926086002419 Eh    ::

    * Orbital Energies and Occupations

         #    Occupation            Energy/Eh            Energy/eV
      -------------------------------------------------------------
         1        2.0000           -0.8899126             -24.2158
       ...           ...                  ...                  ...
        55        2.0000           -0.5196363             -14.1400
        56        2.0000           -0.5174563             -14.0807
        57        2.0000           -0.5149580             -14.0127
        58        2.0000           -0.5104022             -13.8887
        59        2.0000           -0.5077687             -13.8171
        60        2.0000           -0.4958266             -13.4921
        61        2.0000           -0.4785910             -13.0231
        62        2.0000           -0.4732274             -12.8772
        63        2.0000           -0.4696036             -12.7786
        64        2.0000           -0.4596581             -12.5079
        65        2.0000           -0.4566381             -12.4258
        66        2.0000           -0.4430460             -12.0559
        67        2.0000           -0.4381602             -11.9229 (HOMO)
        68                         -0.3881368             -10.5617 (LUMO)
        69                         -0.3220669              -8.7639
        70                         -0.2815753              -7.6621
        71                         -0.2785808              -7.5806
        72                         -0.2722569              -7.4085
        73                         -0.2000937              -5.4448
        74                         -0.1630487              -4.4368
        75                         -0.1574807              -4.2853
        76                         -0.1519175              -4.1339
        77                         -0.1413392              -3.8460
        78                         -0.1380758              -3.7572
       ...                                ...                  ...
       144                          0.7205652              19.6076
      -------------------------------------------------------------
                  HL-Gap            0.0500233 Eh            1.3612 eV

Wiberg/Mayer (AO) data.
largest (>0.10) Wiberg bond orders for each atom

     #   Z sym  total        # sym  WBO       # sym  WBO       # sym  WBO
 ---------------------------------------------------------------------------
     1   6 C    3.986 --    26 H    0.984    28 H    0.983    27 H    0.978
                             2 C    0.966
     2   6 C    3.959 --     4 N    0.994     5 C    0.983     3 C    0.975
                             1 C    0.966
     3   6 C    3.988 --    30 H    0.984    29 H    0.982    31 H    0.982
                             2 C    0.975
     4   7 N    2.998 --     2 C    0.994    32 H    0.931    33 H    0.928
     5   6 C    3.889 --     6 N    1.756     2 C    0.983    23 N    0.879
     6   7 N    3.094 --     5 C    1.756     7 C    1.122
     7   6 C    3.958 --    19 C    1.499     6 N    1.122     8 C    1.008
                            20 O    0.109
     8   6 C    3.917 --     9 O    1.511    10 N    1.318     7 C    1.008
     9   8 O    1.932 --     8 C    1.511    10 N    0.175
    10   7 N    3.399 --     8 C    1.318    11 C    0.928    34 H    0.892
                             9 O    0.175
    11   6 C    3.931 --    12 C    0.991    36 H    0.975    35 H    0.967
                            10 N    0.928
    12   6 C    3.984 --    18 C    1.423    13 C    1.414    11 C    0.991
    13   6 C    3.992 --    14 C    1.449    12 C    1.414    37 H    0.969
                            17 C    0.111
    14   6 C    3.992 --    13 C    1.449    15 C    1.396    38 H    0.969
                            18 C    0.109
    15   6 C    3.862 --    17 C    1.403    14 C    1.396    16 F    0.929
    16   9 F    1.058 --    15 C    0.929
    17   6 C    3.991 --    18 C    1.440    15 C    1.403    39 H    0.969
                            13 C    0.111
    18   6 C    3.993 --    17 C    1.440    12 C    1.423    40 H    0.970
                            14 C    0.109
    19   6 C    3.932 --     7 C    1.499    20 O    1.155    21 C    1.057
    20   8 O    2.104 --    19 C    1.155    41 H    0.727     7 C    0.109
    21   6 C    3.862 --    22 O    1.790    19 C    1.057    23 N    0.837
    22   8 O    2.057 --    21 C    1.790
    23   7 N    3.618 --    24 C    0.883     5 C    0.879    25 C    0.873
                            21 C    0.837
    24   6 C    3.878 --    43 H    0.983    42 H    0.976    44 H    0.968
                            23 N    0.883
    25   6 C    3.880 --    47 H    0.982    46 H    0.977    45 H    0.971
                            23 N    0.873
    26   1 H    1.002 --     1 C    0.984
    27   1 H    0.996 --     1 C    0.978
    28   1 H    1.000 --     1 C    0.983
    29   1 H    0.999 --     3 C    0.982
    30   1 H    1.000 --     3 C    0.984
    31   1 H    1.008 --     3 C    0.982
    32   1 H    0.949 --     4 N    0.931
    33   1 H    0.943 --     4 N    0.928
    34   1 H    0.948 --    10 N    0.892
    35   1 H    1.005 --    11 C    0.967
    36   1 H    1.000 --    11 C    0.975
    37   1 H    1.005 --    13 C    0.969
    38   1 H    0.997 --    14 C    0.969
    39   1 H    0.997 --    17 C    0.969
    40   1 H    0.998 --    18 C    0.970
    41   1 H    0.836 --    20 O    0.727
    42   1 H    0.998 --    24 C    0.976
    43   1 H    0.995 --    24 C    0.983
    44   1 H    1.016 --    24 C    0.968
    45   1 H    1.007 --    25 C    0.971
    46   1 H    0.995 --    25 C    0.977
    47   1 H    0.992 --    25 C    0.982
 ---------------------------------------------------------------------------

           -------------------------------------------------
          | TOTAL ENERGY              -79.488988732616 Eh   |
          | GRADIENT NORM               0.000654767959 Eh/α |
          | HOMO-LUMO GAP               1.361203493582 eV   |
           -------------------------------------------------

 * finished run on 2023/06/20 at 15:35:57.003
