   * xtb version 6.5.1 (579679a) compiled by 'ehlert@majestix' on 2022-07-11
          program call               : /lustre/hpc/kemi/ree/PhD/git/ReactivityQM/dep/xtb-6.5.1/bin/xtb --gfn 1 /lustre/hpc/kemi/ree/PhD/git/ReactivityQM/calculations/R02oxygendeprot/reac01prodE02/conf04/R02oxygendeprot_reac01prodE02_conf04_gfn1.xyz --opt --vfukui --chrg -2 --uhf 0 --alpb DMSO

   ID    Z sym.   atoms
    1    6 C      1, 3, 4, 6, 8-11, 13, 15, 18, 19, 22, 24
    2    8 O      2, 5, 14, 20, 23, 25
    3    7 N      7, 12, 16, 17, 21
    4    1 H      26-42

      * Solvation model:               ALPB
        Solvent                        DMSO
        Solvent mass                       7.8130E+01 g/mol
          :  Hamiltonian                  GFN1-xTB          :
 * total energy  :   -83.5958647 Eh     change       -0.4726530E-10 Eh
 * total energy  :   -83.6096761 Eh     change       -0.1381135E-01 Eh
 * total energy  :   -83.6152952 Eh     change       -0.5619128E-02 Eh
 * total energy  :   -83.6163163 Eh     change       -0.1021027E-02 Eh
 * total energy  :   -83.6170198 Eh     change       -0.7035444E-03 Eh
 * total energy  :   -83.6174662 Eh     change       -0.4463889E-03 Eh
 * total energy  :   -83.6178701 Eh     change       -0.4038961E-03 Eh
 * total energy  :   -83.6181900 Eh     change       -0.3199645E-03 Eh
 * total energy  :   -83.6184616 Eh     change       -0.2715928E-03 Eh
 * total energy  :   -83.6187475 Eh     change       -0.2858578E-03 Eh
 * total energy  :   -83.6208022 Eh     change       -0.7903789E-05 Eh
 * total energy  :   -83.6208090 Eh     change       -0.6808232E-05 Eh
 * total energy  :   -83.6208156 Eh     change       -0.6578637E-05 Eh
 * total energy  :   -83.6208220 Eh     change       -0.6416033E-05 Eh
 * total energy  :   -83.6208276 Eh     change       -0.5552728E-05 Eh
 * total energy  :   -83.6208328 Eh     change       -0.5220571E-05 Eh
 * total energy  :   -83.6208385 Eh     change       -0.5690680E-05 Eh
 * total energy  :   -83.6208456 Eh     change       -0.7078349E-05 Eh
 * total energy  :   -83.6208486 Eh     change       -0.3053426E-05 Eh
   *** GEOMETRY OPTIMIZATION CONVERGED AFTER 44 ITERATIONS ***

 final structure:
================
42
 xtb: 6.5.1 (579679a)
C           -2.48258040813898        3.57524428030660       -0.71837862413828
O           -2.78970462154515        2.21447187313037       -0.68716129235257
C           -2.17024552967397        1.44576841214373        0.52924622521250
C           -3.25904163773448        1.58129923881729        1.65631267484405
O           -1.01345964598305        1.90865741438315        0.87326633426618
C           -2.15992505314477       -0.03604111508384        0.00114983697710
N           -0.90113684566005       -0.54707174931811       -0.09007168771334
C           -0.68260177864118       -1.75308879667365       -0.49143498768893
C            0.73289771004680       -2.30043479635390       -0.52304755849651
C            0.88266332842288       -3.43827144437701        0.49901933023490
C            1.11207145308724       -2.78395627579697       -1.93024755773577
N            1.58778330486597       -1.17405667566378       -0.14818367669189
C            2.91146093990147       -1.23796566389067       -0.01668035430550
O            3.60372727184476       -2.23991797182780       -0.17320285522523
C            3.53529914762277        0.06759245242628        0.34859460095315
N            4.77428171914377        0.27671004544309        0.67923495725742
N            4.89906109810249        1.61657656586357        0.90955167065662
C            3.72928488757138        2.13971113261808        0.70075380357225
C            3.35491602568518        3.56795133226682        0.79699063409548
O            2.82563362609972        1.21443856077269        0.34695701697022
N           -1.72168641427989       -2.57590104438093       -0.86316790686110
C           -3.04103037906991       -2.18233620665921       -0.82219321100863
O           -3.90901289626892       -2.99273069616083       -1.19307827830551
C           -3.30125366789607       -0.79547965373246       -0.32483287961209
O           -4.50705957273182       -0.41278908811821       -0.23193904888062
H           -2.46533949403826        3.91964054631042       -1.76206319529678
H           -1.49087177945396        3.78551569969290       -0.28006984373802
H           -3.22517799613239        4.19013066634076       -0.17635496227071
H           -3.02096642034839        0.87982428918073        2.45634475364462
H           -3.21276282091850        2.59395104447852        2.05686830861235
H           -4.26306350405488        1.38605351506902        1.28404024823159
H            0.18026247325179       -4.23425828484134        0.25973421504225
H            1.89168651408395       -3.84570561867807        0.47506930704040
H            0.67033611594707       -3.06964199334742        1.50218804925133
H            2.13176598427503       -3.16506323907187       -1.93712290900163
H            1.03469570613376       -1.96260038387034       -2.64190728844460
H            0.44118379049306       -3.58328364696700       -2.23831402783055
H            1.08032094071668       -0.30068686139824        0.03442824171049
H            4.20546562011991        4.14028515753866        1.15686162590872
H            2.51301261627433        3.69521886119670        1.47755765081778
H            3.06002144104430        3.94144136805515       -0.18379634394514
H           -1.54091224899458       -3.50920324984634       -1.18911299574144

          :  Hamiltonian                  GFN1-xTB          :
         :: total energy             -83.620848624623 Eh    ::
         :: gradient norm              0.000293958016 Eh/a0 ::
         :: HOMO-LUMO gap              0.475121062633 eV    ::
         :: SCC energy               -84.357908188722 Eh    ::
         :: -> Gsolv                  -0.292606363782 Eh    ::
         :: repulsion energy           0.762998539364 Eh    ::

    * Orbital Energies and Occupations

         #    Occupation            Energy/Eh            Energy/eV
      -------------------------------------------------------------
         1        2.0000           -0.8516315             -23.1741
       ...           ...                  ...                  ...
        56        2.0000           -0.4404835             -11.9862
        57        2.0000           -0.4360359             -11.8651
        58        2.0000           -0.4290560             -11.6752
        59        2.0000           -0.4255037             -11.5785
        60        2.0000           -0.4111530             -11.1880
        61        2.0000           -0.4069191             -11.0728
        62        2.0000           -0.4033078             -10.9746
        63        2.0000           -0.3821931             -10.4000
        64        2.0000           -0.3748457             -10.2001
        65        2.0000           -0.3465078              -9.4290
        66        2.0000           -0.3320579              -9.0358
        67        2.0000           -0.3169184              -8.6238
        68        1.9998           -0.3095544              -8.4234 (HOMO)
        69        0.0002           -0.2920940              -7.9483 (LUMO)
        70                         -0.2456652              -6.6849
        71                         -0.2169766              -5.9042
        72                         -0.2011579              -5.4738
        73                         -0.1821483              -4.9565
        74                         -0.1351382              -3.6773
        75                         -0.1151387              -3.1331
        76                         -0.1072144              -2.9175
        77                         -0.0905828              -2.4649
        78                         -0.0839249              -2.2837
        79                         -0.0817802              -2.2254
       ...                                ...                  ...
       134                          0.7471338              20.3305
      -------------------------------------------------------------
                  HL-Gap            0.0174604 Eh            0.4751 eV

Wiberg/Mayer (AO) data.
largest (>0.10) Wiberg bond orders for each atom

     #   Z sym  total        # sym  WBO       # sym  WBO       # sym  WBO
 ---------------------------------------------------------------------------
     1   6 C    3.947 --     2 O    0.998    26 H    0.982    28 H    0.979
                            27 H    0.968
     2   8 O    1.913 --     1 C    0.998     3 C    0.724
     3   6 C    3.890 --     5 O    1.264     4 C    0.933     6 C    0.913
                             2 O    0.724
     4   6 C    3.986 --    30 H    0.988    29 H    0.988    31 H    0.986
                             3 C    0.933
     5   8 O    1.543 --     3 C    1.264
     6   6 C    3.922 --    24 C    1.338     7 N    1.244     3 C    0.913
                            25 O    0.137
     7   7 N    3.074 --     8 C    1.550     6 C    1.244
     8   6 C    3.923 --     7 N    1.550    21 N    1.102     9 C    0.975
     9   6 C    3.933 --    11 C    0.985    10 C    0.983     8 C    0.975
                            12 N    0.926
    10   6 C    3.991 --    34 H    0.986    32 H    0.985     9 C    0.983
                            33 H    0.982
    11   6 C    3.991 --    36 H    0.986     9 C    0.985    37 H    0.984
                            35 H    0.982
    12   7 N    3.399 --    13 C    1.318     9 C    0.926    38 H    0.862
                            14 O    0.188
    13   6 C    3.925 --    14 O    1.544    12 N    1.318    15 C    0.982
    14   8 O    1.868 --    13 C    1.544    12 N    0.188
    15   6 C    3.869 --    16 N    1.622    20 O    1.055    13 C    0.982
    16   7 N    2.992 --    15 C    1.622    17 N    1.194
    17   7 N    2.977 --    18 C    1.611    16 N    1.194
    18   6 C    3.873 --    17 N    1.611    20 O    1.080    19 C    1.030
    19   6 C    3.988 --    18 C    1.030    39 H    0.984    40 H    0.966
                            41 H    0.963
    20   8 O    2.327 --    18 C    1.080    15 C    1.055
    21   7 N    3.416 --    22 C    1.143     8 C    1.102    42 H    0.907
                            23 O    0.127
    22   6 C    3.878 --    23 O    1.502    21 N    1.143    24 C    1.021
    23   8 O    1.795 --    22 C    1.502    21 N    0.127
    24   6 C    3.956 --    25 O    1.407     6 C    1.338    22 C    1.021
    25   8 O    1.742 --    24 C    1.407     6 C    0.137
    26   1 H    1.027 --     1 C    0.982
    27   1 H    1.039 --     1 C    0.968
    28   1 H    1.021 --     1 C    0.979
    29   1 H    1.019 --     4 C    0.988
    30   1 H    1.021 --     4 C    0.988
    31   1 H    1.037 --     4 C    0.986
    32   1 H    1.004 --    10 C    0.985
    33   1 H    1.012 --    10 C    0.982
    34   1 H    1.006 --    10 C    0.986
    35   1 H    1.011 --    11 C    0.982
    36   1 H    1.006 --    11 C    0.986
    37   1 H    1.004 --    11 C    0.984
    38   1 H    0.979 --    12 N    0.862
    39   1 H    1.001 --    19 C    0.984
    40   1 H    0.997 --    19 C    0.966
    41   1 H    0.998 --    19 C    0.963
    42   1 H    0.960 --    21 N    0.907
 ---------------------------------------------------------------------------

           -------------------------------------------------
          | TOTAL ENERGY              -83.620848624623 Eh   |
          | GRADIENT NORM               0.000293958016 Eh/α |
          | HOMO-LUMO GAP               0.475121062633 eV   |
           -------------------------------------------------

 * finished run on 2023/06/21 at 17:02:26.244
