   * xtb version 6.5.1 (579679a) compiled by 'ehlert@majestix' on 2022-07-11
          program call               : /lustre/hpc/kemi/ree/PhD/git/ReactivityQM/dep/xtb-6.5.1/bin/xtb --gfn 1 /lustre/hpc/kemi/ree/PhD/git/ReactivityQM/calculations/R02oxygendeprot/reac01prodN01/conf15/R02oxygendeprot_reac01prodN01_conf15_gfn1.xyz --opt --vfukui --chrg 0 --uhf 0 --alpb DMSO

   ID    Z sym.   atoms
    1    6 C      1, 3, 5, 7-10, 12, 14, 17, 18, 20, 22, 24
    2    8 O      2, 4, 13, 19, 23, 25
    3    7 N      6, 11, 15, 16, 21
    4    1 H      26-42

      * Solvation model:               ALPB
        Solvent                        DMSO
        Solvent mass                       7.8130E+01 g/mol
          :  Hamiltonian                  GFN1-xTB          :
 * total energy  :   -82.8795034 Eh     change        0.1136868E-12 Eh
 * total energy  :   -82.8972045 Eh     change       -0.1770112E-01 Eh
 * total energy  :   -82.9056999 Eh     change       -0.8495372E-02 Eh
 * total energy  :   -82.9079603 Eh     change       -0.2260354E-02 Eh
 * total energy  :   -82.9093718 Eh     change       -0.1411520E-02 Eh
 * total energy  :   -82.9100397 Eh     change       -0.6679145E-03 Eh
 * total energy  :   -82.9105654 Eh     change       -0.5256637E-03 Eh
 * total energy  :   -82.9109957 Eh     change       -0.4303724E-03 Eh
 * total energy  :   -82.9113254 Eh     change       -0.3296679E-03 Eh
 * total energy  :   -82.9115756 Eh     change       -0.2501426E-03 Eh
 * total energy  :   -82.9139659 Eh     change       -0.4017999E-04 Eh
 * total energy  :   -82.9139875 Eh     change       -0.2159901E-04 Eh
 * total energy  :   -82.9140235 Eh     change       -0.3602190E-04 Eh
 * total energy  :   -82.9140439 Eh     change       -0.2034191E-04 Eh
 * total energy  :   -82.9140716 Eh     change       -0.2772090E-04 Eh
 * total energy  :   -82.9140832 Eh     change       -0.1157587E-04 Eh
 * total energy  :   -82.9140938 Eh     change       -0.1066035E-04 Eh
 * total energy  :   -82.9141014 Eh     change       -0.7602423E-05 Eh
 * total energy  :   -82.9141058 Eh     change       -0.4380620E-05 Eh
   *** GEOMETRY OPTIMIZATION CONVERGED AFTER 54 ITERATIONS ***

 final structure:
================
42
 xtb: 6.5.1 (579679a)
C            7.06957220101876       -1.52866484397475       -0.37962222813642
O            5.92289564762990       -1.23366729118523        0.40753558941847
C            4.87072022996192       -0.70143627672425       -0.25980654047895
O            4.93271029488274       -0.49950729723890       -1.46647518251510
C            3.71080800180135       -0.40264137974651        0.56984058745520
N            2.67265122262623        0.15676668377068       -0.15192492424289
C            1.58086437499840        0.48813599398717        0.42424699231703
C            0.44314944278581        1.10212913070237       -0.36081595399010
C            0.23644732233341        2.56309409066511        0.05759548354069
C            0.71867485412233        0.98371583795470       -1.86085947614560
N           -0.77177433954179        0.32320625061649       -0.02369478644908
C           -1.98178839586523        0.58946265539582       -0.50963087241428
O           -2.29768356642284        1.48034145508990       -1.27785355354684
C           -2.99503991364614       -0.38423150829204        0.01128592708265
N           -2.83212089004226       -1.38641354620066        0.78881490361589
N           -4.04134116470145       -1.99564359538920        0.98390604889769
C           -4.93586203880171       -1.36491361214730        0.32570740461444
C           -6.37790369880722       -1.63225926524487        0.21479464495707
O           -4.34004922930960       -0.28944558110241       -0.34646823944974
C           -4.94225123555994        0.71797212519476       -1.22097544286785
N            1.38518610252206        0.31431968771807        1.78252333014041
C            2.32157326880240       -0.24692783502242        2.61788424476918
O            2.06859111343393       -0.37791172214727        3.81114715889711
C            3.62297534133635       -0.66033761386304        1.96369834122863
O            4.50077586446813       -1.18046886654571        2.67357177588179
H            7.82326489431438       -1.93603515155463        0.29337831333994
H            7.45158959791780       -0.62255755990645       -0.86011188169916
H            6.82751943453693       -2.26326579173273       -1.15385101482189
H           -0.56138034879214        3.01738286772083       -0.52550003223821
H           -0.02359803143620        2.61742702243179        1.11305692582750
H            1.15857667165768        3.11792599294984       -0.11168231840385
H           -0.08444664138707        1.44277319032438       -2.43201464146490
H            1.65747201909144        1.48721155126312       -2.08933808855040
H            0.80525761602468       -0.06553102889823       -2.13983564596770
H           -0.67392868321735       -0.46385094076909        0.60106452735427
H           -6.61485959750421       -2.51318198079850        0.80884532305884
H           -6.65376268126055       -1.80931548151655       -0.82495081844029
H           -6.95305675773627       -0.78144370062030        0.58096558290852
H           -4.46645116015449        0.62907664883173       -2.19552933490958
H           -4.75212567319980        1.69139970590882       -0.77369868527916
H           -6.00337896479475        0.49550767882222       -1.26783892635926
H            0.52152849589726        0.60835030127125        2.20261548306430

          :  Hamiltonian                  GFN1-xTB          :
         :: total energy             -82.914105811568 Eh    ::
         :: gradient norm              0.000629484663 Eh/a0 ::
         :: HOMO-LUMO gap              0.324336474155 eV    ::
         :: SCC energy               -83.698412494417 Eh    ::
         :: -> Gsolv                  -0.130976857164 Eh    ::
         :: repulsion energy           0.809970239721 Eh    ::

    * Orbital Energies and Occupations

         #    Occupation            Energy/Eh            Energy/eV
      -------------------------------------------------------------
         1        2.0000           -0.9651227             -26.2623
       ...           ...                  ...                  ...
        55        2.0000           -0.5060854             -13.7713
        56        2.0000           -0.5031661             -13.6918
        57        2.0000           -0.4981757             -13.5560
        58        2.0000           -0.4906437             -13.3511
        59        2.0000           -0.4823722             -13.1260
        60        2.0000           -0.4695184             -12.7762
        61        2.0000           -0.4679686             -12.7341
        62        2.0000           -0.4624970             -12.5852
        63        2.0000           -0.4469383             -12.1618
        64        2.0000           -0.4405802             -11.9888
        65        2.0000           -0.4243212             -11.5464
        66        2.0000           -0.3848931             -10.4735
        67        1.9962           -0.3724265             -10.1342 (HOMO)
        68        0.0038           -0.3605074              -9.8099 (LUMO)
        69                         -0.3108217              -8.4579
        70                         -0.2756243              -7.5001
        71                         -0.2480945              -6.7510
        72                         -0.2394442              -6.5156
        73                         -0.2023365              -5.5059
        74                         -0.1877270              -5.1083
        75                         -0.1737633              -4.7283
        76                         -0.1276901              -3.4746
        77                         -0.1250566              -3.4030
        78                         -0.1232115              -3.3528
       ...                                ...                  ...
       134                          0.7533518              20.4997
      -------------------------------------------------------------
                  HL-Gap            0.0119191 Eh            0.3243 eV

Wiberg/Mayer (AO) data.
largest (>0.10) Wiberg bond orders for each atom

     #   Z sym  total        # sym  WBO       # sym  WBO       # sym  WBO
 ---------------------------------------------------------------------------
     1   6 C    3.897 --    26 H    0.987    28 H    0.981    27 H    0.980
                             2 O    0.923
     2   8 O    2.164 --     3 C    1.054     1 C    0.923     4 O    0.111
     3   6 C    3.851 --     4 O    1.579     5 C    1.108     2 O    1.054
     4   8 O    1.853 --     3 C    1.579     2 O    0.111
     5   6 C    3.912 --    24 C    1.269     6 N    1.157     3 C    1.108
                            25 O    0.129
     6   7 N    3.033 --     7 C    1.638     5 C    1.157
     7   6 C    3.932 --     6 N    1.638    21 N    1.085     8 C    0.979
     8   6 C    3.910 --    10 C    0.993     9 C    0.983     7 C    0.979
                            11 N    0.888
     9   6 C    3.988 --    30 H    0.984    31 H    0.984     8 C    0.983
                            29 H    0.980
    10   6 C    3.990 --     8 C    0.993    34 H    0.985    32 H    0.984
                            33 H    0.982
    11   7 N    3.396 --    12 C    1.319    35 H    0.891     8 C    0.888
                            13 O    0.197
    12   6 C    3.928 --    13 O    1.572    11 N    1.319    14 C    0.965
    13   8 O    1.933 --    12 C    1.572    11 N    0.197
    14   6 C    3.795 --    15 N    1.704    12 C    0.965    19 O    0.885
    15   7 N    3.041 --    14 C    1.704    16 N    1.145
    16   7 N    3.024 --    17 C    1.700    15 N    1.145
    17   6 C    3.802 --    16 N    1.700    18 C    1.043    19 O    0.875
    18   6 C    3.970 --    17 C    1.043    36 H    0.970    37 H    0.951
                            38 H    0.951
    19   8 O    2.654 --    14 C    0.885    17 C    0.875    20 C    0.747
    20   6 C    3.725 --    41 H    0.975    40 H    0.968    39 H    0.968
                            19 O    0.747
    21   7 N    3.416 --    22 C    1.151     7 C    1.085    42 H    0.898
                            23 O    0.135
    22   6 C    3.875 --    23 O    1.587    21 N    1.151    24 C    0.965
    23   8 O    1.867 --    22 C    1.587    21 N    0.135
    24   6 C    3.942 --    25 O    1.527     5 C    1.269    22 C    0.965
    25   8 O    1.832 --    24 C    1.527     5 C    0.129
    26   1 H    1.015 --     1 C    0.987
    27   1 H    1.013 --     1 C    0.980
    28   1 H    1.013 --     1 C    0.981
    29   1 H    1.006 --     9 C    0.980
    30   1 H    1.001 --     9 C    0.984
    31   1 H    1.001 --     9 C    0.984
    32   1 H    1.007 --    10 C    0.984
    33   1 H    1.011 --    10 C    0.982
    34   1 H    1.007 --    10 C    0.985
    35   1 H    0.943 --    11 N    0.891
    36   1 H    0.989 --    18 C    0.970
    37   1 H    0.988 --    18 C    0.951
    38   1 H    0.988 --    18 C    0.951
    39   1 H    1.000 --    20 C    0.968
    40   1 H    0.999 --    20 C    0.968
    41   1 H    0.991 --    20 C    0.975
    42   1 H    0.944 --    21 N    0.898
 ---------------------------------------------------------------------------

           -------------------------------------------------
          | TOTAL ENERGY              -82.914105811568 Eh   |
          | GRADIENT NORM               0.000629484663 Eh/α |
          | HOMO-LUMO GAP               0.324336474155 eV   |
           -------------------------------------------------

 * finished run on 2023/06/21 at 17:17:10.533
