   * xtb version 6.5.1 (579679a) compiled by 'ehlert@majestix' on 2022-07-11
          program call               : /lustre/hpc/kemi/ree/PhD/git/ReactivityQM/dep/xtb-6.5.1/bin/xtb --gfn 1 /lustre/hpc/kemi/ree/PhD/git/ReactivityQM/calculations/RaltegravirCLI/reac02prodE11/conf08/RaltegravirCLI_reac02prodE11_conf08_gfn1.xyz --opt --vfukui --chrg -1 --uhf 0 --alpb DMSO

   ID    Z sym.   atoms
    1    6 C      1, 3-6, 9, 10, 13-17, 19-21, 23, 24
    2    7 N      2, 7, 8, 12
    3    8 O      11, 22, 25
    4    9 F      18
    5    1 H      26-47

      * Solvation model:               ALPB
        Solvent                        DMSO
        Solvent mass                       7.8130E+01 g/mol
          :  Hamiltonian                  GFN1-xTB          :
 * total energy  :   -80.1822499 Eh     change       -0.1402611E-10 Eh
 * total energy  :   -80.1925096 Eh     change       -0.1025964E-01 Eh
 * total energy  :   -80.1956637 Eh     change       -0.3154177E-02 Eh
 * total energy  :   -80.1966729 Eh     change       -0.1009175E-02 Eh
 * total energy  :   -80.1980916 Eh     change       -0.1418669E-02 Eh
 * total energy  :   -80.2002547 Eh     change       -0.2163135E-02 Eh
 * total energy  :   -80.2009387 Eh     change       -0.6840163E-03 Eh
 * total energy  :   -80.2046340 Eh     change       -0.3695315E-02 Eh
 * total energy  :   -80.2083614 Eh     change       -0.3727323E-02 Eh
 * total energy  :   -80.2108494 Eh     change       -0.2488013E-02 Eh
 * total energy  :   -80.2260099 Eh     change       -0.6200101E-05 Eh
 * total energy  :   -80.2260173 Eh     change       -0.7438874E-05 Eh
 * total energy  :   -80.2260253 Eh     change       -0.8033339E-05 Eh
 * total energy  :   -80.2260331 Eh     change       -0.7717235E-05 Eh
 * total energy  :   -80.2260404 Eh     change       -0.7302791E-05 Eh
 * total energy  :   -80.2260477 Eh     change       -0.7359159E-05 Eh
 * total energy  :   -80.2260538 Eh     change       -0.6100651E-05 Eh
 * total energy  :   -80.2260588 Eh     change       -0.5019169E-05 Eh
 * total energy  :   -80.2260634 Eh     change       -0.4588313E-05 Eh
   *** GEOMETRY OPTIMIZATION CONVERGED AFTER 81 ITERATIONS ***

 final structure:
================
47
 xtb: 6.5.1 (579679a)
C           -3.90840305033820        1.81320817325237       -0.25411312236755
N           -2.62227796576591        1.12843825243180       -0.28282861400178
C           -2.48242868233134       -0.26295607007033       -0.20170726383946
C           -3.66842128159562       -1.24077084085050       -0.20046885978381
C           -4.29017637561164       -1.34738371272528       -1.60261828063886
C           -4.73920381679364       -0.92871471350422        0.85451598817038
N           -3.15122582998360       -2.57334470576427        0.12726332390128
N           -1.32673446691182       -0.81758972626208       -0.22507959645760
C           -0.14493200625236       -0.05688950509034       -0.36245200809830
C            1.02524479694683       -0.81907750644915       -0.75581757061021
O            1.03518901188298       -2.04665096318424       -0.93411532459232
N            2.19107469122503       -0.08873686172515       -0.89784956903403
C            3.34572504147549       -0.67818139384720       -1.54170262375151
C            4.60919354593143       -0.50160567071799       -0.72749297984478
C            4.55647013737568       -0.19117939090382        0.62913489231138
C            5.72006591020686       -0.05001259209568        1.37235874780154
C            6.93213629716224       -0.22947974606954        0.73207385558825
F            8.06812362873979       -0.09686629173452        1.44475899790827
C            7.02525293500231       -0.53903639190536       -0.61259134334945
C            5.85031504976305       -0.67289284492453       -1.33929743849617
C           -0.18474810259038        1.31165612694127       -0.15156295435432
O            0.72179952187976        2.17218748396260       -0.31533081470593
C           -1.53702842489060        1.86409399353317        0.37533110907300
C           -1.61105077339748        1.70949459967437        1.91179026330913
O           -1.59384067617957        3.22470393859333        0.03853071651312
H           -4.34514224998735        1.84306776545141        0.75003866049112
H           -3.75724901460295        2.83906149402855       -0.59520827465353
H           -4.60540527505720        1.33369867570380       -0.93768302377564
H           -4.77512280655523       -0.42007278025464       -1.90078388971108
H           -5.03380039326701       -2.14475658574817       -1.60711583753836
H           -3.51738806370418       -1.58743979156872       -2.33341570060530
H           -5.30641183337734       -1.83782370047731        1.05841825414075
H           -5.43992514922401       -0.16924083875401        0.51618562629421
H           -4.27571093150774       -0.59615130840799        1.78318749089948
H           -2.34556848392412       -2.75712795197519       -0.47094303826856
H           -2.80269430629724       -2.55349913530674        1.07945092603070
H            2.10930448445629        0.91922274614878       -0.96486334854179
H            3.49141121236976       -0.24326756016001       -2.53948622374310
H            3.15447343955763       -1.75260939718539       -1.67200628063826
H            3.59300446910336       -0.05036114060049        1.10815016842934
H            5.69046482442329        0.19274958213208        2.42670971405399
H            7.99327713426719       -0.66927457774939       -1.07778544383055
H            5.90417827028666       -0.91126418619151       -2.39561296339501
H           -0.68002209865199        3.44721526031951       -0.25166897950194
H           -0.74438830918418        2.19636606660669        2.35568856054424
H           -2.51325773895169        2.18359469201135        2.29426070580293
H           -1.61414329511717        0.65550203142104        2.18421836686002

          :  Hamiltonian                  GFN1-xTB          :
         :: total energy             -80.226063424916 Eh    ::
         :: gradient norm              0.000221943376 Eh/a0 ::
         :: HOMO-LUMO gap              1.830547870929 eV    ::
         :: SCC energy               -81.078797864644 Eh    ::
         :: -> Gsolv                  -0.096281686136 Eh    ::
         :: repulsion energy           0.883378796805 Eh    ::

    * Orbital Energies and Occupations

         #    Occupation            Energy/Eh            Energy/eV
      -------------------------------------------------------------
         1        2.0000           -0.8541987             -23.2439
       ...           ...                  ...                  ...
        56        2.0000           -0.4630428             -12.6000
        57        2.0000           -0.4541916             -12.3592
        58        2.0000           -0.4437983             -12.0764
        59        2.0000           -0.4417708             -12.0212
        60        2.0000           -0.4402050             -11.9786
        61        2.0000           -0.4219987             -11.4832
        62        2.0000           -0.4076145             -11.0918
        63        2.0000           -0.3967620             -10.7964
        64        2.0000           -0.3919284             -10.6649
        65        2.0000           -0.3879692             -10.5572
        66        2.0000           -0.3751907             -10.2095
        67        2.0000           -0.3659477              -9.9579
        68        2.0000           -0.3294544              -8.9649 (HOMO)
        69                         -0.2621830              -7.1344 (LUMO)
        70                         -0.2520555              -6.8588
        71                         -0.2235403              -6.0828
        72                         -0.2052787              -5.5859
        73                         -0.1322870              -3.5997
        74                         -0.1229330              -3.3452
        75                         -0.1134519              -3.0872
        76                         -0.1082470              -2.9456
        77                         -0.1048959              -2.8544
        78                         -0.1004095              -2.7323
        79                         -0.0961171              -2.6155
       ...                                ...                  ...
       144                          0.7093644              19.3028
      -------------------------------------------------------------
                  HL-Gap            0.0672714 Eh            1.8305 eV

Wiberg/Mayer (AO) data.
largest (>0.10) Wiberg bond orders for each atom

     #   Z sym  total        # sym  WBO       # sym  WBO       # sym  WBO
 ---------------------------------------------------------------------------
     1   6 C    3.967 --    27 H    0.980    28 H    0.980    26 H    0.979
                             2 N    0.963
     2   7 N    3.232 --     3 C    1.082     1 C    0.963    23 C    0.925
                             8 N    0.134
     3   6 C    3.939 --     8 N    1.676     2 N    1.082     4 C    0.961
     4   6 C    3.967 --     6 C    0.994     5 C    0.987     7 N    0.987
                             3 C    0.961
     5   6 C    3.995 --     4 C    0.987    30 H    0.986    31 H    0.985
                            29 H    0.980
     6   6 C    3.995 --     4 C    0.994    34 H    0.986    32 H    0.985
                            33 H    0.983
     7   7 N    2.958 --     4 C    0.987    36 H    0.952    35 H    0.940
     8   7 N    3.031 --     3 C    1.676     9 C    1.058     2 N    0.134
     9   6 C    3.899 --    21 C    1.397    10 C    1.134     8 N    1.058
                            22 O    0.126
    10   6 C    3.900 --    11 O    1.508    12 N    1.140     9 C    1.134
    11   8 O    1.808 --    10 C    1.508    12 N    0.120
    12   7 N    3.243 --    10 C    1.140    13 C    0.974    37 H    0.889
                            11 O    0.120
    13   6 C    3.970 --    14 C    1.001    12 N    0.974    38 H    0.969
                            39 H    0.954
    14   6 C    3.987 --    15 C    1.416    20 C    1.412    13 C    1.001
    15   6 C    3.994 --    16 C    1.442    14 C    1.416    40 H    0.969
                            19 C    0.110
    16   6 C    3.992 --    15 C    1.442    17 C    1.404    41 H    0.970
                            20 C    0.110
    17   6 C    3.857 --    16 C    1.404    19 C    1.400    18 F    0.915
    18   9 F    1.040 --    17 C    0.915
    19   6 C    3.992 --    20 C    1.445    17 C    1.400    42 H    0.970
                            15 C    0.110
    20   6 C    3.994 --    19 C    1.445    14 C    1.412    43 H    0.972
                            16 C    0.110
    21   6 C    3.935 --    22 O    1.437     9 C    1.397    23 C    0.913
    22   8 O    1.851 --    21 C    1.437     9 C    0.126
    23   6 C    3.882 --    25 O    0.968    24 C    0.967     2 N    0.925
                            21 C    0.913
    24   6 C    3.995 --    47 H    0.987    45 H    0.986    46 H    0.984
                            23 C    0.967
    25   8 O    1.901 --    23 C    0.968    44 H    0.817
    26   1 H    1.008 --     1 C    0.979
    27   1 H    1.021 --     1 C    0.980
    28   1 H    1.016 --     1 C    0.980
    29   1 H    1.009 --     5 C    0.980
    30   1 H    1.010 --     5 C    0.986
    31   1 H    1.007 --     5 C    0.985
    32   1 H    1.010 --     6 C    0.985
    33   1 H    1.008 --     6 C    0.983
    34   1 H    1.006 --     6 C    0.986
    35   1 H    0.993 --     7 N    0.940
    36   1 H    0.978 --     7 N    0.952
    37   1 H    0.966 --    12 N    0.889
    38   1 H    1.006 --    13 C    0.969
    39   1 H    1.023 --    13 C    0.954
    40   1 H    1.012 --    15 C    0.969
    41   1 H    1.000 --    16 C    0.970
    42   1 H    0.999 --    19 C    0.970
    43   1 H    1.000 --    20 C    0.972
    44   1 H    0.889 --    25 O    0.817
    45   1 H    1.009 --    24 C    0.986
    46   1 H    1.007 --    24 C    0.984
    47   1 H    1.008 --    24 C    0.987
 ---------------------------------------------------------------------------

           -------------------------------------------------
          | TOTAL ENERGY              -80.226063424916 Eh   |
          | GRADIENT NORM               0.000221943376 Eh/α |
          | HOMO-LUMO GAP               1.830547870929 eV   |
           -------------------------------------------------

 * finished run on 2023/06/20 at 15:13:21.256
