   * xtb version 6.5.1 (579679a) compiled by 'ehlert@majestix' on 2022-07-11
          program call               : /lustre/hpc/kemi/ree/PhD/git/ReactivityQM/dep/xtb-6.5.1/bin/xtb --gfn 1 /lustre/hpc/kemi/ree/PhD/git/ReactivityQM/calculations/R03/reac02prodN03/conf17/R03_reac02prodN03_conf17_gfn1.xyz --opt --vfukui --chrg 1 --uhf 0 --alpb DMSO

   ID    Z sym.   atoms
    1    6 C      1, 3, 5, 6, 8-11, 13, 15, 18, 19, 22, 23, 25
    2    8 O      2, 4, 14, 20, 24, 26
    3    7 N      7, 12, 16, 17, 21
    4    1 H      27-46

      * Solvation model:               ALPB
        Solvent                        DMSO
        Solvent mass                       7.8130E+01 g/mol
          :  Hamiltonian                  GFN1-xTB          :
 * total energy  :   -86.3037659 Eh     change       -0.1050182E-10 Eh
 * total energy  :   -86.3304010 Eh     change       -0.2663513E-01 Eh
 * total energy  :   -86.3390661 Eh     change       -0.8665060E-02 Eh
 * total energy  :   -86.3411769 Eh     change       -0.2110797E-02 Eh
 * total energy  :   -86.3420026 Eh     change       -0.8257131E-03 Eh
 * total energy  :   -86.3421905 Eh     change       -0.1879277E-03 Eh
 * total energy  :   -86.3423165 Eh     change       -0.1260269E-03 Eh
 * total energy  :   -86.3424069 Eh     change       -0.9037459E-04 Eh
 * total energy  :   -86.3424845 Eh     change       -0.7760253E-04 Eh
 * total energy  :   -86.3425557 Eh     change       -0.7113182E-04 Eh
 * total energy  :   -86.3429107 Eh     change       -0.7438102E-05 Eh
 * total energy  :   -86.3429469 Eh     change       -0.3617650E-04 Eh
 * total energy  :   -86.3429593 Eh     change       -0.1240318E-04 Eh
 * total energy  :   -86.3429910 Eh     change       -0.3171619E-04 Eh
 * total energy  :   -86.3430022 Eh     change       -0.1111311E-04 Eh
 * total energy  :   -86.3430120 Eh     change       -0.9858354E-05 Eh
 * total energy  :   -86.3430194 Eh     change       -0.7433227E-05 Eh
 * total energy  :   -86.3430252 Eh     change       -0.5764533E-05 Eh
 * total energy  :   -86.3430296 Eh     change       -0.4394130E-05 Eh
   *** GEOMETRY OPTIMIZATION CONVERGED AFTER 32 ITERATIONS ***

 final structure:
================
46
 xtb: 6.5.1 (579679a)
C           -6.04352532348963        1.65553941155338       -1.37375355545760
O           -4.91245994446966        1.40905748064630       -0.51892520054059
C           -3.90796343057893        0.72910156406911       -0.95010455646051
O           -3.98874597264399        0.31091982551912       -2.16576203656674
C           -3.02143648741449       -0.47532592027452       -2.87582555264526
C           -2.81726016277231        0.50937319374901       -0.02410566984958
N           -1.71083457204061       -0.17108530209586       -0.46950953279253
C           -0.69850848535015       -0.41044081030007        0.30554529376666
C            0.45339262914974       -1.20440626133367       -0.29863410810589
C            0.27948484025679       -1.33391970527614       -1.81640111299358
C            0.48211594649377       -2.60520186163252        0.33163772789710
N            1.69078322270195       -0.45973851512219       -0.04916624593778
C            2.92175812456199       -0.94767990710524       -0.36553119905223
O            3.16969833122831       -2.09184164359938       -0.68653920896377
C            3.94470211065195        0.11668137418738       -0.23193674596552
N            3.71561193341220        1.36558969743410        0.04642759904076
N            4.92307738909728        1.99335703103808        0.05436252616109
C            5.81370961925023        1.08703760375641       -0.22099242219908
C            7.27880723054081        1.26283730582981       -0.32550812107786
O            5.25608784364094       -0.11699022434667       -0.41306200281187
N           -0.67588953896933       -0.01133237459487        1.61889668551152
C            0.39763901551100       -0.29082293075093        2.58232139867781
C           -1.73438526995438        0.67208286909390        2.17579792240234
O           -1.76119860493193        1.03013811204905        3.34217333844610
C           -2.85793408030862        0.95420546004153        1.28090981292609
O           -3.85840637307765        1.61688973720830        1.82314641264178
H           -6.48105138091579        0.70484186095740       -1.67990565951807
H           -5.72048130035991        2.21461689280327       -2.25239449842147
H           -6.74458682430125        2.23490084500057       -0.77736074356239
H           -3.46311870152721       -0.66405996714912       -3.85341561838057
H           -2.84154038417169       -1.40959250023853       -2.34565365419915
H           -2.09191310223686        0.08405348108537       -2.97323825491615
H           -0.61013409927769       -1.91783194647810       -2.03925791380499
H            0.18928638270675       -0.34976912253870       -2.27178904833067
H            1.14717541444419       -1.84280420522370       -2.23378339579416
H           -0.51745082577494       -3.03342123293192        0.27698462026080
H            1.16885031166289       -3.24523320358579       -0.21870628085012
H            0.79489155101311       -2.56987242053692        1.37159488146161
H            1.60707623940348        0.54535485276039        0.00329183717148
H            7.52719565474764        2.31824513425890       -0.24218557627010
H            7.63291628692433        0.87364420107684       -1.27967310409861
H            7.77603051919736        0.70863005114178        0.47114329855243
H            0.53411152456191        0.60077649136320        3.19359373638574
H            1.32051198170347       -0.53194555943547        2.06985948585164
H            0.08560906378442       -1.11749566195718        3.21982740830292
H           -3.65169530208031        1.80293779987624        2.76423503410574

          :  Hamiltonian                  GFN1-xTB          :
         :: total energy             -86.343029606995 Eh    ::
         :: gradient norm              0.000625327155 Eh/a0 ::
         :: HOMO-LUMO gap              1.963831340748 eV    ::
         :: SCC energy               -87.172480450000 Eh    ::
         :: -> Gsolv                  -0.102828134273 Eh    ::
         :: repulsion energy           0.858786812461 Eh    ::

    * Orbital Energies and Occupations

         #    Occupation            Energy/Eh            Energy/eV
      -------------------------------------------------------------
         1        2.0000           -0.9136317             -24.8612
       ...           ...                  ...                  ...
        58        2.0000           -0.5268698             -14.3369
        59        2.0000           -0.5201493             -14.1540
        60        2.0000           -0.5151588             -14.0182
        61        2.0000           -0.5112019             -13.9105
        62        2.0000           -0.5045440             -13.7293
        63        2.0000           -0.4939371             -13.4407
        64        2.0000           -0.4882021             -13.2847
        65        2.0000           -0.4824094             -13.1270
        66        2.0000           -0.4737210             -12.8906
        67        2.0000           -0.4677673             -12.7286
        68        2.0000           -0.4627632             -12.5924
        69        2.0000           -0.4584423             -12.4749
        70        2.0000           -0.4541274             -12.3574 (HOMO)
        71                         -0.3819580             -10.3936 (LUMO)
        72                         -0.3196908              -8.6992
        73                         -0.3185984              -8.6695
        74                         -0.2917363              -7.9385
        75                         -0.2614291              -7.1138
        76                         -0.2072669              -5.6400
        77                         -0.1990955              -5.4177
        78                         -0.1716937              -4.6720
        79                         -0.1626411              -4.4257
        80                         -0.1521376              -4.1399
        81                         -0.1437966              -3.9129
       ...                                ...                  ...
       144                          0.7242407              19.7076
      -------------------------------------------------------------
                  HL-Gap            0.0721695 Eh            1.9638 eV

Wiberg/Mayer (AO) data.
largest (>0.10) Wiberg bond orders for each atom

     #   Z sym  total        # sym  WBO       # sym  WBO       # sym  WBO
 ---------------------------------------------------------------------------
     1   6 C    3.823 --    29 H    0.982    27 H    0.972    28 H    0.972
                             2 O    0.855
     2   8 O    2.310 --     3 C    1.262     1 C    0.855
     3   6 C    3.815 --     2 O    1.262     4 O    1.252     6 C    1.117
     4   8 O    2.308 --     3 C    1.252     5 C    0.850
     5   6 C    3.815 --    30 H    0.978    31 H    0.971    32 H    0.971
                             4 O    0.850
     6   6 C    3.956 --    25 C    1.415     7 N    1.162     3 C    1.117
     7   7 N    3.036 --     8 C    1.569     6 C    1.162
     8   6 C    3.920 --     7 N    1.569    21 N    1.172     9 C    0.976
     9   6 C    3.934 --    10 C    0.990    11 C    0.979     8 C    0.976
                            12 N    0.927
    10   6 C    3.988 --     9 C    0.990    34 H    0.983    33 H    0.982
                            35 H    0.979
    11   6 C    3.984 --    36 H    0.984    38 H    0.980     9 C    0.979
                            37 H    0.975
    12   7 N    3.319 --    13 C    1.210     9 C    0.927    39 H    0.894
                            14 O    0.167
    13   6 C    3.912 --    14 O    1.619    12 N    1.210    15 C    0.994
    14   8 O    1.932 --    13 C    1.619    12 N    0.167
    15   6 C    3.878 --    16 N    1.604    20 O    1.066    13 C    0.994
    16   7 N    3.020 --    15 C    1.604    17 N    1.205
    17   7 N    2.981 --    18 C    1.599    16 N    1.205
    18   6 C    3.869 --    17 N    1.599    20 O    1.085    19 C    1.032
    19   6 C    3.985 --    18 C    1.032    40 H    0.982    41 H    0.965
                            42 H    0.960
    20   8 O    2.334 --    18 C    1.085    15 C    1.066
    21   7 N    3.525 --     8 C    1.172    23 C    1.147    22 C    0.915
                            24 O    0.142
    22   6 C    3.903 --    44 H    0.974    43 H    0.972    45 H    0.971
                            21 N    0.915
    23   6 C    3.918 --    24 O    1.588    21 N    1.147    25 C    1.044
    24   8 O    1.933 --    23 C    1.588    21 N    0.142
    25   6 C    3.913 --     6 C    1.415    26 O    1.175    23 C    1.044
    26   8 O    2.146 --    25 C    1.175    46 H    0.780
    27   1 H    0.998 --     1 C    0.972
    28   1 H    0.998 --     1 C    0.972
    29   1 H    1.002 --     1 C    0.982
    30   1 H    1.001 --     5 C    0.978
    31   1 H    1.012 --     5 C    0.971
    32   1 H    1.012 --     5 C    0.971
    33   1 H    1.005 --    10 C    0.982
    34   1 H    1.005 --    10 C    0.983
    35   1 H    1.002 --    10 C    0.979
    36   1 H    1.000 --    11 C    0.984
    37   1 H    1.009 --    11 C    0.975
    38   1 H    0.999 --    11 C    0.980
    39   1 H    0.951 --    12 N    0.894
    40   1 H    0.998 --    19 C    0.982
    41   1 H    0.996 --    19 C    0.965
    42   1 H    0.996 --    19 C    0.960
    43   1 H    1.001 --    22 C    0.972
    44   1 H    1.008 --    22 C    0.974
    45   1 H    0.997 --    22 C    0.971
    46   1 H    0.825 --    26 O    0.780
 ---------------------------------------------------------------------------

           -------------------------------------------------
          | TOTAL ENERGY              -86.343029606995 Eh   |
          | GRADIENT NORM               0.000625327155 Eh/α |
          | HOMO-LUMO GAP               1.963831340748 eV   |
           -------------------------------------------------

 * finished run on 2023/06/20 at 15:38:26.670
