   * xtb version 6.5.1 (579679a) compiled by 'ehlert@majestix' on 2022-07-11
          program call               : /lustre/hpc/kemi/ree/PhD/git/ReactivityQM/dep/xtb-6.5.1/bin/xtb --gfn 1 /lustre/hpc/kemi/ree/PhD/git/ReactivityQM/calculations/R02/reac01prodE10/conf11/R02_reac01prodE10_conf11_gfn1.xyz --opt --vfukui --chrg -1 --uhf 0 --alpb DMSO

   ID    Z sym.   atoms
    1    6 C      1, 3, 5, 7-10, 12, 14, 17-19, 22, 24
    2    8 O      2, 4, 13, 20, 23, 25
    3    7 N      6, 11, 15, 16, 21
    4    1 H      26-43

      * Solvation model:               ALPB
        Solvent                        DMSO
        Solvent mass                       7.8130E+01 g/mol
          :  Hamiltonian                  GFN1-xTB          :
 * total energy  :   -83.8031897 Eh     change       -0.9185044E-09 Eh
 * total energy  :   -83.8177275 Eh     change       -0.1453780E-01 Eh
 * total energy  :   -83.8234720 Eh     change       -0.5744509E-02 Eh
 * total energy  :   -83.8242160 Eh     change       -0.7439936E-03 Eh
 * total energy  :   -83.8246454 Eh     change       -0.4293955E-03 Eh
 * total energy  :   -83.8247439 Eh     change       -0.9848363E-04 Eh
 * total energy  :   -83.8248373 Eh     change       -0.9342418E-04 Eh
 * total energy  :   -83.8248841 Eh     change       -0.4676446E-04 Eh
 * total energy  :   -83.8249172 Eh     change       -0.3313168E-04 Eh
 * total energy  :   -83.8249389 Eh     change       -0.2170507E-04 Eh
 * total energy  :   -83.8249538 Eh     change       -0.1491615E-04 Eh
 * total energy  :   -83.8249698 Eh     change       -0.1596032E-04 Eh
 * total energy  :   -83.8249798 Eh     change       -0.1003301E-04 Eh
 * total energy  :   -83.8249999 Eh     change       -0.2003865E-04 Eh
 * total energy  :   -83.8250054 Eh     change       -0.5548513E-05 Eh
 * total energy  :   -83.8250166 Eh     change       -0.1117303E-04 Eh
 * total energy  :   -83.8250205 Eh     change       -0.3907820E-05 Eh
   *** GEOMETRY OPTIMIZATION CONVERGED AFTER 17 ITERATIONS ***

 final structure:
================
43
 xtb: 6.5.1 (579679a)
C            6.59804514126671        1.85985285226888        1.40254176173931
O            5.52890144165461        0.92816366163104        1.52529802016943
C            4.54129828897779        1.04204219773567        0.56605194774962
O            4.62688219503628        1.90688908906295       -0.30609327811740
C            3.46956695391962        0.08745740669058        0.69923674753604
N            2.49650920259162        0.21374330460140       -0.28344190797825
C            1.48106018965761       -0.57301778481569       -0.28559415597996
C            0.43047057854294       -0.48621810680361       -1.37834329921869
C            0.75301556556369       -1.58030382221649       -2.41044472743404
C            0.46885590282748        0.90344306781227       -2.02987516512372
N           -0.86082502343330       -0.75507709719975       -0.73634393242342
C           -2.05806430284136       -0.57948719886246       -1.50774611193373
O           -2.07834912770052       -0.73706149314223       -2.75541620480975
C           -3.15050420163862       -0.28693618684917       -0.69468154459506
N           -3.14788669298092       -0.08124363554034        0.67253720236554
N           -4.42022159100977        0.21057605332762        0.95275274220993
C           -4.80038145819093        0.49309555747998        2.31663524236409
C           -5.19780669343930        0.20170732964711       -0.10427165264564
C           -6.65148408571116        0.48034805426439       -0.16661721527325
O           -4.47606236226501       -0.10607251193907       -1.19596898924817
N            1.31421307521128       -1.56282496662213        0.64488383808979
C            2.21420209875356       -1.79066267527533        1.69667722366952
O            1.97371471094488       -2.70028076081542        2.50583464973738
C            3.33499530073834       -0.90857612455462        1.68804682589210
O            4.24071403976863       -1.10826331536397        2.69674249631541
H            7.12224269340065        1.72177621358498        0.45113693011778
H            6.22293856303904        2.88702698551443        1.45591511304849
H            7.28118040561307        1.67397876689960        2.22998008660481
H            0.69582049954889       -2.56103324916068       -1.93951353587812
H            1.76193451314339       -1.43201922678968       -2.79548091473577
H            0.04926985996155       -1.54470371851875       -3.24006340810266
H            1.47811625149398        1.11173973130109       -2.38471786664774
H           -0.22120136997709        0.94516875700118       -2.87104838797989
H            0.19147188376752        1.66477584046526       -1.30153674916910
H           -0.93819921633363       -0.26172562978103        0.14794751391919
H           -5.55653961668125       -0.22062314243069        2.64043207258615
H           -5.20549806652843        1.50191804222515        2.38112727765496
H           -3.91279682718775        0.40600949151801        2.93842979349739
H           -6.98169478208033        0.43256358244186       -1.20192276324015
H           -6.87072549434546        1.47036102254409        0.23489202383499
H           -7.21039276010993       -0.24940112585622        0.42089683193081
H            0.48834202873005       -2.14144713214140        0.61294361916868
H            4.97487428829943       -0.47565710334180        2.63603485032781

          :  Hamiltonian                  GFN1-xTB          :
         :: total energy             -83.825020487982 Eh    ::
         :: gradient norm              0.000995763607 Eh/a0 ::
         :: HOMO-LUMO gap              0.041067448556 eV    ::
         :: SCC energy               -84.580546410696 Eh    ::
         :: -> Gsolv                  -0.128702715752 Eh    ::
         :: repulsion energy           0.781138515777 Eh    ::

    * Orbital Energies and Occupations

         #    Occupation            Energy/Eh            Energy/eV
      -------------------------------------------------------------
         1        2.0000           -0.8400882             -22.8600
       ...           ...                  ...                  ...
        56        2.0000           -0.4713768             -12.8268
        57        2.0000           -0.4652969             -12.6614
        58        2.0000           -0.4648031             -12.6479
        59        2.0000           -0.4468212             -12.1586
        60        2.0000           -0.4373314             -11.9004
        61        2.0000           -0.4368218             -11.8865
        62        2.0000           -0.4203836             -11.4392
        63        2.0000           -0.4142213             -11.2715
        64        2.0000           -0.4063862             -11.0583
        65        2.0000           -0.4043030             -11.0016
        66        2.0000           -0.3890440             -10.5864
        67        2.0000           -0.3840919             -10.4517
        68        1.3775           -0.2909300              -7.9166 (HOMO)
        69        0.6225           -0.2894208              -7.8755 (LUMO)
        70                         -0.2616832              -7.1208
        71                         -0.2359852              -6.4215
        72                         -0.1948228              -5.3014
        73                         -0.1536852              -4.1820
        74                         -0.1469023              -3.9974
        75                         -0.1391029              -3.7852
        76                         -0.1204665              -3.2781
        77                         -0.1123164              -3.0563
        78                         -0.1027398              -2.7957
        79                         -0.0987973              -2.6884
       ...                                ...                  ...
       136                          0.6960038              18.9392
      -------------------------------------------------------------
                  HL-Gap            0.0015092 Eh            0.0411 eV

Wiberg/Mayer (AO) data.
largest (>0.10) Wiberg bond orders for each atom

     #   Z sym  total        # sym  WBO       # sym  WBO       # sym  WBO
 ---------------------------------------------------------------------------
     1   6 C    3.893 --    28 H    0.987    26 H    0.981    27 H    0.981
                             2 O    0.918
     2   8 O    2.115 --     3 C    0.985     1 C    0.918
     3   6 C    3.733 --     4 O    1.539     5 C    1.143     2 O    0.985
     4   8 O    1.761 --     3 C    1.539
     5   6 C    3.811 --    24 C    1.309     3 C    1.143     6 N    1.135
     6   7 N    3.001 --     7 C    1.616     5 C    1.135
     7   6 C    3.905 --     6 N    1.616    21 N    1.144     8 C    0.977
     8   6 C    3.957 --    10 C    0.990     9 C    0.981     7 C    0.977
                            11 N    0.952
     9   6 C    3.991 --    30 H    0.988    29 H    0.986     8 C    0.981
                            31 H    0.977
    10   6 C    3.993 --     8 C    0.990    34 H    0.987    32 H    0.984
                            33 H    0.984
    11   7 N    3.083 --    12 C    0.998     8 C    0.952    35 H    0.929
    12   6 C    3.804 --    13 O    1.400    14 C    1.308    11 N    0.998
    13   8 O    1.656 --    12 C    1.400
    14   6 C    3.559 --    12 C    1.308    15 N    1.184    20 O    0.885
    15   7 N    2.681 --    14 C    1.184    16 N    1.159    18 C    0.196
    16   7 N    3.640 --    18 C    1.409    15 N    1.159    17 C    0.940
    17   6 C    3.936 --    38 H    0.983    36 H    0.979    37 H    0.978
                            16 N    0.940
    18   6 C    3.792 --    16 N    1.409    20 O    1.084    19 C    1.028
                            15 N    0.196
    19   6 C    3.987 --    18 C    1.028    39 H    0.981    40 H    0.967
                            41 H    0.965
    20   8 O    2.128 --    18 C    1.084    14 C    0.885
    21   7 N    3.326 --     7 C    1.144    22 C    1.044    42 H    0.896
                            23 O    0.100
    22   6 C    3.831 --    23 O    1.486    24 C    1.196    21 N    1.044
    23   8 O    1.741 --    22 C    1.486    21 N    0.100
    24   6 C    3.718 --     5 C    1.309    22 C    1.196    25 O    1.032
    25   8 O    1.978 --    24 C    1.032    43 H    0.822
    26   1 H    1.013 --     1 C    0.981
    27   1 H    1.013 --     1 C    0.981
    28   1 H    1.014 --     1 C    0.987
    29   1 H    1.009 --     9 C    0.986
    30   1 H    1.007 --     9 C    0.988
    31   1 H    1.024 --     9 C    0.977
    32   1 H    1.018 --    10 C    0.984
    33   1 H    1.015 --    10 C    0.984
    34   1 H    1.008 --    10 C    0.987
    35   1 H    0.978 --    11 N    0.929
    36   1 H    0.999 --    17 C    0.979
    37   1 H    0.999 --    17 C    0.978
    38   1 H    1.006 --    17 C    0.983
    39   1 H    0.997 --    19 C    0.981
    40   1 H    0.996 --    19 C    0.967
    41   1 H    0.996 --    19 C    0.965
    42   1 H    0.957 --    21 N    0.896
    43   1 H    0.879 --    25 O    0.822
 ---------------------------------------------------------------------------

           -------------------------------------------------
          | TOTAL ENERGY              -83.825020487982 Eh   |
          | GRADIENT NORM               0.000995763607 Eh/α |
          | HOMO-LUMO GAP               0.041067448556 eV   |
           -------------------------------------------------

 * finished run on 2023/06/20 at 15:10:36.253
