   * xtb version 6.5.1 (579679a) compiled by 'ehlert@majestix' on 2022-07-11
          program call               : /lustre/hpc/kemi/ree/PhD/git/ReactivityQM/dep/xtb-6.5.1/bin/xtb --gfn 1 /lustre/hpc/kemi/ree/PhD/git/ReactivityQM/calculations/R01/reac01prodE06/conf10/R01_reac01prodE06_conf10_gfn1.xyz --opt --vfukui --chrg -1 --uhf 0 --alpb DMSO

   ID    Z sym.   atoms
    1    6 C      1, 3, 5, 8-10
    2    8 O      2, 4, 11
    3    7 N      6, 7
    4    1 H      12-20

      * Solvation model:               ALPB
        Solvent                        DMSO
        Solvent mass                       7.8130E+01 g/mol
          :  Hamiltonian                  GFN1-xTB          :
 * total energy  :   -38.3476066 Eh     change       -0.3034017E-11 Eh
 * total energy  :   -38.3538740 Eh     change       -0.6267461E-02 Eh
 * total energy  :   -38.3553485 Eh     change       -0.1474457E-02 Eh
 * total energy  :   -38.3555766 Eh     change       -0.2281087E-03 Eh
 * total energy  :   -38.3558205 Eh     change       -0.2438574E-03 Eh
 * total energy  :   -38.3558647 Eh     change       -0.4425465E-04 Eh
 * total energy  :   -38.3558914 Eh     change       -0.2672830E-04 Eh
 * total energy  :   -38.3559044 Eh     change       -0.1298266E-04 Eh
 * total energy  :   -38.3559105 Eh     change       -0.6025535E-05 Eh
 * total energy  :   -38.3559119 Eh     change       -0.1494110E-05 Eh
   *** GEOMETRY OPTIMIZATION CONVERGED AFTER 10 ITERATIONS ***

 final structure:
================
20
 xtb: 6.5.1 (579679a)
C            3.84803257927064       -0.42607269048685       -0.27543297139025
O            2.44022933698625       -0.28232610660197       -0.32959880776252
C            1.81608591059248       -0.13451171958775        0.90109155284396
O            2.48425937760487       -0.13506781114591        1.94778510165747
C            0.42195168001022        0.00881639338387        0.81272780492193
N           -0.40895600074550        0.16410240095943        1.84186301124121
N           -1.63356509427483        0.26749424702869        1.44256941715216
C           -1.63780416962967        0.17192072458797       -0.02719255829585
C           -2.20445280208043        1.46833794139960       -0.62811381163876
C           -2.47132581566994       -1.04396998636451       -0.46281558691632
O           -0.28064970386076        0.00297567940964       -0.40768055896356
H            4.31687883438399        0.44966100440624        0.18822897343314
H            4.20062859817256       -0.52550891693556       -1.30228672741959
H            4.13243558024740       -1.31742935274400        0.29587470740596
H           -1.59095280402037        2.31091696453258       -0.31310314391726
H           -3.22355083696696        1.61979109027078       -0.27838691685057
H           -2.20022567613179        1.41272451382269       -1.71515993631074
H           -2.04098610340513       -1.94841452528306       -0.03563013695916
H           -2.47452568417171       -1.13012850382283       -1.54782117321556
H           -3.49350720631140       -0.93331134682914       -0.10691823901557

          :  Hamiltonian                  GFN1-xTB          :
         :: total energy             -38.355911944151 Eh    ::
         :: gradient norm              0.000353833400 Eh/a0 ::
         :: HOMO-LUMO gap              2.131175777856 eV    ::
         :: SCC energy               -38.663763861494 Eh    ::
         :: -> Gsolv                  -0.097386335595 Eh    ::
         :: repulsion energy           0.316312685356 Eh    ::

    * Orbital Energies and Occupations

         #    Occupation            Energy/Eh            Energy/eV
      -------------------------------------------------------------
         1        2.0000           -0.7790126             -21.1980
       ...           ...                  ...                  ...
        19        2.0000           -0.5077551             -13.8167
        20        2.0000           -0.4953654             -13.4796
        21        2.0000           -0.4864693             -13.2375
        22        2.0000           -0.4842048             -13.1759
        23        2.0000           -0.4746371             -12.9155
        24        2.0000           -0.4715623             -12.8319
        25        2.0000           -0.4500201             -12.2457
        26        2.0000           -0.4491458             -12.2219
        27        2.0000           -0.4389931             -11.9456
        28        2.0000           -0.4219610             -11.4821
        29        2.0000           -0.4141296             -11.2690
        30        2.0000           -0.3745510             -10.1921
        31        2.0000           -0.3214732              -8.7477 (HOMO)
        32                         -0.2431540              -6.6166 (LUMO)
        33                         -0.1279475              -3.4816
        34                         -0.1147193              -3.1217
        35                         -0.1057468              -2.8775
        36                         -0.0998329              -2.7166
        37                         -0.0590158              -1.6059
        38                         -0.0527351              -1.4350
        39                         -0.0515151              -1.4018
        40                         -0.0475177              -1.2930
        41                         -0.0294392              -0.8011
        42                         -0.0273251              -0.7436
       ...                                ...                  ...
        62                          0.7097068              19.3121
      -------------------------------------------------------------
                  HL-Gap            0.0783193 Eh            2.1312 eV

Wiberg/Mayer (AO) data.
largest (>0.10) Wiberg bond orders for each atom

     #   Z sym  total        # sym  WBO       # sym  WBO       # sym  WBO
 ---------------------------------------------------------------------------
     1   6 C    3.909 --    13 H    0.987    14 H    0.981    12 H    0.981
                             2 O    0.939
     2   8 O    2.103 --     3 C    0.975     1 C    0.939
     3   6 C    3.883 --     4 O    1.474     5 C    1.251     2 O    0.975
                             7 N    0.105
     4   8 O    1.789 --     3 C    1.474
     5   6 C    3.847 --     6 N    1.367     3 C    1.251    11 O    0.931
                             7 N    0.150
     6   7 N    3.024 --     7 N    1.503     5 C    1.367
     7   7 N    2.899 --     6 N    1.503     8 C    0.978     5 C    0.150
                             3 C    0.105
     8   6 C    3.901 --     7 N    0.978    10 C    0.978     9 C    0.978
                            11 O    0.928
     9   6 C    3.993 --    16 H    0.988    17 H    0.986    15 H    0.985
                             8 C    0.978
    10   6 C    3.993 --    20 H    0.988    19 H    0.986    18 H    0.985
                             8 C    0.978
    11   8 O    2.049 --     5 C    0.931     8 C    0.928
    12   1 H    1.016 --     1 C    0.981
    13   1 H    1.018 --     1 C    0.987
    14   1 H    1.016 --     1 C    0.981
    15   1 H    1.014 --     9 C    0.985
    16   1 H    1.010 --     9 C    0.988
    17   1 H    1.008 --     9 C    0.986
    18   1 H    1.014 --    10 C    0.985
    19   1 H    1.008 --    10 C    0.986
    20   1 H    1.010 --    10 C    0.988
 ---------------------------------------------------------------------------

           -------------------------------------------------
          | TOTAL ENERGY              -38.355911944151 Eh   |
          | GRADIENT NORM               0.000353833400 Eh/α |
          | HOMO-LUMO GAP               2.131175777856 eV   |
           -------------------------------------------------

 * finished run on 2023/06/20 at 14:54:20.746
