   * xtb version 6.5.1 (579679a) compiled by 'ehlert@majestix' on 2022-07-11
          program call               : /lustre/hpc/kemi/ree/PhD/git/ReactivityQM/dep/xtb-6.5.1/bin/xtb --gfn 1 /lustre/hpc/kemi/ree/PhD/git/ReactivityQM/calculations/R02oxygendeprot/reac01prodN10/conf16/R02oxygendeprot_reac01prodN10_conf16_gfn1.xyz --opt --vfukui --chrg 0 --uhf 0 --alpb DMSO

   ID    Z sym.   atoms
    1    6 C      1, 3, 5, 6, 8, 11-15, 17, 19, 22, 23
    2    8 O      2, 4, 7, 9, 18, 24
    3    7 N      10, 16, 20, 21, 25
    4    1 H      26-42

      * Solvation model:               ALPB
        Solvent                        DMSO
        Solvent mass                       7.8130E+01 g/mol
          :  Hamiltonian                  GFN1-xTB          :
 * total energy  :   -82.9630466 Eh     change       -0.1409717E-10 Eh
 * total energy  :   -82.9752719 Eh     change       -0.1222534E-01 Eh
 * total energy  :   -82.9807392 Eh     change       -0.5467302E-02 Eh
 * total energy  :   -82.9819365 Eh     change       -0.1197253E-02 Eh
 * total energy  :   -82.9826130 Eh     change       -0.6765045E-03 Eh
 * total energy  :   -82.9829459 Eh     change       -0.3329031E-03 Eh
 * total energy  :   -82.9831321 Eh     change       -0.1861833E-03 Eh
 * total energy  :   -82.9832427 Eh     change       -0.1106188E-03 Eh
 * total energy  :   -82.9833351 Eh     change       -0.9238152E-04 Eh
 * total energy  :   -82.9834264 Eh     change       -0.9138567E-04 Eh
 * total energy  :   -82.9837869 Eh     change       -0.1144913E-04 Eh
 * total energy  :   -82.9837949 Eh     change       -0.7949956E-05 Eh
 * total energy  :   -82.9838012 Eh     change       -0.6309158E-05 Eh
 * total energy  :   -82.9838086 Eh     change       -0.7465847E-05 Eh
 * total energy  :   -82.9838166 Eh     change       -0.7923092E-05 Eh
 * total energy  :   -82.9838238 Eh     change       -0.7290553E-05 Eh
 * total energy  :   -82.9838250 Eh     change       -0.1116012E-05 Eh
 * total energy  :   -82.9838301 Eh     change       -0.5115037E-05 Eh
 * total energy  :   -82.9838324 Eh     change       -0.2364443E-05 Eh
   *** GEOMETRY OPTIMIZATION CONVERGED AFTER 34 ITERATIONS ***

 final structure:
================
42
 xtb: 6.5.1 (579679a)
C           -4.42351895461337       -1.27686066373933       -3.02899593579587
O           -4.05617920521626       -0.74082484126297       -1.75085821339736
C           -2.85517453376661       -0.20326532974513       -1.65176928245417
O           -2.05581700017508       -0.13289701885739       -2.55022153411406
C           -2.56680254349784        0.30026676809942       -0.24996638610076
C           -3.66789002381288        0.65792526859432        0.68976670056463
O           -4.77479135140041        0.97587205024393        0.33912992170169
C           -3.25205242696994        0.63921003738106        2.16302021601884
O           -4.05141712543669        0.55107555410819        3.07211812085109
N           -1.91838743821291        0.70518736820447        2.35958642991689
C           -0.90211313486390        0.87440903384383        1.33926586308239
C           -0.56833322964750        2.36844642682346        1.19952319737414
C            0.35011037321929        0.01034300713069        1.70127796279650
C           -0.07574958380766       -1.45171302581563        1.87916039840416
C            1.06566843423331        0.53059797726646        2.94850697081120
N            1.23412248455849        0.11915543423817        0.54156723842718
C            2.45426376051740       -0.45471249737430        0.46491666318333
O            3.03086963754300       -1.03234013514132        1.36827482286906
C            3.03057363618799       -0.26529608156871       -0.89195333714281
N            2.43277385353785        0.28304921072401       -1.90651611651810
N            3.31539113940789        0.25638622798509       -2.94390883253797
C            4.39621342985666       -0.30700750119639       -2.49555177981056
C            5.65376084278796       -0.56174253434821       -3.23212794232348
O            4.27716491681878       -0.66101542565342       -1.20730437910900
N           -1.33508798269659        0.42296516663826        0.05389475106209
H           -5.44105749943744       -1.64702221220978       -2.92780049478784
H           -3.74566737666240       -2.08953482927504       -3.29709610446195
H           -4.37236030660121       -0.49458805544207       -3.78893385862753
H           -1.62360114890168        0.81089612630973        3.31848864894548
H           -1.42229142871799        2.88726678277718        0.76841681273465
H            0.29711402199636        2.50032223225519        0.55428175190509
H           -0.35735150604659        2.78634895928827        2.18025131627302
H           -0.76735807755958       -1.53785811631199        2.71498512107711
H            0.80066473507207       -2.06557659228864        2.08038899129573
H           -0.56407176266771       -1.80976563493099        0.97366377439655
H            1.50260035411908        1.50964904909129        2.76226239772214
H            1.86265483808863       -0.15705234112309        3.22701658310291
H            0.37019953298801        0.60314587169109        3.78152244428253
H            0.80915307183246        0.42965265948747       -0.32485863867253
H            5.54922561275802       -0.22530371797334       -4.26044120928444
H            6.47738721434686       -0.02963312288329       -2.75636075450897
H            5.88716075084187       -1.62583853505118       -3.21661829915651

          :  Hamiltonian                  GFN1-xTB          :
         :: total energy             -82.983832436135 Eh    ::
         :: gradient norm              0.000601697432 Eh/a0 ::
         :: HOMO-LUMO gap              1.759127454654 eV    ::
         :: SCC energy               -83.765046649220 Eh    ::
         :: -> Gsolv                  -0.053575949709 Eh    ::
         :: repulsion energy           0.808533715742 Eh    ::

    * Orbital Energies and Occupations

         #    Occupation            Energy/Eh            Energy/eV
      -------------------------------------------------------------
         1        2.0000           -0.8650503             -23.5392
       ...           ...                  ...                  ...
        55        2.0000           -0.5083810             -13.8338
        56        2.0000           -0.5072053             -13.8018
        57        2.0000           -0.5058981             -13.7662
        58        2.0000           -0.5024595             -13.6726
        59        2.0000           -0.4977215             -13.5437
        60        2.0000           -0.4842488             -13.1771
        61        2.0000           -0.4834954             -13.1566
        62        2.0000           -0.4715175             -12.8306
        63        2.0000           -0.4654029             -12.6643
        64        2.0000           -0.4609951             -12.5443
        65        2.0000           -0.4537774             -12.3479
        66        2.0000           -0.4485566             -12.2058
        67        2.0000           -0.4402441             -11.9797 (HOMO)
        68                         -0.3755974             -10.2205 (LUMO)
        69                         -0.3215456              -8.7497
        70                         -0.3123427              -8.4993
        71                         -0.2582162              -7.0264
        72                         -0.2528973              -6.8817
        73                         -0.2066961              -5.6245
        74                         -0.2008789              -5.4662
        75                         -0.1441066              -3.9213
        76                         -0.1438365              -3.9140
        77                         -0.1432759              -3.8987
        78                         -0.1390733              -3.7844
       ...                                ...                  ...
       134                          0.7657352              20.8367
      -------------------------------------------------------------
                  HL-Gap            0.0646467 Eh            1.7591 eV

Wiberg/Mayer (AO) data.
largest (>0.10) Wiberg bond orders for each atom

     #   Z sym  total        # sym  WBO       # sym  WBO       # sym  WBO
 ---------------------------------------------------------------------------
     1   6 C    3.859 --    26 H    0.985    28 H    0.979    27 H    0.979
                             2 O    0.884
     2   8 O    2.226 --     3 C    1.148     1 C    0.884     4 O    0.147
     3   6 C    3.854 --     4 O    1.684     2 O    1.148     5 C    0.944
     4   8 O    1.948 --     3 C    1.684     2 O    0.147
     5   6 C    3.952 --    25 N    1.789     6 C    0.993     3 C    0.944
     6   6 C    3.856 --     7 O    1.805     5 C    0.993     8 C    0.906
     7   8 O    2.011 --     6 C    1.805
     8   6 C    3.903 --     9 O    1.636    10 N    1.247     6 C    0.906
     9   8 O    1.929 --     8 C    1.636    10 N    0.185
    10   7 N    3.363 --     8 C    1.247    11 C    0.940    29 H    0.882
                             9 O    0.185
    11   6 C    3.913 --    25 N    1.002    12 C    0.948    10 N    0.940
                            13 C    0.927
    12   6 C    3.982 --    30 H    0.982    31 H    0.981    32 H    0.980
                            11 C    0.948
    13   6 C    3.928 --    15 C    0.999    14 C    0.991    16 N    0.934
                            11 C    0.927
    14   6 C    3.990 --    13 C    0.991    33 H    0.984    35 H    0.984
                            34 H    0.981
    15   6 C    3.989 --    13 C    0.999    36 H    0.982    38 H    0.981
                            37 H    0.974
    16   7 N    3.342 --    17 C    1.246    13 C    0.934    39 H    0.886
                            18 O    0.175
    17   6 C    3.916 --    18 O    1.598    16 N    1.246    19 C    0.988
    18   8 O    1.914 --    17 C    1.598    16 N    0.175
    19   6 C    3.875 --    20 N    1.611    24 O    1.064    17 C    0.988
    20   7 N    3.018 --    19 C    1.611    21 N    1.200
    21   7 N    2.981 --    22 C    1.605    20 N    1.200
    22   6 C    3.871 --    21 N    1.605    24 O    1.083    23 C    1.031
    23   6 C    3.986 --    22 C    1.031    40 H    0.983    42 H    0.964
                            41 H    0.963
    24   8 O    2.330 --    22 C    1.083    19 C    1.064
    25   7 N    3.064 --     5 C    1.789    11 C    1.002
    26   1 H    1.008 --     1 C    0.985
    27   1 H    1.004 --     1 C    0.979
    28   1 H    1.004 --     1 C    0.979
    29   1 H    0.929 --    10 N    0.882
    30   1 H    0.999 --    12 C    0.982
    31   1 H    0.999 --    12 C    0.981
    32   1 H    0.999 --    12 C    0.980
    33   1 H    1.002 --    14 C    0.984
    34   1 H    1.005 --    14 C    0.981
    35   1 H    1.004 --    14 C    0.984
    36   1 H    1.001 --    15 C    0.982
    37   1 H    1.009 --    15 C    0.974
    38   1 H    0.998 --    15 C    0.981
    39   1 H    0.969 --    16 N    0.886
    40   1 H    0.998 --    23 C    0.983
    41   1 H    0.997 --    23 C    0.963
    42   1 H    0.997 --    23 C    0.964
 ---------------------------------------------------------------------------

           -------------------------------------------------
          | TOTAL ENERGY              -82.983832436135 Eh   |
          | GRADIENT NORM               0.000601697432 Eh/α |
          | HOMO-LUMO GAP               1.759127454654 eV   |
           -------------------------------------------------

 * finished run on 2023/06/21 at 17:25:32.224
