   * xtb version 6.5.1 (579679a) compiled by 'ehlert@majestix' on 2022-07-11
          program call               : /lustre/hpc/kemi/ree/PhD/git/ReactivityQM/dep/xtb-6.5.1/bin/xtb --gfn 1 /lustre/hpc/kemi/ree/PhD/git/ReactivityQM/calculations/R02methylcation/reac01prodN12/conf09/R02methylcation_reac01prodN12_conf09_gfn1.xyz --opt --vfukui --chrg 0 --uhf 0 --alpb DMSO

   ID    Z sym.   atoms
    1    6 C      1, 3, 5, 7-10, 12, 14, 15, 18, 19, 22, 24
    2    8 O      2, 4, 13, 20, 23, 25
    3    7 N      6, 11, 16, 17, 21
    4    1 H      26-42

      * Solvation model:               ALPB
        Solvent                        DMSO
        Solvent mass                       7.8130E+01 g/mol
          :  Hamiltonian                  GFN1-xTB          :
 * total energy  :   -82.9329251 Eh     change       -0.3689991E-09 Eh
 * total energy  :   -82.9430692 Eh     change       -0.1014413E-01 Eh
 * total energy  :   -82.9468789 Eh     change       -0.3809644E-02 Eh
 * total energy  :   -82.9474724 Eh     change       -0.5935861E-03 Eh
 * total energy  :   -82.9478580 Eh     change       -0.3856039E-03 Eh
 * total energy  :   -82.9479989 Eh     change       -0.1408298E-03 Eh
 * total energy  :   -82.9480885 Eh     change       -0.8958696E-04 Eh
 * total energy  :   -82.9481578 Eh     change       -0.6935604E-04 Eh
 * total energy  :   -82.9482257 Eh     change       -0.6786013E-04 Eh
 * total energy  :   -82.9482954 Eh     change       -0.6968404E-04 Eh
 * total energy  :   -82.9492599 Eh     change       -0.1852752E-04 Eh
 * total energy  :   -82.9492742 Eh     change       -0.1428434E-04 Eh
 * total energy  :   -82.9492850 Eh     change       -0.1079439E-04 Eh
 * total energy  :   -82.9492922 Eh     change       -0.7207379E-05 Eh
 * total energy  :   -82.9492996 Eh     change       -0.7405713E-05 Eh
 * total energy  :   -82.9493084 Eh     change       -0.8729997E-05 Eh
 * total energy  :   -82.9493050 Eh     change        0.3376396E-05 Eh
 * total energy  :   -82.9493110 Eh     change       -0.6029064E-05 Eh
 * total energy  :   -82.9493130 Eh     change       -0.1989916E-05 Eh
   *** GEOMETRY OPTIMIZATION CONVERGED AFTER 50 ITERATIONS ***

 final structure:
================
42
 xtb: 6.5.1 (579679a)
C            6.23134899372405       -1.19463424733841        2.23383526018222
O            5.32659323603824       -1.08884564720991        1.13580249429862
C            4.17884347432153       -0.44462642928745        1.37525272766478
O            3.91482962328649        0.03161491563640        2.46312668539574
C            3.27297600931365       -0.36481128789769        0.20788642559479
N            2.12400200206035        0.30482579741082        0.47186612711552
C            1.21432396272264        0.46591288892221       -0.43940655390745
C           -0.02691790192935        1.26662066532309       -0.09957434537046
C           -0.19775328662917        2.45210332930224       -1.05533624238377
C            0.06456046306516        1.76174594493543        1.34440714673801
N           -1.22542595599315        0.39208404870931       -0.15757510053739
C           -1.80936781597763       -0.03538026876138       -1.26669473517130
O           -1.42455894182609        0.09332271552384       -2.40924760470207
C           -3.15282132000305       -0.82595802889289       -1.01773447832679
C           -2.99416950815922       -2.23116689574046       -1.59997657154541
N           -4.20678838146562       -0.08733485873406       -1.63304838743628
N           -5.04472680462736        0.28040493472711       -0.71880455951886
C           -4.62060536556647       -0.18416350119347        0.45646453219221
C           -5.28826479705243       -0.00286364318035        1.75183012126689
O           -3.49567507516593       -0.86064068725182        0.35191949938315
N            1.36417087644991       -0.03077110561904       -1.69739036442748
C            2.46650428516885       -0.74827419168252       -2.11707292687335
O            2.51947656343220       -1.17962028739365       -3.25525419454565
C            3.55524205477222       -0.93371405321736       -1.07930979347232
O            4.58052115872571       -1.54309804944243       -1.38854845403759
H            7.11810041078793       -1.70624021997070        1.86340274476148
H            6.49624951189693       -0.20104778569624        2.60504972422058
H            5.77615039557143       -1.76918865989788        3.04476357619262
H            0.64564720076359        3.13029801553569       -0.93440449249011
H           -1.11659585904903        2.98324648508741       -0.81456573806358
H           -0.24018072250793        2.12679395932429       -2.09222165707795
H            0.91848075263763        2.42930151010986        1.44842220195903
H            0.19721300614571        0.92108585728254        2.02354652481457
H           -0.84360548110334        2.29912563335646        1.60860975404518
H           -1.65842071321972        0.18030408349706        0.72646964079578
H           -3.93772768080291       -2.76346997548774       -1.50823399027611
H           -2.22010791198977       -2.76337182019083       -1.05239546063195
H           -2.71603225671108       -2.14168910467970       -2.64819236512781
H           -5.74741944558228       -0.94649179409311        2.05531223801969
H           -4.55825414355891        0.26365594776244        2.51523507935254
H           -6.05812991215942        0.76096514161962        1.67489104396078
H            0.61831530022340        0.08791266878094       -2.37310253203396

          :  Hamiltonian                  GFN1-xTB          :
         :: total energy             -82.949313004888 Eh    ::
         :: gradient norm              0.000270131282 Eh/a0 ::
         :: HOMO-LUMO gap              0.080382563038 eV    ::
         :: SCC energy               -83.717488544232 Eh    ::
         :: -> Gsolv                  -0.076365169969 Eh    ::
         :: repulsion energy           0.794657211352 Eh    ::

    * Orbital Energies and Occupations

         #    Occupation            Energy/Eh            Energy/eV
      -------------------------------------------------------------
         1        2.0000           -0.8894728             -24.2038
       ...           ...                  ...                  ...
        55        2.0000           -0.5148898             -14.0109
        56        2.0000           -0.5069495             -13.7948
        57        2.0000           -0.5062886             -13.7768
        58        2.0000           -0.4940997             -13.4451
        59        2.0000           -0.4875151             -13.2660
        60        2.0000           -0.4859910             -13.2245
        61        2.0000           -0.4775510             -12.9948
        62        2.0000           -0.4757570             -12.9460
        63        2.0000           -0.4721717             -12.8484
        64        2.0000           -0.4666713             -12.6988
        65        2.0000           -0.4505770             -12.2608
        66        2.0000           -0.4141619             -11.2699
        67        1.6512           -0.3996042             -10.8738 (HOMO)
        68        0.3488           -0.3966502             -10.7934 (LUMO)
        69                         -0.3009906              -8.1904
        70                         -0.2908078              -7.9133
        71                         -0.2796912              -7.6108
        72                         -0.2749200              -7.4810
        73                         -0.2270101              -6.1773
        74                         -0.1584003              -4.3103
        75                         -0.1473407              -4.0093
        76                         -0.1416701              -3.8550
        77                         -0.1335389              -3.6338
        78                         -0.1315157              -3.5787
       ...                                ...                  ...
       134                          0.7483730              20.3643
      -------------------------------------------------------------
                  HL-Gap            0.0029540 Eh            0.0804 eV

Wiberg/Mayer (AO) data.
largest (>0.10) Wiberg bond orders for each atom

     #   Z sym  total        # sym  WBO       # sym  WBO       # sym  WBO
 ---------------------------------------------------------------------------
     1   6 C    3.880 --    26 H    0.986    27 H    0.979    28 H    0.979
                             2 O    0.906
     2   8 O    2.187 --     3 C    1.098     1 C    0.906     4 O    0.127
     3   6 C    3.841 --     4 O    1.623     2 O    1.098     5 C    1.037
     4   8 O    1.870 --     3 C    1.623     2 O    0.127
     5   6 C    3.737 --     6 N    1.267    24 C    1.185     3 C    1.037
     6   7 N    2.995 --     7 C    1.506     5 C    1.267
     7   6 C    3.818 --     6 N    1.506    21 N    1.178     8 C    0.978
     8   6 C    3.919 --    10 C    1.000     9 C    0.987     7 C    0.978
                            11 N    0.887
     9   6 C    3.984 --     8 C    0.987    30 H    0.983    29 H    0.983
                            31 H    0.978
    10   6 C    3.987 --     8 C    1.000    34 H    0.985    33 H    0.981
                            32 H    0.981
    11   7 N    3.365 --    12 C    1.340     8 C    0.887    35 H    0.886
                            13 O    0.175
    12   6 C    3.874 --    13 O    1.607    11 N    1.340    14 C    0.820
    13   8 O    1.968 --    12 C    1.607    11 N    0.175
    14   6 C    3.847 --    16 N    1.055    15 C    0.933    20 O    0.904
                            12 C    0.820
    15   6 C    3.939 --    37 H    0.982    36 H    0.980    38 H    0.978
                            14 C    0.933
    16   7 N    2.680 --    17 N    1.474    14 C    1.055
    17   7 N    2.968 --    16 N    1.474    18 C    1.348
    18   6 C    3.682 --    17 N    1.348    20 O    1.160    19 C    1.054
    19   6 C    3.972 --    18 C    1.054    41 H    0.977    40 H    0.955
                            39 H    0.933
    20   8 O    2.234 --    18 C    1.160    14 C    0.904
    21   7 N    3.426 --     7 C    1.178    22 C    1.124    42 H    0.865
                            23 O    0.117
    22   6 C    3.848 --    23 O    1.634    21 N    1.124    24 C    0.952
    23   8 O    1.864 --    22 C    1.634    21 N    0.117
    24   6 C    3.879 --    25 O    1.594     5 C    1.185    22 C    0.952
    25   8 O    1.789 --    24 C    1.594
    26   1 H    1.012 --     1 C    0.986
    27   1 H    1.009 --     1 C    0.979
    28   1 H    1.008 --     1 C    0.979
    29   1 H    0.999 --     9 C    0.983
    30   1 H    0.998 --     9 C    0.983
    31   1 H    1.005 --     9 C    0.978
    32   1 H    1.005 --    10 C    0.981
    33   1 H    1.006 --    10 C    0.981
    34   1 H    0.998 --    10 C    0.985
    35   1 H    0.933 --    11 N    0.886
    36   1 H    0.994 --    15 C    0.980
    37   1 H    0.995 --    15 C    0.982
    38   1 H    1.000 --    15 C    0.978
    39   1 H    0.977 --    19 C    0.933
    40   1 H    0.984 --    19 C    0.955
    41   1 H    0.993 --    19 C    0.977
    42   1 H    0.938 --    21 N    0.865
 ---------------------------------------------------------------------------

           -------------------------------------------------
          | TOTAL ENERGY              -82.949313004888 Eh   |
          | GRADIENT NORM               0.000270131282 Eh/α |
          | HOMO-LUMO GAP               0.080382563038 eV   |
           -------------------------------------------------

 * finished run on 2023/06/21 at 17:44:35.587
