   * xtb version 6.5.1 (579679a) compiled by 'ehlert@majestix' on 2022-07-11
          program call               : /lustre/hpc/kemi/ree/PhD/git/ReactivityQM/dep/xtb-6.5.1/bin/xtb --gfn 1 /lustre/hpc/kemi/ree/PhD/git/ReactivityQM/calculations/R01/reac01prodN01/conf05/R01_reac01prodN01_conf05_gfn1.xyz --opt --vfukui --chrg 1 --uhf 0 --alpb DMSO

   ID    Z sym.   atoms
    1    6 C      1, 3, 5, 8, 9, 11
    2    8 O      2, 4, 10
    3    7 N      6, 7
    4    1 H      12-20

      * Solvation model:               ALPB
        Solvent                        DMSO
        Solvent mass                       7.8130E+01 g/mol
          :  Hamiltonian                  GFN1-xTB          :
 * total energy  :   -37.5507322 Eh     change       -0.1244160E-10 Eh
 * total energy  :   -37.5664423 Eh     change       -0.1571010E-01 Eh
 * total energy  :   -37.5737005 Eh     change       -0.7258220E-02 Eh
 * total energy  :   -37.5757936 Eh     change       -0.2093064E-02 Eh
 * total energy  :   -37.5771442 Eh     change       -0.1350624E-02 Eh
 * total energy  :   -37.5776907 Eh     change       -0.5464523E-03 Eh
 * total energy  :   -37.5780614 Eh     change       -0.3707059E-03 Eh
 * total energy  :   -37.5783045 Eh     change       -0.2431630E-03 Eh
 * total energy  :   -37.5784440 Eh     change       -0.1394429E-03 Eh
 * total energy  :   -37.5785494 Eh     change       -0.1053823E-03 Eh
 * total energy  :   -37.5794254 Eh     change       -0.8432864E-04 Eh
 * total energy  :   -37.5794502 Eh     change       -0.2479904E-04 Eh
 * total energy  :   -37.5794646 Eh     change       -0.1436138E-04 Eh
 * total energy  :   -37.5794816 Eh     change       -0.1700764E-04 Eh
 * total energy  :   -37.5794936 Eh     change       -0.1198767E-04 Eh
 * total energy  :   -37.5795119 Eh     change       -0.1836683E-04 Eh
 * total energy  :   -37.5795268 Eh     change       -0.1487006E-04 Eh
 * total energy  :   -37.5795340 Eh     change       -0.7166568E-05 Eh
 * total energy  :   -37.5795379 Eh     change       -0.3883602E-05 Eh
   *** GEOMETRY OPTIMIZATION CONVERGED AFTER 37 ITERATIONS ***

 final structure:
================
20
 xtb: 6.5.1 (579679a)
C            3.93077673185921       -0.23051797474285        0.10992259246253
O            2.60959402096825       -0.20050397415226        0.68609573184915
C            1.59876434964864       -0.20621586486523       -0.14355504728006
O            1.65098727381045       -0.23322282215084       -1.34437767880649
C            0.30361517230373       -0.17627630317432        0.60930605402866
N            0.08032859447208       -0.15354740480374        1.86807495306929
N           -1.26677464365274       -0.12965947412938        2.07531590024323
C           -1.86545854366559       -0.13750593163723        0.94459131042875
C           -3.30647865020883       -0.11879386929775        0.65606105359804
O           -0.91321755300672       -0.16848832030495       -0.07902624230091
C           -1.10690474915911       -0.18188330134452       -1.53209248907644
H            4.62408426350167       -0.25051687905383        0.94746599691022
H            4.08056138296373        0.66131996575641       -0.49995870876650
H            4.03772477511145       -1.12310054916674       -0.50787194599812
H           -3.84930928137738       -0.10903873715531        1.60000416697805
H           -3.56752164932946        0.76751387105015        0.07636560543094
H           -3.59210940967386       -0.99914230979112        0.07947687214921
H           -2.17818704452138       -0.17461828468831       -1.70190426371349
H           -0.62675535128542        0.70841505805048       -1.93175875460341
H           -0.64371868875874       -1.08964889439862       -1.91213610660262

          :  Hamiltonian                  GFN1-xTB          :
         :: total energy             -37.579537861653 Eh    ::
         :: gradient norm              0.000639356961 Eh/a0 ::
         :: HOMO-LUMO gap              3.706666403280 eV    ::
         :: SCC energy               -37.929093644931 Eh    ::
         :: -> Gsolv                  -0.089840648654 Eh    ::
         :: repulsion energy           0.358276923815 Eh    ::

    * Orbital Energies and Occupations

         #    Occupation            Energy/Eh            Energy/eV
      -------------------------------------------------------------
         1        2.0000           -0.9754365             -26.5430
       ...           ...                  ...                  ...
        18        2.0000           -0.6071208             -16.5206
        19        2.0000           -0.6032217             -16.4145
        20        2.0000           -0.5994029             -16.3106
        21        2.0000           -0.5934685             -16.1491
        22        2.0000           -0.5857555             -15.9392
        23        2.0000           -0.5723359             -15.5741
        24        2.0000           -0.5624341             -15.3046
        25        2.0000           -0.5502054             -14.9719
        26        2.0000           -0.5416995             -14.7404
        27        2.0000           -0.5294639             -14.4074
        28        2.0000           -0.5288479             -14.3907
        29        2.0000           -0.5195917             -14.1388
        30        2.0000           -0.5141543             -13.9908 (HOMO)
        31                         -0.3779368             -10.2842 (LUMO)
        32                         -0.3209627              -8.7338
        33                         -0.2591486              -7.0518
        34                         -0.1947732              -5.3000
        35                         -0.1789124              -4.8685
        36                         -0.1551290              -4.2213
        37                         -0.1278232              -3.4782
        38                         -0.1185614              -3.2262
        39                         -0.1176989              -3.2027
        40                         -0.1042194              -2.8360
        41                         -0.0901319              -2.4526
       ...                                ...                  ...
        62                          0.7188820              19.5618
      -------------------------------------------------------------
                  HL-Gap            0.1362175 Eh            3.7067 eV

Wiberg/Mayer (AO) data.
largest (>0.10) Wiberg bond orders for each atom

     #   Z sym  total        # sym  WBO       # sym  WBO       # sym  WBO
 ---------------------------------------------------------------------------
     1   6 C    3.832 --    12 H    0.984    14 H    0.977    13 H    0.976
                             2 O    0.862
     2   8 O    2.245 --     3 C    1.178     1 C    0.862     4 O    0.154
     3   6 C    3.879 --     4 O    1.670     2 O    1.178     5 C    0.962
     4   8 O    1.976 --     3 C    1.670     2 O    0.154
     5   6 C    3.810 --     6 N    1.708     3 C    0.962    10 O    0.883
     6   7 N    3.040 --     5 C    1.708     7 N    1.159
     7   7 N    3.024 --     8 C    1.684     6 N    1.159
     8   6 C    3.800 --     7 N    1.684     9 C    1.046    10 O    0.881
     9   6 C    3.967 --     8 C    1.046    15 H    0.968    17 H    0.948
                            16 H    0.948
    10   8 O    2.653 --     5 C    0.883     8 C    0.881    11 C    0.742
    11   6 C    3.717 --    18 H    0.973    19 H    0.967    20 H    0.967
                            10 O    0.742
    12   1 H    1.005 --     1 C    0.984
    13   1 H    0.999 --     1 C    0.976
    14   1 H    0.999 --     1 C    0.977
    15   1 H    0.988 --     9 C    0.968
    16   1 H    0.987 --     9 C    0.948
    17   1 H    0.987 --     9 C    0.948
    18   1 H    0.989 --    11 C    0.973
    19   1 H    0.995 --    11 C    0.967
    20   1 H    0.996 --    11 C    0.967
 ---------------------------------------------------------------------------

           -------------------------------------------------
          | TOTAL ENERGY              -37.579537861653 Eh   |
          | GRADIENT NORM               0.000639356961 Eh/α |
          | HOMO-LUMO GAP               3.706666403280 eV   |
           -------------------------------------------------

 * finished run on 2023/06/20 at 14:54:44.764
