   * xtb version 6.5.1 (579679a) compiled by 'ehlert@majestix' on 2022-07-11
          program call               : /lustre/hpc/kemi/ree/PhD/git/ReactivityQM/dep/xtb-6.5.1/bin/xtb --gfn 1 /lustre/hpc/kemi/ree/PhD/git/ReactivityQM/calculations/RaltegravirCLI/reac02prodN09/conf07/RaltegravirCLI_reac02prodN09_conf07_gfn1.xyz --opt --vfukui --chrg 1 --uhf 0 --alpb DMSO

   ID    Z sym.   atoms
    1    6 C      1-4, 6-9, 11, 13, 15-18, 21, 22, 24
    2    9 F      5
    3    7 N      10, 14, 19, 20
    4    8 O      12, 23, 25
    5    1 H      26-47

      * Solvation model:               ALPB
        Solvent                        DMSO
        Solvent mass                       7.8130E+01 g/mol
          :  Hamiltonian                  GFN1-xTB          :
 * total energy  :   -79.4717655 Eh     change       -0.3570619E-09 Eh
 * total energy  :   -79.4801576 Eh     change       -0.8392114E-02 Eh
 * total energy  :   -79.4824517 Eh     change       -0.2294123E-02 Eh
 * total energy  :   -79.4827747 Eh     change       -0.3229272E-03 Eh
 * total energy  :   -79.4829885 Eh     change       -0.2137948E-03 Eh
 * total energy  :   -79.4830552 Eh     change       -0.6675067E-04 Eh
 * total energy  :   -79.4831083 Eh     change       -0.5304399E-04 Eh
 * total energy  :   -79.4831335 Eh     change       -0.2522664E-04 Eh
 * total energy  :   -79.4831489 Eh     change       -0.1542718E-04 Eh
 * total energy  :   -79.4831602 Eh     change       -0.1133414E-04 Eh
 * total energy  :   -79.4831727 Eh     change       -0.1246702E-04 Eh
 * total energy  :   -79.4831804 Eh     change       -0.7685552E-05 Eh
 * total energy  :   -79.4831878 Eh     change       -0.7400367E-05 Eh
 * total energy  :   -79.4831942 Eh     change       -0.6405574E-05 Eh
 * total energy  :   -79.4831985 Eh     change       -0.4301429E-05 Eh
   *** GEOMETRY OPTIMIZATION CONVERGED AFTER 15 ITERATIONS ***

 final structure:
================
47
 xtb: 6.5.1 (579679a)
C            3.28966477970776       -1.66008028277065       -0.75299323521039
C            3.74673052121513       -0.37994944460075        0.02937222069371
C            4.96141990814187       -0.73565961745023        0.78313116480328
C            6.14560240069739       -0.13194349476317        0.49784256325950
F            7.24340025485872       -0.48850029117394        1.15330609760869
C            6.26191686553237        0.87276390728791       -0.47558998389163
C            5.12890454943055        1.31561627520321       -1.14726206405957
C            3.88594397695265        0.76430208532921       -0.89471591024253
C            2.66795962448407        1.31166048420376       -1.56469662284959
N            1.51932919850803        1.30958188319316       -0.68196406267200
C            0.47215586701884        0.47833584463488       -0.91594847019153
O            0.49162074691088       -0.33631589932634       -1.82778740591924
C           -0.68151583299481        0.60556182363515        0.02181651492795
N           -1.76780848506202       -0.14279712824669       -0.32818378544078
C           -2.84813389839365       -0.16588621489446        0.38800621799080
C           -3.98316632583966       -1.03286825523100       -0.14382219511063
C           -3.44931898024468       -1.92391929090790       -1.27890240878343
C           -5.10764272185757       -0.13921056873300       -0.68460574140692
N           -4.50453731302625       -1.87807918130753        0.92287227456518
N           -2.96578583041034        0.57544591088502        1.53587792438612
C           -4.16622064507591        0.63756406010072        2.37528307470820
C           -1.92424352213622        1.36444062381768        1.98361310697097
O           -1.99963044090931        2.04192470288086        3.00534182473960
C           -0.72535726824063        1.34708285415739        1.16659374127400
O            0.29184896137025        2.10091050120706        1.62699691894099
H            4.06031310983088       -1.93962442692007       -1.46702156472750
H            3.13425839144453       -2.46808143822199       -0.04238477032671
H            2.36042221049524       -1.44832213534647       -1.27629248899516
H            2.91939296680061       -0.17971851467918        0.72607598343439
H            4.89526462038055       -1.52352833903941        1.52323999861402
H            7.23307873628993        1.31160233932198       -0.67266692002255
H            5.22244705758793        2.12606435389964       -1.86089854943602
H            2.41806255506866        0.67693688676893       -2.42823206863342
H            2.85719443331756        2.32508396059768       -1.92808546571267
H            1.48700732786331        2.01788684046934        0.03285368833237
H           -2.61727238045289       -2.52751922357083       -0.92085786786393
H           -3.10514836624564       -1.30989553194054       -2.10996319387780
H           -4.24410329778082       -2.58256290120684       -1.62423778550652
H           -5.55364775168442        0.45299342752466        0.11159630354400
H           -5.88255516703673       -0.76057232702838       -1.13136334947429
H           -4.71235981164634        0.53292780058745       -1.44532703433420
H           -3.80098438313484       -2.53033791740344        1.23747264948199
H           -5.31158167313372       -2.39112136306605        0.59937033705890
H           -4.78267407292122       -0.24110604001055        2.20960267343954
H           -3.84747462028494        0.67533035817472        3.41723273002568
H           -4.72165144400397        1.54547650295937        2.13795875784758
H            0.00887316862170        2.52810540100672        2.46033317805182

          :  Hamiltonian                  GFN1-xTB          :
         :: total energy             -79.483198504712 Eh    ::
         :: gradient norm              0.000548906378 Eh/a0 ::
         :: HOMO-LUMO gap              0.157089120912 eV    ::
         :: SCC energy               -80.364656284901 Eh    ::
         :: -> Gsolv                  -0.103875744666 Eh    ::
         :: repulsion energy           0.912069443383 Eh    ::

    * Orbital Energies and Occupations

         #    Occupation            Energy/Eh            Energy/eV
      -------------------------------------------------------------
         1        2.0000           -0.9131888             -24.8491
       ...           ...                  ...                  ...
        55        2.0000           -0.5208351             -14.1726
        56        2.0000           -0.5167745             -14.0622
        57        2.0000           -0.5090589             -13.8522
        58        2.0000           -0.5016328             -13.6501
        59        2.0000           -0.4986631             -13.5693
        60        2.0000           -0.4937680             -13.4361
        61        2.0000           -0.4807608             -13.0822
        62        2.0000           -0.4759124             -12.9502
        63        2.0000           -0.4638928             -12.6232
        64        2.0000           -0.4593717             -12.5001
        65        2.0000           -0.4470343             -12.1644
        66        2.0000           -0.4313932             -11.7388
        67        1.9086           -0.4231840             -11.5154 (HOMO)
        68        0.0915           -0.4174110             -11.3583 (LUMO)
        69                         -0.3254382              -8.8556
        70                         -0.3230319              -8.7901
        71                         -0.2838886              -7.7250
        72                         -0.2421394              -6.5889
        73                         -0.2418492              -6.5811
        74                         -0.1596076              -4.3431
        75                         -0.1559962              -4.2449
        76                         -0.1495967              -4.0707
        77                         -0.1416950              -3.8557
        78                         -0.1394898              -3.7957
       ...                                ...                  ...
       144                          0.7052223              19.1901
      -------------------------------------------------------------
                  HL-Gap            0.0057729 Eh            0.1571 eV

Wiberg/Mayer (AO) data.
largest (>0.10) Wiberg bond orders for each atom

     #   Z sym  total        # sym  WBO       # sym  WBO       # sym  WBO
 ---------------------------------------------------------------------------
     1   6 C    3.944 --    26 H    0.987    27 H    0.982    28 H    0.969
                             2 C    0.864
     2   6 C    3.988 --     3 C    1.084     8 C    1.083    29 H    0.886
                             1 C    0.864
     3   6 C    3.927 --     4 C    1.543     2 C    1.084    30 H    0.960
     4   6 C    3.882 --     3 C    1.543     6 C    1.284     5 F    0.963
     5   9 F    1.105 --     4 C    0.963
     6   6 C    3.904 --     7 C    1.424     4 C    1.284    31 H    0.961
     7   6 C    3.985 --     8 C    1.468     6 C    1.424    32 H    0.960
     8   6 C    3.892 --     7 C    1.468     2 C    1.083     9 C    1.040
     9   6 C    3.954 --     8 C    1.040    10 N    0.959    34 H    0.959
                            33 H    0.911
    10   7 N    3.316 --    11 C    1.225     9 C    0.959    35 H    0.875
                            12 O    0.160
    11   6 C    3.897 --    12 O    1.583    10 N    1.225    13 C    1.002
    12   8 O    1.908 --    11 C    1.583    10 N    0.160
    13   6 C    3.964 --    24 C    1.500    14 N    1.197    11 C    1.002
    14   7 N    3.028 --    15 C    1.561    13 C    1.197
    15   6 C    3.920 --    14 N    1.561    20 N    1.177    16 C    0.975
    16   6 C    3.954 --    18 C    0.983    17 C    0.983    19 N    0.979
                            15 C    0.975
    17   6 C    3.978 --    38 H    0.985    36 H    0.984    16 C    0.983
                            37 H    0.981
    18   6 C    3.991 --    41 H    0.985    16 C    0.983    40 H    0.982
                            39 H    0.982
    19   7 N    2.961 --    16 C    0.979    42 H    0.932    43 H    0.930
    20   7 N    3.518 --    15 C    1.177    22 C    1.137    21 C    0.924
                            23 O    0.134
    21   6 C    3.910 --    45 H    0.976    46 H    0.975    44 H    0.966
                            20 N    0.924
    22   6 C    3.917 --    23 O    1.546    20 N    1.137    24 C    1.086
    23   8 O    1.891 --    22 C    1.546    20 N    0.134
    24   6 C    3.914 --    13 C    1.500    22 C    1.086    25 O    1.077
    25   8 O    2.068 --    24 C    1.077    47 H    0.794
    26   1 H    0.995 --     1 C    0.987
    27   1 H    0.994 --     1 C    0.982
    28   1 H    1.007 --     1 C    0.969
    29   1 H    0.990 --     2 C    0.886
    30   1 H    0.987 --     3 C    0.960
    31   1 H    0.987 --     6 C    0.961
    32   1 H    0.989 --     7 C    0.960
    33   1 H    0.996 --     9 C    0.911
    34   1 H    0.994 --     9 C    0.959
    35   1 H    0.933 --    10 N    0.875
    36   1 H    1.009 --    17 C    0.984
    37   1 H    1.010 --    17 C    0.981
    38   1 H    1.002 --    17 C    0.985
    39   1 H    1.002 --    18 C    0.982
    40   1 H    0.999 --    18 C    0.982
    41   1 H    1.002 --    18 C    0.985
    42   1 H    0.948 --    19 N    0.932
    43   1 H    0.945 --    19 N    0.930
    44   1 H    1.022 --    21 C    0.966
    45   1 H    1.006 --    21 C    0.976
    46   1 H    1.001 --    21 C    0.975
    47   1 H    0.839 --    25 O    0.794
 ---------------------------------------------------------------------------

           -------------------------------------------------
          | TOTAL ENERGY              -79.483198504712 Eh   |
          | GRADIENT NORM               0.000548906378 Eh/α |
          | HOMO-LUMO GAP               0.157089120912 eV   |
           -------------------------------------------------

 * finished run on 2023/06/20 at 15:28:54.582
