   * xtb version 6.5.1 (579679a) compiled by 'ehlert@majestix' on 2022-07-11
          program call               : /lustre/hpc/kemi/ree/PhD/git/ReactivityQM/dep/xtb-6.5.1/bin/xtb --gfn 1 /lustre/hpc/kemi/ree/PhD/git/ReactivityQM/calculations/RaltegravirCLI/reac02prodE09/conf11/RaltegravirCLI_reac02prodE09_conf11_gfn1.xyz --opt --vfukui --chrg -1 --uhf 0 --alpb DMSO

   ID    Z sym.   atoms
    1    6 C      1, 3-6, 9, 10, 13-18, 20-22, 24
    2    7 N      2, 7, 8, 12
    3    8 O      11, 23, 25
    4    9 F      19
    5    1 H      26-47

      * Solvation model:               ALPB
        Solvent                        DMSO
        Solvent mass                       7.8130E+01 g/mol
          :  Hamiltonian                  GFN1-xTB          :
 * total energy  :   -80.1876709 Eh     change       -0.7979395E-10 Eh
 * total energy  :   -80.1974637 Eh     change       -0.9792850E-02 Eh
 * total energy  :   -80.2014398 Eh     change       -0.3976097E-02 Eh
 * total energy  :   -80.2027857 Eh     change       -0.1345905E-02 Eh
 * total energy  :   -80.2041844 Eh     change       -0.1398673E-02 Eh
 * total energy  :   -80.2054954 Eh     change       -0.1310993E-02 Eh
 * total energy  :   -80.2073922 Eh     change       -0.1896798E-02 Eh
 * total energy  :   -80.2103103 Eh     change       -0.2918053E-02 Eh
 * total energy  :   -80.2128227 Eh     change       -0.2512423E-02 Eh
 * total energy  :   -80.2152946 Eh     change       -0.2471952E-02 Eh
 * total energy  :   -80.2330521 Eh     change       -0.2479546E-04 Eh
 * total energy  :   -80.2330826 Eh     change       -0.3053845E-04 Eh
 * total energy  :   -80.2330952 Eh     change       -0.1254298E-04 Eh
 * total energy  :   -80.2331103 Eh     change       -0.1511085E-04 Eh
 * total energy  :   -80.2331232 Eh     change       -0.1286438E-04 Eh
 * total energy  :   -80.2331350 Eh     change       -0.1181231E-04 Eh
 * total energy  :   -80.2331493 Eh     change       -0.1429429E-04 Eh
 * total energy  :   -80.2331581 Eh     change       -0.8839802E-05 Eh
 * total energy  :   -80.2331614 Eh     change       -0.3302286E-05 Eh
   *** GEOMETRY OPTIMIZATION CONVERGED AFTER 67 ITERATIONS ***

 final structure:
================
47
 xtb: 6.5.1 (579679a)
C           -4.65421795150103        1.35730664827330       -1.22461486998292
N           -3.35382464167561        1.10568226475468       -0.60222414552896
C           -3.00277948837747       -0.06075816355932        0.03200881712301
C           -3.96502429171878       -1.23621697519065        0.17218046289583
C           -3.20302060942098       -2.45080727305862        0.72730790412774
C           -5.08740056397990       -0.85598254326116        1.14765056963375
N           -4.55145682619770       -1.57518101405202       -1.12343321566949
N           -1.84488602787220       -0.20218641831608        0.59309916897779
C           -0.90598176055786        0.79195048707887        0.59546763595916
C            0.35768576952637        0.41988811788342        1.32130816579002
O            0.50868920130606       -0.70101992252221        1.79521707869251
N            1.29154687952299        1.38178956854061        1.42316358146328
C            2.54457624917365        1.13192673706905        2.13636196706256
C            3.57134174520711        0.50993687381597        1.21399441818539
C            4.44780561181287        1.30923684883177        0.48513676488341
C            5.36938026757189        0.73589170298138       -0.37882298150873
C            5.43453331534146       -0.64832936289152       -0.53919393130704
C            6.39881392331195       -1.26313262447393       -1.50749009241099
F            5.00650948129479       -1.43609397664864       -4.20939170915004
C            4.55880483418639       -1.44362594679167        0.19965946927510
C            3.63778379032071       -0.87290978127050        1.06491659658228
C           -1.19307405293214        1.97271840957146       -0.02493305710926
O           -0.35112086932095        3.02648307346761       -0.10007049775206
C           -2.48338808034561        2.17660461951686       -0.65385550374275
O           -2.78104162300404        3.24174390536718       -1.19567742991965
H           -4.49484342557269        1.97969935288680       -2.10546869227361
H           -5.11670874442108        0.41852188719586       -1.51453518344399
H           -5.29240529230474        1.89425677640561       -0.52270741782136
H           -2.36586219041589       -2.70103004061146        0.07628060704865
H           -2.82048799119848       -2.23728404900467        1.72483786172587
H           -3.87788203631081       -3.30315211440339        0.77904728161669
H           -4.66333220875287       -0.52572247760728        2.09548285033755
H           -5.70640355544147       -0.05860100125191        0.74255035302550
H           -5.72003228261806       -1.72335937683346        1.32973223369059
H           -3.86456390323271       -2.03901501860508       -1.70415406300885
H           -5.31682281811263       -2.21725952846859       -0.97898659499975
H            1.13751892952219        2.30833246197487        1.06536174782051
H            2.89947008025872        2.08971656374206        2.52298295747701
H            2.33168183920895        0.46336651332953        2.97730713932419
H            4.41671423904144        2.38721963909061        0.60044094182804
H            6.04977388305779        1.37730666172221       -0.93082836771806
H            7.30926944356066       -0.66905164294204       -1.58338087429077
H            6.65989979060404       -2.27823799077839       -1.20909400160864
H            5.93497205480992       -1.30863777126160       -2.50660851880188
H            4.59984911585282       -2.52425702400623        0.10393782774669
H            2.96443632082484       -1.50593299698038        1.63376637471578
H           -0.81449853004373        3.75820492127567       -0.54918062896694

          :  Hamiltonian                  GFN1-xTB          :
         :: total energy             -80.233161406894 Eh    ::
         :: gradient norm              0.000771907163 Eh/a0 ::
         :: HOMO-LUMO gap              0.690828401173 eV    ::
         :: SCC energy               -81.127064128126 Eh    ::
         :: -> Gsolv                  -0.164004407548 Eh    ::
         :: repulsion energy           0.923090705906 Eh    ::

    * Orbital Energies and Occupations

         #    Occupation            Energy/Eh            Energy/eV
      -------------------------------------------------------------
         1        2.0000           -0.8232480             -22.4017
       ...           ...                  ...                  ...
        56        2.0000           -0.4615183             -12.5586
        57        2.0000           -0.4591606             -12.4944
        58        2.0000           -0.4494507             -12.2302
        59        2.0000           -0.4429092             -12.0522
        60        2.0000           -0.4310766             -11.7302
        61        2.0000           -0.4281501             -11.6506
        62        2.0000           -0.4238362             -11.5332
        63        2.0000           -0.4176896             -11.3659
        64        2.0000           -0.4115278             -11.1982
        65        2.0000           -0.4092710             -11.1368
        66        2.0000           -0.3330200              -9.0619
        67        2.0000           -0.3330172              -9.0619
        68        2.0000           -0.3325191              -9.0483 (HOMO)
        69        0.0000           -0.3071316              -8.3575 (LUMO)
        70                         -0.2707208              -7.3667
        71                         -0.2455749              -6.6824
        72                         -0.2441683              -6.6442
        73                         -0.2214923              -6.0271
        74                         -0.1445014              -3.9321
        75                         -0.1340629              -3.6480
        76                         -0.1233727              -3.3571
        77                         -0.1213907              -3.3032
        78                         -0.1142349              -3.1085
        79                         -0.1121130              -3.0507
       ...                                ...                  ...
       144                          0.7193430              19.5743
      -------------------------------------------------------------
                  HL-Gap            0.0253875 Eh            0.6908 eV

Wiberg/Mayer (AO) data.
largest (>0.10) Wiberg bond orders for each atom

     #   Z sym  total        # sym  WBO       # sym  WBO       # sym  WBO
 ---------------------------------------------------------------------------
     1   6 C    3.921 --    26 H    0.977    28 H    0.976    27 H    0.968
                             2 N    0.928
     2   7 N    3.515 --     3 C    1.170    24 C    1.139     1 C    0.928
                            25 O    0.132
     3   6 C    3.923 --     8 N    1.568     2 N    1.170     4 C    0.974
     4   6 C    3.965 --     5 C    0.992     6 C    0.985     7 N    0.980
                             3 C    0.974
     5   6 C    3.995 --     4 C    0.992    31 H    0.986    29 H    0.984
                            30 H    0.983
     6   6 C    3.994 --    32 H    0.986     4 C    0.985    34 H    0.983
                            33 H    0.982
     7   7 N    2.993 --     4 C    0.980    35 H    0.940    36 H    0.940
     8   7 N    3.032 --     3 C    1.568     9 C    1.197
     9   6 C    3.963 --    22 C    1.509     8 N    1.197    10 C    0.988
    10   6 C    3.909 --    11 O    1.568    12 N    1.275     9 C    0.988
    11   8 O    1.873 --    10 C    1.568    12 N    0.173
    12   7 N    3.354 --    10 C    1.275    13 C    0.935    37 H    0.890
                            11 O    0.173
    13   6 C    3.945 --    14 C    0.992    38 H    0.978    39 H    0.973
                            12 N    0.935
    14   6 C    3.985 --    15 C    1.416    21 C    1.415    13 C    0.992
                            17 C    0.106
    15   6 C    3.995 --    16 C    1.452    14 C    1.416    40 H    0.973
                            20 C    0.107
    16   6 C    3.995 --    15 C    1.452    17 C    1.404    41 H    0.973
                            21 C    0.108
    17   6 C    3.986 --    20 C    1.404    16 C    1.404    18 C    1.032
                            14 C    0.106
    18   6 C    3.989 --    17 C    1.032    43 H    0.984    42 H    0.983
                            44 H    0.927
    19   9 F    0.100
    20   6 C    3.995 --    21 C    1.453    17 C    1.404    45 H    0.973
                            15 C    0.107
    21   6 C    3.995 --    20 C    1.453    14 C    1.415    46 H    0.971
                            16 C    0.108
    22   6 C    3.916 --     9 C    1.509    24 C    1.095    23 O    1.067
    23   8 O    2.061 --    22 C    1.067    47 H    0.803
    24   6 C    3.917 --    25 O    1.532     2 N    1.139    22 C    1.095
    25   8 O    1.880 --    24 C    1.532     2 N    0.132
    26   1 H    1.009 --     1 C    0.977
    27   1 H    1.029 --     1 C    0.968
    28   1 H    1.004 --     1 C    0.976
    29   1 H    1.010 --     5 C    0.984
    30   1 H    1.013 --     5 C    0.983
    31   1 H    1.004 --     5 C    0.986
    32   1 H    1.003 --     6 C    0.986
    33   1 H    1.003 --     6 C    0.982
    34   1 H    1.000 --     6 C    0.983
    35   1 H    0.956 --     7 N    0.940
    36   1 H    0.954 --     7 N    0.940
    37   1 H    0.947 --    12 N    0.890
    38   1 H    1.005 --    13 C    0.978
    39   1 H    1.011 --    13 C    0.973
    40   1 H    1.002 --    15 C    0.973
    41   1 H    1.003 --    16 C    0.973
    42   1 H    1.006 --    18 C    0.983
    43   1 H    1.006 --    18 C    0.984
    44   1 H    1.039 --    18 C    0.927
    45   1 H    1.003 --    20 C    0.973
    46   1 H    1.014 --    21 C    0.971
    47   1 H    0.848 --    23 O    0.803
 ---------------------------------------------------------------------------

           -------------------------------------------------
          | TOTAL ENERGY              -80.233161406894 Eh   |
          | GRADIENT NORM               0.000771907163 Eh/α |
          | HOMO-LUMO GAP               0.690828401173 eV   |
           -------------------------------------------------

 * finished run on 2023/06/20 at 15:09:59.691
