   * xtb version 6.5.1 (579679a) compiled by 'ehlert@majestix' on 2022-07-11
          program call               : /lustre/hpc/kemi/ree/PhD/git/ReactivityQM/dep/xtb-6.5.1/bin/xtb --gfn 1 /lustre/hpc/kemi/ree/PhD/git/ReactivityQM/calculations/RaltegravirCLI/reac02prodN16/conf20/RaltegravirCLI_reac02prodN16_conf20_gfn1.xyz --opt --vfukui --chrg 1 --uhf 0 --alpb DMSO

   ID    Z sym.   atoms
    1    6 C      1, 3-7, 9, 11, 13-16, 19, 20, 22, 24, 25
    2    9 F      2
    3    7 N      8, 12, 17, 18
    4    8 O      10, 21, 23
    5    1 H      26-47

      * Solvation model:               ALPB
        Solvent                        DMSO
        Solvent mass                       7.8130E+01 g/mol
          :  Hamiltonian                  GFN1-xTB          :
 * total energy  :   -79.4273771 Eh     change       -0.1099920E-10 Eh
 * total energy  :   -79.4432164 Eh     change       -0.1583927E-01 Eh
 * total energy  :   -79.4480635 Eh     change       -0.4847097E-02 Eh
 * total energy  :   -79.4489094 Eh     change       -0.8458746E-03 Eh
 * total energy  :   -79.4494065 Eh     change       -0.4971221E-03 Eh
 * total energy  :   -79.4496633 Eh     change       -0.2568524E-03 Eh
 * total energy  :   -79.4498433 Eh     change       -0.1799614E-03 Eh
 * total energy  :   -79.4499702 Eh     change       -0.1269212E-03 Eh
 * total energy  :   -79.4500675 Eh     change       -0.9728509E-04 Eh
 * total energy  :   -79.4501507 Eh     change       -0.8315045E-04 Eh
 * total energy  :   -79.4505677 Eh     change       -0.1052689E-04 Eh
 * total energy  :   -79.4505822 Eh     change       -0.1443708E-04 Eh
 * total energy  :   -79.4479416 Eh     change        0.2640520E-02 Eh
 * total energy  :   -79.4502861 Eh     change       -0.2344472E-02 Eh
 * total energy  :   -79.4504942 Eh     change       -0.2080999E-03 Eh
 * total energy  :   -79.4505804 Eh     change       -0.8622662E-04 Eh
 * total energy  :   -79.4506140 Eh     change       -0.3355705E-04 Eh
 * total energy  :   -79.4506271 Eh     change       -0.1313572E-04 Eh
 * total energy  :   -79.4506316 Eh     change       -0.4510824E-05 Eh
   *** GEOMETRY OPTIMIZATION CONVERGED AFTER 41 ITERATIONS ***

 final structure:
================
47
 xtb: 6.5.1 (579679a)
C            7.11040836921994        1.93873293332984        1.61529910201915
F            5.92201415971348        1.16261362319885        1.86516832885342
C            5.04284337955815        0.53478882563190        0.87015967766599
C            5.28394180862379       -0.78498548366160        0.59279771296370
C            4.42319835196271       -1.37622056533693       -0.32713019378859
C            3.39709798260713       -0.64171658655713       -0.91901540994829
C            2.46138700127659       -1.30037534451223       -1.91094542350962
N            1.17142295071233       -1.56784742340234       -1.29353156918897
C            0.21514871105101       -0.60981860506378       -1.28344768311159
O            0.35597576882688        0.45542194576010       -1.87112344098714
C           -1.03647189953866       -0.93313488965795       -0.52868451597945
N           -1.93345020929349        0.09617143375842       -0.48700946660619
C           -3.06321165942383        0.00062598660949        0.14004418523647
C           -3.96037407297616        1.23104022006670        0.08186626775341
C           -4.99194541360650        1.04192767556540       -1.04101800549381
C           -3.09635191641982        2.46635972934808       -0.22578652268428
N           -4.65202445417716        1.42088903635636        1.35240134433189
N           -3.44206288214974       -1.15685384883426        0.77442003786583
C           -4.71355373115627       -1.31360432901703        1.48687201064646
C           -2.60078564970942       -2.25132627688899        0.81257579054660
O           -2.88598408841108       -3.29553671202379        1.39673742173827
C           -1.34123229760467       -2.10131224308037        0.10662272759792
O           -0.53765651727234       -3.18386899343791        0.14351988350165
C            3.22086860086924        0.70261090162611       -0.58760008904851
C            4.05864132726209        1.32311961422550        0.33139513804743
H            7.49079101210109        2.15023997899379        2.61009481639852
H            7.76701782372160        1.30357216076873        1.02794741569939
H            6.78288496320071        2.82611201122711        1.08174046795497
H            6.08977418870226       -1.33251916154865        1.06017614922007
H            4.56871411539602       -2.41830255478422       -0.58356542594565
H            2.87847741505897       -2.24735294048629       -2.25759215090908
H            2.29868023138140       -0.63664710175683       -2.76576891043007
H            1.11552363948823       -2.37011105081399       -0.68767731703882
H           -5.65030764886945        0.20032646453262       -0.83300974378746
H           -5.59786509253651        1.94210104637777       -1.13377498196550
H           -4.48078299438471        0.86235415811883       -1.98630414446906
H           -2.32365807700320        2.57941651980400        0.53297967066121
H           -2.61793643571663        2.36590452332137       -1.19935015755499
H           -3.72470346407220        3.35525120410055       -0.22615303491083
H           -5.33964004078334        2.15449092855738        1.24842587322675
H           -3.98799591531873        1.72251577208232        2.05350898299228
H           -4.91033634262437       -2.37992040276422        1.59749162418066
H           -5.51779171352832       -0.84601708302902        0.92834806215951
H           -4.64021843246274       -0.85014031729500        2.46932610319342
H           -0.97677400949861       -3.87661111131090        0.67588533422822
H            2.42481402312742        1.27553190155719       -1.04951875774425
H            3.94348913465016        2.36210443033739        0.60502181640267

          :  Hamiltonian                  GFN1-xTB          :
         :: total energy             -79.450631649112 Eh    ::
         :: gradient norm              0.000518072864 Eh/a0 ::
         :: HOMO-LUMO gap              2.597655965260 eV    ::
         :: SCC energy               -80.348691395186 Eh    ::
         :: -> Gsolv                  -0.111285513741 Eh    ::
         :: repulsion energy           0.927201718160 Eh    ::

    * Orbital Energies and Occupations

         #    Occupation            Energy/Eh            Energy/eV
      -------------------------------------------------------------
         1        2.0000           -1.0103036             -27.4918
       ...           ...                  ...                  ...
        55        2.0000           -0.5105652             -13.8932
        56        2.0000           -0.5029991             -13.6873
        57        2.0000           -0.4951602             -13.4740
        58        2.0000           -0.4923698             -13.3981
        59        2.0000           -0.4892065             -13.3120
        60        2.0000           -0.4874229             -13.2635
        61        2.0000           -0.4724275             -12.8554
        62        2.0000           -0.4686544             -12.7527
        63        2.0000           -0.4530349             -12.3277
        64        2.0000           -0.4478797             -12.1874
        65        2.0000           -0.4393530             -11.9554
        66        2.0000           -0.4246460             -11.5552
        67        2.0000           -0.4148340             -11.2882 (HOMO)
        68                         -0.3193719              -8.6906 (LUMO)
        69                         -0.3155165              -8.5856
        70                         -0.3145777              -8.5601
        71                         -0.2774042              -7.5486
        72                         -0.2608017              -7.0968
        73                         -0.2338959              -6.3646
        74                         -0.1929179              -5.2496
        75                         -0.1849353              -5.0323
        76                         -0.1526516              -4.1539
        77                         -0.1450425              -3.9468
        78                         -0.1449349              -3.9439
       ...                                ...                  ...
       144                          0.7103563              19.3298
      -------------------------------------------------------------
                  HL-Gap            0.0954621 Eh            2.5977 eV

Wiberg/Mayer (AO) data.
largest (>0.10) Wiberg bond orders for each atom

     #   Z sym  total        # sym  WBO       # sym  WBO       # sym  WBO
 ---------------------------------------------------------------------------
     1   6 C    3.675 --    28 H    0.980    27 H    0.980    26 H    0.974
                             2 F    0.715
     2   9 F    1.439 --     1 C    0.715     3 C    0.636
     3   6 C    3.690 --     4 C    1.437    25 C    1.430     2 F    0.636
     4   6 C    3.984 --     3 C    1.437     5 C    1.418    29 H    0.961
                            24 C    0.112
     5   6 C    3.987 --     6 C    1.424     4 C    1.418    30 H    0.965
                            25 C    0.110
     6   6 C    3.984 --     5 C    1.424    24 C    1.413     7 C    0.995
     7   6 C    3.952 --     6 C    0.995    31 H    0.976    32 H    0.964
                             8 N    0.950
     8   7 N    3.328 --     9 C    1.243     7 C    0.950    33 H    0.884
                            10 O    0.163
     9   6 C    3.902 --    10 O    1.579     8 N    1.243    11 C    0.998
    10   8 O    1.889 --     9 C    1.579     8 N    0.163
    11   6 C    3.965 --    22 C    1.505    12 N    1.196     9 C    0.998
    12   7 N    3.030 --    13 C    1.565    11 C    1.196
    13   6 C    3.922 --    12 N    1.565    18 N    1.171    14 C    0.976
    14   6 C    3.966 --    16 C    0.988    17 N    0.985    15 C    0.981
                            13 C    0.976
    15   6 C    3.993 --    36 H    0.986    35 H    0.983    14 C    0.981
                            34 H    0.980
    16   6 C    3.994 --    14 C    0.988    39 H    0.986    37 H    0.985
                            38 H    0.983
    17   7 N    2.977 --    14 C    0.985    41 H    0.941    40 H    0.938
    18   7 N    3.517 --    13 C    1.171    20 C    1.140    19 C    0.926
                            21 O    0.134
    19   6 C    3.920 --    43 H    0.978    42 H    0.976    44 H    0.975
                            18 N    0.926
    20   6 C    3.918 --    21 O    1.538    18 N    1.140    22 C    1.089
    21   8 O    1.888 --    20 C    1.538    18 N    0.134
    22   6 C    3.916 --    11 C    1.505    20 C    1.089    23 O    1.073
    23   8 O    2.066 --    22 C    1.073    45 H    0.798
    24   6 C    3.983 --    25 C    1.426     6 C    1.413    46 H    0.960
                             4 C    0.112
    25   6 C    3.984 --     3 C    1.430    24 C    1.426    47 H    0.961
                             5 C    0.110
    26   1 H    0.991 --     1 C    0.974
    27   1 H    0.993 --     1 C    0.980
    28   1 H    0.993 --     1 C    0.980
    29   1 H    0.989 --     4 C    0.961
    30   1 H    0.994 --     5 C    0.965
    31   1 H    1.000 --     7 C    0.976
    32   1 H    1.007 --     7 C    0.964
    33   1 H    0.942 --     8 N    0.884
    34   1 H    1.005 --    15 C    0.980
    35   1 H    0.999 --    15 C    0.983
    36   1 H    1.004 --    15 C    0.986
    37   1 H    1.007 --    16 C    0.985
    38   1 H    1.015 --    16 C    0.983
    39   1 H    1.003 --    16 C    0.986
    40   1 H    0.953 --    17 N    0.938
    41   1 H    0.957 --    17 N    0.941
    42   1 H    1.009 --    19 C    0.976
    43   1 H    1.022 --    19 C    0.978
    44   1 H    1.017 --    19 C    0.975
    45   1 H    0.844 --    23 O    0.798
    46   1 H    1.008 --    24 C    0.960
    47   1 H    0.990 --    25 C    0.961
 ---------------------------------------------------------------------------

           -------------------------------------------------
          | TOTAL ENERGY              -79.450631649112 Eh   |
          | GRADIENT NORM               0.000518072864 Eh/α |
          | HOMO-LUMO GAP               2.597655965260 eV   |
           -------------------------------------------------

 * finished run on 2023/06/20 at 15:39:15.903
