   * xtb version 6.5.1 (579679a) compiled by 'ehlert@majestix' on 2022-07-11
          program call               : /lustre/hpc/kemi/ree/PhD/git/ReactivityQM/dep/xtb-6.5.1/bin/xtb --gfn 1 /lustre/hpc/kemi/ree/PhD/git/ReactivityQM/calculations/R03/reac02prodE11/conf15/R03_reac02prodE11_conf15_gfn1.xyz --opt --vfukui --chrg -1 --uhf 0 --alpb DMSO

   ID    Z sym.   atoms
    1    6 C      1, 3, 5, 7-10, 12, 14, 17-19, 22, 23, 25
    2    8 O      2, 4, 13, 20, 24, 26
    3    7 N      6, 11, 15, 16, 21
    4    1 H      27-46

      * Solvation model:               ALPB
        Solvent                        DMSO
        Solvent mass                       7.8130E+01 g/mol
          :  Hamiltonian                  GFN1-xTB          :
 * total energy  :   -87.0500421 Eh     change       -0.3874163E-09 Eh
 * total energy  :   -87.0597158 Eh     change       -0.9673682E-02 Eh
 * total energy  :   -87.0630561 Eh     change       -0.3340380E-02 Eh
 * total energy  :   -87.0635694 Eh     change       -0.5132417E-03 Eh
 * total energy  :   -87.0639500 Eh     change       -0.3806117E-03 Eh
 * total energy  :   -87.0641313 Eh     change       -0.1813373E-03 Eh
 * total energy  :   -87.0642854 Eh     change       -0.1541136E-03 Eh
 * total energy  :   -87.0643594 Eh     change       -0.7394135E-04 Eh
 * total energy  :   -87.0644013 Eh     change       -0.4191199E-04 Eh
 * total energy  :   -87.0644277 Eh     change       -0.2642005E-04 Eh
 * total energy  :   -87.0644809 Eh     change       -0.1393188E-04 Eh
 * total energy  :   -87.0644911 Eh     change       -0.1019106E-04 Eh
 * total energy  :   -87.0645008 Eh     change       -0.9754165E-05 Eh
 * total energy  :   -87.0645066 Eh     change       -0.5771644E-05 Eh
 * total energy  :   -87.0645131 Eh     change       -0.6493613E-05 Eh
 * total energy  :   -87.0645183 Eh     change       -0.5231549E-05 Eh
 * total energy  :   -87.0645236 Eh     change       -0.5266716E-05 Eh
 * total energy  :   -87.0645287 Eh     change       -0.5073572E-05 Eh
 * total energy  :   -87.0645319 Eh     change       -0.3292999E-05 Eh
   *** GEOMETRY OPTIMIZATION CONVERGED AFTER 21 ITERATIONS ***

 final structure:
================
46
 xtb: 6.5.1 (579679a)
C           -5.47723738876760        2.44893515374948        1.89835463930150
O           -4.46236887977181        1.60218180589610        1.35412585108127
C           -4.75033894003232        1.00507939894047        0.20033145563995
O           -5.81358798342638        1.16802093155765       -0.38016188468205
C           -3.68083790805041        0.12815582637894       -0.31083514683652
N           -2.53268625665110        0.03073858881991        0.41947646331371
C           -1.56098369530253       -0.73750440202847        0.03583548308142
C           -0.34762132903520       -0.79422518538443        0.96308038027132
C           -0.36335102802422       -2.14751760435884        1.69395297492439
C           -0.45588770917766        0.34076081919502        1.99676592924895
N            0.85704825224983       -0.62395812036347        0.15435587387456
C            2.12905492330196       -0.53253363112272        0.78085095059283
O            2.34458737451138       -1.01984262587895        1.90288912687004
C            3.06391230694402        0.10875414630674       -0.06211393055922
N            2.78160672572260        0.64518555551035       -1.24529022929416
N            3.83767211885569        1.16867270459016       -1.78559504654560
C            4.96151088257287        0.95737550562244       -0.85861506815504
C            5.53729735853459        2.31394882749172       -0.42347654662543
C            6.03757667329980        0.09447774530121       -1.53731033579021
O            4.41531441903740        0.27164451335512        0.26033051597254
N           -1.65211538010348       -1.48352591124078       -1.11147736784537
C           -0.62815918711328       -2.41624008039303       -1.59304650664367
C           -2.77773867189948       -1.46008175411436       -1.93438557163067
O           -2.81997584669798       -2.15543098861729       -2.94450401787059
C           -3.84060183862244       -0.57713317870642       -1.48120129928977
O           -4.93876733816267       -0.52479594803983       -2.24844016931627
H           -6.38666633953622        1.87239403222407        2.08292521380892
H           -5.70148937202088        3.26156764476145        1.20355876216048
H           -5.08576331628459        2.84654915898841        2.83232025630411
H           -1.33836332202397       -2.29157612865493        2.15801465214919
H           -0.17866522741844       -2.97081705681519        1.00736999027979
H            0.40072534413895       -2.16251355019473        2.46888561373372
H            0.40601745311108        0.31136548448761        2.66159330392233
H           -1.36261212902242        0.22322231001795        2.58737996311336
H           -0.48882291738539        1.30616444975419        1.49350888460535
H            0.74352240735594        0.08057276672630       -0.56823082864835
H            4.75686618146367        2.89826825873506        0.06132442960071
H            5.89784168926857        2.85548865675249       -1.29563484849657
H            6.35871289653124        2.16726404565481        0.27566265801516
H            6.41150855526375        0.60387077657929       -2.42295502702122
H            6.86189407435065       -0.08733470485456       -0.85003614714980
H            5.60214048009410       -0.85915727321218       -1.83171086289355
H           -0.42653324577719       -2.19450811056639       -2.64200848511537
H           -1.01737617632416       -3.43210212736062       -1.51769559158418
H            0.28637034597753       -2.31943617974986       -1.01792872847544
H           -5.60263103595236        0.07957345426010       -1.84735373139450

          :  Hamiltonian                  GFN1-xTB          :
         :: total energy             -87.064531945938 Eh    ::
         :: gradient norm              0.000665137300 Eh/a0 ::
         :: HOMO-LUMO gap              0.171746065359 eV    ::
         :: SCC energy               -87.853940478957 Eh    ::
         :: -> Gsolv                  -0.106662431797 Eh    ::
         :: repulsion energy           0.818253673820 Eh    ::

    * Orbital Energies and Occupations

         #    Occupation            Energy/Eh            Energy/eV
      -------------------------------------------------------------
         1        2.0000           -0.8357993             -22.7433
       ...           ...                  ...                  ...
        59        2.0000           -0.4780887             -13.0095
        60        2.0000           -0.4735471             -12.8859
        61        2.0000           -0.4621542             -12.5759
        62        2.0000           -0.4522337             -12.3059
        63        2.0000           -0.4473728             -12.1736
        64        2.0000           -0.4426298             -12.0446
        65        2.0000           -0.4327593             -11.7760
        66        2.0000           -0.4251064             -11.5677
        67        2.0000           -0.4164228             -11.3314
        68        2.0000           -0.4130723             -11.2403
        69        2.0000           -0.3996216             -10.8743
        70        2.0000           -0.3782514             -10.2927
        71        1.9303           -0.3225533              -8.7771 (HOMO)
        72        0.0697           -0.3162417              -8.6054 (LUMO)
        73                         -0.2708485              -7.3702
        74                         -0.2469644              -6.7202
        75                         -0.2324240              -6.3246
        76                         -0.1472562              -4.0070
        77                         -0.1348958              -3.6707
        78                         -0.1347620              -3.6671
        79                         -0.1283026              -3.4913
        80                         -0.1103595              -3.0030
        81                         -0.1061043              -2.8872
        82                         -0.1027951              -2.7972
       ...                                ...                  ...
       144                          0.7139171              19.4267
      -------------------------------------------------------------
                  HL-Gap            0.0063116 Eh            0.1717 eV

Wiberg/Mayer (AO) data.
largest (>0.10) Wiberg bond orders for each atom

     #   Z sym  total        # sym  WBO       # sym  WBO       # sym  WBO
 ---------------------------------------------------------------------------
     1   6 C    3.872 --    29 H    0.986    27 H    0.979    28 H    0.979
                             2 O    0.898
     2   8 O    2.202 --     3 C    1.120     1 C    0.898     4 O    0.124
     3   6 C    3.826 --     4 O    1.591     2 O    1.120     5 C    1.034
     4   8 O    1.918 --     3 C    1.591     2 O    0.124
     5   6 C    3.946 --    25 C    1.453     6 N    1.191     3 C    1.034
     6   7 N    3.024 --     7 C    1.560     5 C    1.191
     7   6 C    3.917 --     6 N    1.560    21 N    1.175     8 C    0.973
     8   6 C    3.955 --    10 C    0.989     9 C    0.981     7 C    0.973
                            11 N    0.953
     9   6 C    3.991 --    30 H    0.987    31 H    0.982     8 C    0.981
                            32 H    0.976
    10   6 C    3.993 --     8 C    0.989    35 H    0.986    34 H    0.985
                            33 H    0.982
    11   7 N    3.170 --    12 C    1.032     8 C    0.953    36 H    0.918
    12   6 C    3.913 --    13 O    1.480    14 C    1.221    11 N    1.032
    13   8 O    1.819 --    12 C    1.480
    14   6 C    3.819 --    15 N    1.379    12 C    1.221    20 O    0.947
                            16 N    0.142
    15   7 N    3.050 --    16 N    1.477    14 C    1.379
    16   7 N    2.854 --    15 N    1.477    17 C    0.981    14 C    0.142
    17   6 C    3.897 --    16 N    0.981    18 C    0.978    19 C    0.977
                            20 O    0.924
    18   6 C    3.991 --    38 H    0.988    39 H    0.986    37 H    0.985
                            17 C    0.978
    19   6 C    3.990 --    40 H    0.988    41 H    0.986    42 H    0.985
                            17 C    0.977
    20   8 O    2.056 --    14 C    0.947    17 C    0.924
    21   7 N    3.492 --     7 C    1.175    23 C    1.111    22 C    0.930
                            24 O    0.133
    22   6 C    3.924 --    44 H    0.978    43 H    0.977    45 H    0.972
                            21 N    0.930
    23   6 C    3.904 --    24 O    1.560    21 N    1.111    25 C    1.088
    24   8 O    1.870 --    23 C    1.560    21 N    0.133
    25   6 C    3.894 --     5 C    1.453    26 O    1.106    23 C    1.088
    26   8 O    2.070 --    25 C    1.106    46 H    0.785
    27   1 H    1.007 --     1 C    0.979
    28   1 H    1.007 --     1 C    0.979
    29   1 H    1.011 --     1 C    0.986
    30   1 H    1.005 --     9 C    0.987
    31   1 H    1.005 --     9 C    0.982
    32   1 H    1.022 --     9 C    0.976
    33   1 H    1.012 --    10 C    0.982
    34   1 H    1.015 --    10 C    0.985
    35   1 H    1.010 --    10 C    0.986
    36   1 H    0.983 --    11 N    0.918
    37   1 H    1.013 --    18 C    0.985
    38   1 H    1.009 --    18 C    0.988
    39   1 H    1.007 --    18 C    0.986
    40   1 H    1.009 --    19 C    0.988
    41   1 H    1.007 --    19 C    0.986
    42   1 H    1.013 --    19 C    0.985
    43   1 H    1.008 --    22 C    0.977
    44   1 H    1.005 --    22 C    0.978
    45   1 H    1.022 --    22 C    0.972
    46   1 H    0.859 --    26 O    0.785
 ---------------------------------------------------------------------------

           -------------------------------------------------
          | TOTAL ENERGY              -87.064531945938 Eh   |
          | GRADIENT NORM               0.000665137300 Eh/α |
          | HOMO-LUMO GAP               0.171746065359 eV   |
           -------------------------------------------------

 * finished run on 2023/06/20 at 15:32:29.630
