   * xtb version 6.5.1 (579679a) compiled by 'ehlert@majestix' on 2022-07-11
          program call               : /lustre/hpc/kemi/ree/PhD/git/ReactivityQM/dep/xtb-6.5.1/bin/xtb --gfn 1 /lustre/hpc/kemi/ree/PhD/git/ReactivityQM/calculations/R03/reac02prodE14/conf14/R03_reac02prodE14_conf14_gfn1.xyz --opt --vfukui --chrg -1 --uhf 0 --alpb DMSO

   ID    Z sym.   atoms
    1    6 C      1, 3, 5, 7-10, 12, 14, 17, 18, 21, 22, 24, 25
    2    8 O      2, 4, 13, 19, 23, 26
    3    7 N      6, 11, 15, 16, 20
    4    1 H      27-46

      * Solvation model:               ALPB
        Solvent                        DMSO
        Solvent mass                       7.8130E+01 g/mol
          :  Hamiltonian                  GFN1-xTB          :
 * total energy  :   -87.0475160 Eh     change       -0.1332552E-09 Eh
 * total energy  :   -87.0616248 Eh     change       -0.1410880E-01 Eh
 * total energy  :   -87.0670724 Eh     change       -0.5447658E-02 Eh
 * total energy  :   -87.0677872 Eh     change       -0.7147908E-03 Eh
 * total energy  :   -87.0682654 Eh     change       -0.4781977E-03 Eh
 * total energy  :   -87.0684855 Eh     change       -0.2200393E-03 Eh
 * total energy  :   -87.0687353 Eh     change       -0.2498729E-03 Eh
 * total energy  :   -87.0689339 Eh     change       -0.1985817E-03 Eh
 * total energy  :   -87.0690571 Eh     change       -0.1231979E-03 Eh
 * total energy  :   -87.0691308 Eh     change       -0.7368852E-04 Eh
 * total energy  :   -87.0691919 Eh     change       -0.6105813E-04 Eh
 * total energy  :   -87.0692536 Eh     change       -0.6175945E-04 Eh
 * total energy  :   -87.0693096 Eh     change       -0.5600886E-04 Eh
 * total energy  :   -87.0693498 Eh     change       -0.4021703E-04 Eh
 * total energy  :   -87.0693708 Eh     change       -0.2094950E-04 Eh
 * total energy  :   -87.0693843 Eh     change       -0.1352168E-04 Eh
 * total energy  :   -87.0693935 Eh     change       -0.9210454E-05 Eh
 * total energy  :   -87.0693992 Eh     change       -0.5660985E-05 Eh
 * total energy  :   -87.0694038 Eh     change       -0.4572726E-05 Eh
   *** GEOMETRY OPTIMIZATION CONVERGED AFTER 19 ITERATIONS ***

 final structure:
================
46
 xtb: 6.5.1 (579679a)
C           -5.03456698705823        2.99810812199755       -1.56045703010647
O           -4.21208859648807        2.22860994878380       -0.69822878173462
C           -3.14029483456151        1.58211261570574       -1.32690586971958
O           -2.96427733434799        1.75616018131930       -2.53982543396791
C           -2.36932198119836        0.79166559418825       -0.45162578201621
N           -1.29403285227694        0.16566268226674       -0.99882016136747
C           -0.46065959820119       -0.55708214752687       -0.34182843058454
C            0.62526979899964       -1.26736290209387       -1.13445574669672
C            0.43831703406824       -2.79225200092631       -1.08726585284886
C            0.55941699971896       -0.79601910027109       -2.59603642487424
N            1.94827915659557       -0.87684880975436       -0.60035663757480
C            3.11378671656299       -1.40825495033116       -1.00396497078123
O            3.25079402983320       -2.34376232774941       -1.77848432258406
C            4.29415466657405       -0.74410045615186       -0.38265750334406
N            5.54628706947245       -1.02244297779820       -0.57716801065773
N            6.26701360072744       -0.15516820677270        0.19058444859539
C            5.41030996025753        0.59927543801473        0.80485377824060
C            5.68914097210846        1.70195783433160        1.75051398231393
O            4.14453911087171        0.27975927331976        0.48662375388485
N           -0.61084027461409       -0.74797389855580        1.06360751209235
C            0.31824700290401       -1.53354033727739        1.87500207300959
C           -1.64691895938151       -0.21313199738434        1.75799414017384
O           -1.75736726755248       -0.41903534628473        2.96924119486331
C           -2.70667235657638        0.62320516204420        1.01529972738862
C           -4.05232405461005       -0.11009358394336        1.22448916546613
O           -2.74657907250471        1.88070930259766        1.70295964696786
H           -4.46377147542186        3.80576619396661       -2.03315042404136
H           -5.47309829563167        2.37208630788935       -2.34614200440611
H           -5.83120337090149        3.42470446290777       -0.95111738828059
H            1.05502878090222       -3.28012768944223       -1.84025171913419
H            0.70041374177220       -3.19877112527913       -0.11401914254764
H           -0.60701832074329       -3.02090022795800       -1.29242851409803
H            0.68729722333143        0.28461261649420       -2.64644927392832
H            1.34448661913085       -1.27742928108954       -3.17681287317234
H           -0.40942583083854       -1.05381598274029       -3.02105980702867
H            1.98687730639855       -0.02966628267575       -0.05549175433594
H            5.17009545924048        1.52677383828498        2.69221966712975
H            5.33116523070198        2.64557809970786        1.33821921038071
H            6.75928709188135        1.76814927592395        1.92902756740369
H            1.26545090955465       -1.66565945017431        1.36440636493428
H           -0.11728271340431       -2.50914998112220        2.10167729682308
H            0.49603611601535       -1.00549465942639        2.81377383329653
H           -4.86811961236285        0.47034192729959        0.80074041126573
H           -4.23034661748665       -0.24504831800945        2.29113267163876
H           -4.01790368299304       -1.08397910996512        0.73808329550605
H           -3.38757950846700        2.45187327367870        1.25524611845374

          :  Hamiltonian                  GFN1-xTB          :
         :: total energy             -87.069403764754 Eh    ::
         :: gradient norm              0.000862336626 Eh/a0 ::
         :: HOMO-LUMO gap              0.724350040430 eV    ::
         :: SCC energy               -87.867123427631 Eh    ::
         :: -> Gsolv                  -0.113957737059 Eh    ::
         :: repulsion energy           0.827174175171 Eh    ::

    * Orbital Energies and Occupations

         #    Occupation            Energy/Eh            Energy/eV
      -------------------------------------------------------------
         1        2.0000           -0.8609792             -23.4284
       ...           ...                  ...                  ...
        59        2.0000           -0.4695165             -12.7762
        60        2.0000           -0.4675877             -12.7237
        61        2.0000           -0.4564427             -12.4204
        62        2.0000           -0.4535564             -12.3419
        63        2.0000           -0.4454095             -12.1202
        64        2.0000           -0.4450697             -12.1110
        65        2.0000           -0.4427936             -12.0490
        66        2.0000           -0.4349393             -11.8353
        67        2.0000           -0.4205447             -11.4436
        68        2.0000           -0.4163075             -11.3283
        69        2.0000           -0.4042125             -10.9992
        70        2.0000           -0.3833177             -10.4306
        71        2.0000           -0.3296000              -8.9689 (HOMO)
        72        0.0000           -0.3029806              -8.2445 (LUMO)
        73                         -0.2531063              -6.8874
        74                         -0.2434565              -6.6248
        75                         -0.2010301              -5.4703
        76                         -0.1914438              -5.2095
        77                         -0.1428384              -3.8868
        78                         -0.1410755              -3.8389
        79                         -0.1232559              -3.3540
        80                         -0.1115926              -3.0366
        81                         -0.1096442              -2.9836
        82                         -0.1028702              -2.7992
       ...                                ...                  ...
       144                          0.7332818              19.9536
      -------------------------------------------------------------
                  HL-Gap            0.0266194 Eh            0.7244 eV

Wiberg/Mayer (AO) data.
largest (>0.10) Wiberg bond orders for each atom

     #   Z sym  total        # sym  WBO       # sym  WBO       # sym  WBO
 ---------------------------------------------------------------------------
     1   6 C    3.907 --    29 H    0.987    28 H    0.981    27 H    0.981
                             2 O    0.935
     2   8 O    2.104 --     3 C    0.946     1 C    0.935
     3   6 C    3.863 --     4 O    1.494     5 C    1.292     2 O    0.946
     4   8 O    1.797 --     3 C    1.494     5 C    0.108
     5   6 C    3.860 --     3 C    1.292     6 N    1.219    24 C    0.975
                             7 C    0.113     4 O    0.108
     6   7 N    3.064 --     7 C    1.606     5 C    1.219
     7   6 C    3.896 --     6 N    1.606     8 C    0.980    20 N    0.979
                             5 C    0.113
     8   6 C    3.924 --    10 C    0.991     9 C    0.988     7 C    0.980
                            11 N    0.900
     9   6 C    3.989 --     8 C    0.988    32 H    0.986    31 H    0.982
                            30 H    0.981
    10   6 C    3.992 --     8 C    0.991    34 H    0.985    33 H    0.985
                            35 H    0.984
    11   7 N    3.370 --    12 C    1.279     8 C    0.900    36 H    0.899
                            13 O    0.181
    12   6 C    3.921 --    13 O    1.572    11 N    1.279    14 C    0.985
    13   8 O    1.891 --    12 C    1.572    11 N    0.181
    14   6 C    3.868 --    15 N    1.626    19 O    1.047    12 C    0.985
    15   7 N    2.996 --    14 C    1.626    16 N    1.194
    16   7 N    2.981 --    17 C    1.616    15 N    1.194
    17   6 C    3.870 --    16 N    1.616    19 O    1.071    18 C    1.031
    18   6 C    3.987 --    17 C    1.031    39 H    0.983    37 H    0.965
                            38 H    0.962
    19   8 O    2.315 --    17 C    1.071    14 C    1.047
    20   7 N    3.429 --    22 C    1.242     7 C    0.979    21 C    0.946
                            23 O    0.147
    21   6 C    3.949 --    41 H    0.981    40 H    0.980    42 H    0.979
                            20 N    0.946
    22   6 C    3.890 --    23 O    1.562    20 N    1.242    24 C    0.936
    23   8 O    1.860 --    22 C    1.562    20 N    0.147
    24   6 C    3.912 --     5 C    0.975    25 C    0.970    22 C    0.936
                            26 O    0.929
    25   6 C    3.995 --    45 H    0.988    44 H    0.985    43 H    0.983
                            24 C    0.970
    26   8 O    1.880 --    24 C    0.929    46 H    0.858
    27   1 H    1.018 --     1 C    0.981
    28   1 H    1.017 --     1 C    0.981
    29   1 H    1.017 --     1 C    0.987
    30   1 H    1.015 --     9 C    0.981
    31   1 H    1.005 --     9 C    0.982
    32   1 H    1.007 --     9 C    0.986
    33   1 H    1.016 --    10 C    0.985
    34   1 H    1.008 --    10 C    0.985
    35   1 H    1.017 --    10 C    0.984
    36   1 H    0.949 --    11 N    0.899
    37   1 H    0.997 --    18 C    0.965
    38   1 H    0.997 --    18 C    0.962
    39   1 H    0.999 --    18 C    0.983
    40   1 H    1.013 --    21 C    0.980
    41   1 H    1.009 --    21 C    0.981
    42   1 H    1.014 --    21 C    0.979
    43   1 H    1.017 --    25 C    0.983
    44   1 H    1.015 --    25 C    0.985
    45   1 H    1.011 --    25 C    0.988
    46   1 H    0.900 --    26 O    0.858
 ---------------------------------------------------------------------------

           -------------------------------------------------
          | TOTAL ENERGY              -87.069403764754 Eh   |
          | GRADIENT NORM               0.000862336626 Eh/α |
          | HOMO-LUMO GAP               0.724350040430 eV   |
           -------------------------------------------------

 * finished run on 2023/06/20 at 15:34:48.946
