   * xtb version 6.5.1 (579679a) compiled by 'ehlert@majestix' on 2022-07-11
          program call               : /lustre/hpc/kemi/ree/PhD/git/ReactivityQM/dep/xtb-6.5.1/bin/xtb --gfn 1 /lustre/hpc/kemi/ree/PhD/git/ReactivityQM/calculations/R01/reac02prodE01/conf02/R01_reac02prodE01_conf02_gfn1.xyz --opt --vfukui --chrg -1 --uhf 0 --alpb DMSO

   ID    Z sym.   atoms
    1    6 C      1, 3, 4, 6, 8-11, 14, 16
    2    8 O      2, 5, 15, 17
    3    7 N      7, 12, 13
    4    1 H      18-33

      * Solvation model:               ALPB
        Solvent                        DMSO
        Solvent mass                       7.8130E+01 g/mol
          :  Hamiltonian                  GFN1-xTB          :
 * total energy  :   -58.5398515 Eh     change       -0.4568790E-11 Eh
 * total energy  :   -58.5471030 Eh     change       -0.7251435E-02 Eh
 * total energy  :   -58.5496906 Eh     change       -0.2587584E-02 Eh
 * total energy  :   -58.5509839 Eh     change       -0.1293294E-02 Eh
 * total energy  :   -58.5526528 Eh     change       -0.1668966E-02 Eh
 * total energy  :   -58.5543645 Eh     change       -0.1711635E-02 Eh
 * total energy  :   -58.5561275 Eh     change       -0.1763080E-02 Eh
 * total energy  :   -58.5587691 Eh     change       -0.2641571E-02 Eh
 * total energy  :   -58.5599215 Eh     change       -0.1152419E-02 Eh
 * total energy  :   -58.5619001 Eh     change       -0.1978563E-02 Eh
 * total energy  :   -58.5734829 Eh     change       -0.1145257E-04 Eh
 * total energy  :   -58.5735030 Eh     change       -0.2012361E-04 Eh
 * total energy  :   -58.5735196 Eh     change       -0.1655359E-04 Eh
 * total energy  :   -58.5735387 Eh     change       -0.1908740E-04 Eh
 * total energy  :   -58.5735609 Eh     change       -0.2220139E-04 Eh
 * total energy  :   -58.5735828 Eh     change       -0.2193954E-04 Eh
 * total energy  :   -58.5735962 Eh     change       -0.1332029E-04 Eh
 * total energy  :   -58.5736030 Eh     change       -0.6824493E-05 Eh
 * total energy  :   -58.5736059 Eh     change       -0.2932450E-05 Eh
   *** GEOMETRY OPTIMIZATION CONVERGED AFTER 54 ITERATIONS ***

 final structure:
================
33
 xtb: 6.5.1 (579679a)
C            4.16897691303422        0.97618080328710        0.82767904243713
O            2.85441207749541        0.45926327599504        0.79718155000474
C            2.36213556944929        0.01425404576615       -0.48940678635333
C            2.14567473386449        1.22873297290178       -1.41294808469187
O            3.26697607818210       -0.85222267898234       -1.09233843822266
C            1.03437047510179       -0.69194768832283       -0.19953091853725
N           -0.05698675451634        0.12281094024940       -0.07823505840898
C           -1.21090411303543       -0.39190043862649        0.18634690577502
C           -2.44286635790981        0.47847616157794        0.33494704116356
C           -2.93244738373945        0.43606680911081        1.79580808114326
C           -3.55814934661998        0.01218674237045       -0.61073756160018
N           -2.07734080135186        1.84053007334609       -0.04104308994694
N           -1.35681196731193       -1.74738217760818        0.36414142904140
C           -0.33307054209647       -2.66568592543077        0.25421142928645
O           -0.58047435840881       -3.86356967223015        0.42969543474444
C            0.99240714000901       -2.07815083941610       -0.06301520292504
O            2.01204443182209       -2.84296588655842       -0.19959932157003
H            4.85919030486939        0.36471794861661        0.23257348651564
H            4.21054562076152        2.01191557470063        0.46266507633748
H            4.49793066283855        0.96375390034926        1.86999087830724
H            1.67221005252978        0.89199901134987       -2.33366228347754
H            1.50238794363586        1.95530882042626       -0.92117255609780
H            3.10125086605402        1.68896630332981       -1.65597237119981
H           -3.79889979990150        1.08435001478496        1.91464809648033
H           -3.21438379583550       -0.57848182529276        2.07441203677356
H           -2.14398597772927        0.78029644207149        2.46433796292542
H           -3.85762994059584       -1.01010092855478       -0.38583469204048
H           -3.21568739534018        0.06432970723102       -1.64416661915796
H           -4.42794785323650        0.65798960156366       -0.49896901857043
H           -1.32093148351228        2.15594857861883        0.55834943550151
H           -2.86847308567596        2.44648640074484        0.12143929260059
H           -2.26263201229292       -2.12317490542650        0.59151997690291
H            2.97910809946236       -1.78898116193962       -0.77879615313992

          :  Hamiltonian                  GFN1-xTB          :
         :: total energy             -58.573605907726 Eh    ::
         :: gradient norm              0.000291959080 Eh/a0 ::
         :: HOMO-LUMO gap              2.893717783978 eV    ::
         :: SCC energy               -59.104857438900 Eh    ::
         :: -> Gsolv                  -0.109104045795 Eh    ::
         :: repulsion energy           0.550159770371 Eh    ::

    * Orbital Energies and Occupations

         #    Occupation            Energy/Eh            Energy/eV
      -------------------------------------------------------------
         1        2.0000           -0.7871899             -21.4205
       ...           ...                  ...                  ...
        36        2.0000           -0.4816132             -13.1054
        37        2.0000           -0.4783602             -13.0168
        38        2.0000           -0.4719242             -12.8417
        39        2.0000           -0.4673720             -12.7178
        40        2.0000           -0.4490663             -12.2197
        41        2.0000           -0.4418837             -12.0243
        42        2.0000           -0.4355578             -11.8521
        43        2.0000           -0.4274826             -11.6324
        44        2.0000           -0.4231322             -11.5140
        45        2.0000           -0.4057255             -11.0404
        46        2.0000           -0.3965854             -10.7916
        47        2.0000           -0.3638340              -9.9004
        48        2.0000           -0.3475423              -9.4571 (HOMO)
        49                         -0.2412002              -6.5634 (LUMO)
        50                         -0.2245441              -6.1102
        51                         -0.1209056              -3.2900
        52                         -0.1190771              -3.2403
        53                         -0.1131940              -3.0802
        54                         -0.1091798              -2.9709
        55                         -0.1009200              -2.7462
        56                         -0.0983933              -2.6774
        57                         -0.0751331              -2.0445
        58                         -0.0646953              -1.7604
        59                         -0.0595768              -1.6212
       ...                                ...                  ...
       100                          0.7302765              19.8718
      -------------------------------------------------------------
                  HL-Gap            0.1063422 Eh            2.8937 eV

Wiberg/Mayer (AO) data.
largest (>0.10) Wiberg bond orders for each atom

     #   Z sym  total        # sym  WBO       # sym  WBO       # sym  WBO
 ---------------------------------------------------------------------------
     1   6 C    3.923 --    20 H    0.984    19 H    0.982    18 H    0.979
                             2 O    0.954
     2   8 O    1.979 --     1 C    0.954     3 C    0.884
     3   6 C    3.862 --     5 O    0.995     4 C    0.977     6 C    0.959
                             2 O    0.884
     4   6 C    3.996 --    21 H    0.987    22 H    0.987    23 H    0.985
                             3 C    0.977
     5   8 O    1.879 --     3 C    0.995    33 H    0.718
     6   6 C    3.938 --    16 C    1.396     7 N    1.215     3 C    0.959
                            17 O    0.140
     7   7 N    3.033 --     8 C    1.572     6 C    1.215
     8   6 C    3.928 --     7 N    1.572    13 N    1.121     9 C    0.980
     9   6 C    3.970 --    11 C    0.990    12 N    0.990     8 C    0.980
                            10 C    0.977
    10   6 C    3.994 --    26 H    0.986    24 H    0.985    25 H    0.984
                             9 C    0.977
    11   6 C    3.995 --     9 C    0.990    28 H    0.986    29 H    0.985
                            27 H    0.984
    12   7 N    2.955 --     9 C    0.990    31 H    0.951    30 H    0.945
    13   7 N    3.428 --    14 C    1.137     8 C    1.121    32 H    0.902
                            15 O    0.129
    14   6 C    3.888 --    15 O    1.533    13 N    1.137    16 C    1.031
    15   8 O    1.828 --    14 C    1.533    13 N    0.129
    16   6 C    3.957 --     6 C    1.396    17 O    1.339    14 C    1.031
    17   8 O    1.820 --    16 C    1.339    33 H    0.157     6 C    0.140
    18   1 H    1.022 --     1 C    0.979
    19   1 H    1.015 --     1 C    0.982
    20   1 H    1.020 --     1 C    0.984
    21   1 H    1.013 --     4 C    0.987
    22   1 H    1.021 --     4 C    0.987
    23   1 H    1.008 --     4 C    0.985
    24   1 H    1.004 --    10 C    0.985
    25   1 H    1.003 --    10 C    0.984
    26   1 H    1.006 --    10 C    0.986
    27   1 H    1.003 --    11 C    0.984
    28   1 H    1.009 --    11 C    0.986
    29   1 H    1.002 --    11 C    0.985
    30   1 H    0.977 --    12 N    0.945
    31   1 H    0.965 --    12 N    0.951
    32   1 H    0.954 --    13 N    0.902
    33   1 H    0.888 --     5 O    0.718    17 O    0.157
 ---------------------------------------------------------------------------

           -------------------------------------------------
          | TOTAL ENERGY              -58.573605907726 Eh   |
          | GRADIENT NORM               0.000291959080 Eh/α |
          | HOMO-LUMO GAP               2.893717783978 eV   |
           -------------------------------------------------

 * finished run on 2023/06/20 at 14:57:23.452
