   * xtb version 6.5.1 (579679a) compiled by 'ehlert@majestix' on 2022-07-11
          program call               : /lustre/hpc/kemi/ree/PhD/git/ReactivityQM/dep/xtb-6.5.1/bin/xtb --gfn 1 /lustre/hpc/kemi/ree/PhD/git/ReactivityQM/calculations/R01/reac02prodN03/conf20/R01_reac02prodN03_conf20_gfn1.xyz --opt --vfukui --chrg 1 --uhf 0 --alpb DMSO

   ID    Z sym.   atoms
    1    6 C      1, 3, 5, 7-10, 13, 15, 17
    2    8 O      2, 4, 14, 16
    3    7 N      6, 11, 12
    4    1 H      18-33

      * Solvation model:               ALPB
        Solvent                        DMSO
        Solvent mass                       7.8130E+01 g/mol
          :  Hamiltonian                  GFN1-xTB          :
 * total energy  :   -57.8031943 Eh     change       -0.2735590E-11 Eh
 * total energy  :   -57.8167595 Eh     change       -0.1356518E-01 Eh
 * total energy  :   -57.8227603 Eh     change       -0.6000813E-02 Eh
 * total energy  :   -57.8248622 Eh     change       -0.2101895E-02 Eh
 * total energy  :   -57.8276094 Eh     change       -0.2747240E-02 Eh
 * total energy  :   -57.8290928 Eh     change       -0.1483409E-02 Eh
 * total energy  :   -57.8314249 Eh     change       -0.2332032E-02 Eh
 * total energy  :   -57.8346240 Eh     change       -0.3199120E-02 Eh
 * total energy  :   -57.8370881 Eh     change       -0.2464126E-02 Eh
 * total energy  :   -57.8393623 Eh     change       -0.2274181E-02 Eh
 * total energy  :   -57.8478904 Eh     change       -0.2169585E-03 Eh
 * total energy  :   -57.8479879 Eh     change       -0.9748605E-04 Eh
 * total energy  :   -57.8480373 Eh     change       -0.4945454E-04 Eh
 * total energy  :   -57.8480863 Eh     change       -0.4894868E-04 Eh
 * total energy  :   -57.8481138 Eh     change       -0.2751385E-04 Eh
 * total energy  :   -57.8481247 Eh     change       -0.1095147E-04 Eh
 * total energy  :   -57.8481326 Eh     change       -0.7850337E-05 Eh
 * total energy  :   -57.8481403 Eh     change       -0.7738527E-05 Eh
 * total energy  :   -57.8481453 Eh     change       -0.4947633E-05 Eh
   *** GEOMETRY OPTIMIZATION CONVERGED AFTER 31 ITERATIONS ***

 final structure:
================
33
 xtb: 6.5.1 (579679a)
C            3.44174878812192        2.69460114078192       -0.16169996854762
O            2.24204272015646        1.90037445529576       -0.09288190492342
C            2.31047342877155        0.62687404081367       -0.21247986837327
O            3.47277943431546        0.09688804393204       -0.39829111334451
C            1.08080892660563       -0.12913222788505       -0.13076550026345
N           -0.04105183576351        0.62912362984448        0.07118882452716
C           -1.19470737218983        0.04633083419872        0.16044675323780
C           -2.40338339995861        0.92814706018718        0.43080226723846
C           -3.68096273099711        0.13803753848124        0.70544960183988
C           -2.58737549821865        1.86706177973629       -0.77013440841076
N           -2.09204756318870        1.73473479511170        1.60711069350547
N           -1.31333763620435       -1.30533890089108        0.04056325528905
C           -0.27175562038357       -2.18271088477206       -0.16475296005797
O           -0.47359798492423       -3.37709388343118       -0.26856902913640
C            1.03525206605284       -1.51093963497009       -0.24236941696890
O            2.16972791604384       -2.17919810427896       -0.42249201787041
C            2.22139426303432       -3.61538055343396       -0.54168166391286
H            3.90042367005447        2.57089053657163       -1.14333320834349
H            4.13488000906662        2.37047541701631        0.61501468205563
H            3.12756100652380        3.72366973719776       -0.00310614429495
H           -4.47803378975895        0.83535035732799        0.96178164949508
H           -3.53703528542799       -0.54314867011867        1.54278853141289
H           -3.98390252152714       -0.42869370098714       -0.17352436329200
H           -3.37278613290841        2.58806462917112       -0.54716887800780
H           -1.65838294061084        2.40051152457987       -0.96763034389349
H           -2.86282540286780        1.29660292346297       -1.65593907011779
H           -1.20647743963165        2.20355986314461        1.45443666256041
H           -1.98106010874725        1.12494978345470        2.40620689191493
H           -2.22291348293027       -1.74429074274506        0.09881864124966
H            3.46567254606592       -0.88259202013660       -0.48147874684318
H            1.81821963361154       -4.08341475613948        0.35748880308322
H            3.27746520228876       -3.85452857938103       -0.65251727870346
H            1.66318513552411       -3.93978343113951       -1.42128137210254

          :  Hamiltonian                  GFN1-xTB          :
         :: total energy             -57.848145272057 Eh    ::
         :: gradient norm              0.000994068306 Eh/a0 ::
         :: HOMO-LUMO gap              1.210740815164 eV    ::
         :: SCC energy               -58.419946318336 Eh    ::
         :: -> Gsolv                  -0.094100561405 Eh    ::
         :: repulsion energy           0.590049920481 Eh    ::

    * Orbital Energies and Occupations

         #    Occupation            Energy/Eh            Energy/eV
      -------------------------------------------------------------
         1        2.0000           -0.9100930             -24.7649
       ...           ...                  ...                  ...
        35        2.0000           -0.5486137             -14.9285
        36        2.0000           -0.5419348             -14.7468
        37        2.0000           -0.5397195             -14.6865
        38        2.0000           -0.5239345             -14.2570
        39        2.0000           -0.5195183             -14.1368
        40        2.0000           -0.5142045             -13.9922
        41        2.0000           -0.5136221             -13.9764
        42        2.0000           -0.5049753             -13.7411
        43        2.0000           -0.4968053             -13.5188
        44        2.0000           -0.4846181             -13.1871
        45        2.0000           -0.4771860             -12.9849
        46        2.0000           -0.4573985             -12.4464
        47        2.0000           -0.4265899             -11.6081 (HOMO)
        48                         -0.3820959             -10.3974 (LUMO)
        49                         -0.3103605              -8.4453
        50                         -0.2881187              -7.8401
        51                         -0.1967111              -5.3528
        52                         -0.1649536              -4.4886
        53                         -0.1480132              -4.0276
        54                         -0.1450464              -3.9469
        55                         -0.1345719              -3.6619
        56                         -0.1314860              -3.5779
        57                         -0.1098160              -2.9882
        58                         -0.1008627              -2.7446
       ...                                ...                  ...
       100                          0.6846377              18.6299
      -------------------------------------------------------------
                  HL-Gap            0.0444939 Eh            1.2107 eV

Wiberg/Mayer (AO) data.
largest (>0.10) Wiberg bond orders for each atom

     #   Z sym  total        # sym  WBO       # sym  WBO       # sym  WBO
 ---------------------------------------------------------------------------
     1   6 C    3.821 --    20 H    0.982    19 H    0.972    18 H    0.972
                             2 O    0.853
     2   8 O    2.319 --     3 C    1.285     1 C    0.853
     3   6 C    3.811 --     2 O    1.285     4 O    1.250     5 C    1.118
     4   8 O    2.195 --     3 C    1.250    30 H    0.744
     5   6 C    3.960 --    15 C    1.406     6 N    1.178     3 C    1.118
     6   7 N    3.024 --     7 C    1.560     5 C    1.178
     7   6 C    3.905 --     6 N    1.560    12 N    1.178     8 C    0.968
     8   6 C    3.965 --     9 C    1.003    11 N    0.981    10 C    0.980
                             7 C    0.968
     9   6 C    3.993 --     8 C    1.003    23 H    0.983    22 H    0.983
                            21 H    0.981
    10   6 C    3.992 --    26 H    0.986    25 H    0.984    24 H    0.983
                             8 C    0.980
    11   7 N    2.967 --     8 C    0.981    28 H    0.941    27 H    0.939
    12   7 N    3.479 --     7 C    1.178    13 C    1.138    29 H    0.874
                            14 O    0.140
    13   6 C    3.915 --    14 O    1.607    12 N    1.138    15 C    1.043
    14   8 O    1.936 --    13 C    1.607    12 N    0.140
    15   6 C    3.907 --     5 C    1.406    16 O    1.131    13 C    1.043
    16   8 O    2.245 --    15 C    1.131    17 C    0.856
    17   6 C    3.830 --    32 H    0.983    31 H    0.975    33 H    0.974
                            16 O    0.856
    18   1 H    0.997 --     1 C    0.972
    19   1 H    0.997 --     1 C    0.972
    20   1 H    1.002 --     1 C    0.982
    21   1 H    1.002 --     9 C    0.981
    22   1 H    0.997 --     9 C    0.983
    23   1 H    0.998 --     9 C    0.983
    24   1 H    1.003 --    10 C    0.983
    25   1 H    1.006 --    10 C    0.984
    26   1 H    1.001 --    10 C    0.986
    27   1 H    0.966 --    11 N    0.939
    28   1 H    0.956 --    11 N    0.941
    29   1 H    0.923 --    12 N    0.874
    30   1 H    0.807 --     4 O    0.744
    31   1 H    1.007 --    17 C    0.975
    32   1 H    1.005 --    17 C    0.983
    33   1 H    1.008 --    17 C    0.974
 ---------------------------------------------------------------------------

           -------------------------------------------------
          | TOTAL ENERGY              -57.848145272057 Eh   |
          | GRADIENT NORM               0.000994068306 Eh/α |
          | HOMO-LUMO GAP               1.210740815164 eV   |
           -------------------------------------------------

 * finished run on 2023/06/20 at 15:05:01.925
