   * xtb version 6.5.1 (579679a) compiled by 'ehlert@majestix' on 2022-07-11
          program call               : /lustre/hpc/kemi/ree/PhD/git/ReactivityQM/dep/xtb-6.5.1/bin/xtb --gfn 1 /lustre/hpc/kemi/ree/PhD/git/ReactivityQM/calculations/R01/reac02prodE05/conf20/R01_reac02prodE05_conf20_gfn1.xyz --opt --vfukui --chrg -1 --uhf 0 --alpb DMSO

   ID    Z sym.   atoms
    1    6 C      1, 3, 5, 6, 8, 11-15
    2    8 O      2, 4, 7, 9
    3    7 N      10, 16, 17
    4    1 H      18-33

      * Solvation model:               ALPB
        Solvent                        DMSO
        Solvent mass                       7.8130E+01 g/mol
          :  Hamiltonian                  GFN1-xTB          :
 * total energy  :   -58.5518238 Eh     change       -0.7105427E-11 Eh
 * total energy  :   -58.5596593 Eh     change       -0.7835458E-02 Eh
 * total energy  :   -58.5616535 Eh     change       -0.1994255E-02 Eh
 * total energy  :   -58.5619663 Eh     change       -0.3127900E-03 Eh
 * total energy  :   -58.5622115 Eh     change       -0.2451989E-03 Eh
 * total energy  :   -58.5623035 Eh     change       -0.9200401E-04 Eh
 * total energy  :   -58.5623777 Eh     change       -0.7416825E-04 Eh
 * total energy  :   -58.5624142 Eh     change       -0.3646481E-04 Eh
 * total energy  :   -58.5624383 Eh     change       -0.2418362E-04 Eh
 * total energy  :   -58.5624592 Eh     change       -0.2083254E-04 Eh
 * total energy  :   -58.5625340 Eh     change       -0.1289193E-04 Eh
 * total energy  :   -58.5625434 Eh     change       -0.9381783E-05 Eh
 * total energy  :   -58.5625517 Eh     change       -0.8244718E-05 Eh
 * total energy  :   -58.5625600 Eh     change       -0.8337326E-05 Eh
 * total energy  :   -58.5625702 Eh     change       -0.1023903E-04 Eh
 * total energy  :   -58.5625768 Eh     change       -0.6521588E-05 Eh
 * total energy  :   -58.5625821 Eh     change       -0.5388709E-05 Eh
 * total energy  :   -58.5625868 Eh     change       -0.4704305E-05 Eh
 * total energy  :   -58.5625910 Eh     change       -0.4201019E-05 Eh
   *** GEOMETRY OPTIMIZATION CONVERGED AFTER 22 ITERATIONS ***

 final structure:
================
33
 xtb: 6.5.1 (579679a)
C            4.76595502637614        1.44993561599993       -0.31342721573187
O            3.69452204371351        0.51680624249577       -0.24127376121416
C            2.48878020666879        1.01541664178533        0.08992194642849
O            2.33915280198026        2.20458978887771        0.30443330302173
C            1.39293971627695        0.00504582094517        0.13519267685217
C            1.62171247018650       -1.37245617454161        0.16204069821771
O            2.89554652230804       -1.94018109655919        0.29221903118283
C            0.54133027565439       -2.28156633818206       -0.00585682885041
O            0.67496454203145       -3.52159545204150       -0.07600325164413
N           -0.69047353258001       -1.68597316844238       -0.21632053150828
C           -0.94607453128000       -0.34125243030743        0.29790664022315
C           -1.26306984860604       -0.43152420484653        1.81352493266257
C           -2.14235140145284        0.23214359995276       -0.52191959961555
C           -1.70993152913448        0.34666965266052       -1.98906710708388
C           -2.55887265946247        1.61503554669236        0.00021545848760
N           -3.25929137439834       -0.71311145894703       -0.44944965415789
N            0.18073892519731        0.54997268425669        0.12408839879436
H            5.63686823775986        0.90884218638438       -0.67994995583354
H            4.52040609369909        2.26680026325805       -0.99851337658376
H            4.97766267407340        1.86913775622053        0.67457243802348
H            2.76005938369519       -2.90133442153944        0.25757035738837
H           -1.49151012778393       -2.29941364031664       -0.15477738085697
H           -0.44148948254254       -0.93648295688700        2.32193000559552
H           -2.17717030849369       -0.99428567752244        1.98878526753821
H           -1.36764308825051        0.56709587536100        2.23312220318236
H           -1.41781374183181       -0.63298915084280       -2.37070279700427
H           -0.85801542201206        1.02391896303711       -2.07025352573114
H           -2.52667995767442        0.73176398955026       -2.59894219655206
H           -3.26819831378672        2.07703947006198       -0.68597272704029
H           -3.03696451557621        1.53381847642333        0.97546649369897
H           -1.67924420352025        2.25540519395820        0.08708119536651
H           -3.68157089033694       -0.67636706821283        0.46922108528497
H           -3.97427299089850       -0.44090452873231       -1.10965622254049

          :  Hamiltonian                  GFN1-xTB          :
         :: total energy             -58.562591046019 Eh    ::
         :: gradient norm              0.000429498457 Eh/a0 ::
         :: HOMO-LUMO gap              1.381969304787 eV    ::
         :: SCC energy               -59.098497011820 Eh    ::
         :: -> Gsolv                  -0.104501315280 Eh    ::
         :: repulsion energy           0.555771209826 Eh    ::

    * Orbital Energies and Occupations

         #    Occupation            Energy/Eh            Energy/eV
      -------------------------------------------------------------
         1        2.0000           -0.8085717             -22.0024
       ...           ...                  ...                  ...
        36        2.0000           -0.4795290             -13.0486
        37        2.0000           -0.4756514             -12.9431
        38        2.0000           -0.4736051             -12.8875
        39        2.0000           -0.4712891             -12.8244
        40        2.0000           -0.4544219             -12.3654
        41        2.0000           -0.4476132             -12.1802
        42        2.0000           -0.4376033             -11.9078
        43        2.0000           -0.4216673             -11.4742
        44        2.0000           -0.3992013             -10.8628
        45        2.0000           -0.3914202             -10.6511
        46        2.0000           -0.3863171             -10.5122
        47        2.0000           -0.3722636             -10.1298
        48        2.0000           -0.3147536              -8.5649 (HOMO)
        49                         -0.2639671              -7.1829 (LUMO)
        50                         -0.1874717              -5.1014
        51                         -0.1270763              -3.4579
        52                         -0.1126711              -3.0659
        53                         -0.1035509              -2.8178
        54                         -0.1013023              -2.7566
        55                         -0.0925551              -2.5186
        56                         -0.0835224              -2.2728
        57                         -0.0649112              -1.7663
        58                         -0.0632540              -1.7212
        59                         -0.0583285              -1.5872
       ...                                ...                  ...
       100                          0.7360849              20.0299
      -------------------------------------------------------------
                  HL-Gap            0.0507864 Eh            1.3820 eV

Wiberg/Mayer (AO) data.
largest (>0.10) Wiberg bond orders for each atom

     #   Z sym  total        # sym  WBO       # sym  WBO       # sym  WBO
 ---------------------------------------------------------------------------
     1   6 C    3.894 --    18 H    0.987    20 H    0.980    19 H    0.980
                             2 O    0.918
     2   8 O    2.183 --     3 C    1.081     1 C    0.918     4 O    0.122
     3   6 C    3.818 --     4 O    1.637     2 O    1.081     5 C    1.005
     4   8 O    1.890 --     3 C    1.637     2 O    0.122
     5   6 C    3.971 --    17 N    1.420     6 C    1.333     3 C    1.005
     6   6 C    3.863 --     5 C    1.333     8 C    1.198     7 O    0.971
                            17 N    0.180
     7   8 O    1.943 --     6 C    0.971    21 H    0.851
     8   6 C    3.920 --     9 O    1.455     6 C    1.198    10 N    1.113
     9   8 O    1.784 --     8 C    1.455    10 N    0.105
    10   7 N    3.225 --     8 C    1.113    11 C    0.934    22 H    0.915
                             9 O    0.105
    11   6 C    3.941 --    17 N    1.002    12 C    0.970    13 C    0.953
                            10 N    0.934
    12   6 C    3.995 --    23 H    0.985    24 H    0.984    25 H    0.984
                            11 C    0.970
    13   6 C    3.961 --    14 C    1.001    15 C    0.993    16 N    0.979
                            11 C    0.953
    14   6 C    3.997 --    13 C    1.001    28 H    0.987    26 H    0.984
                            27 H    0.983
    15   6 C    3.996 --    13 C    0.993    29 H    0.986    30 H    0.984
                            31 H    0.982
    16   7 N    2.968 --    13 C    0.979    32 H    0.949    33 H    0.948
    17   7 N    2.924 --     5 C    1.420    11 C    1.002     6 C    0.180
    18   1 H    1.015 --     1 C    0.987
    19   1 H    1.014 --     1 C    0.980
    20   1 H    1.012 --     1 C    0.980
    21   1 H    0.893 --     7 O    0.851
    22   1 H    0.978 --    10 N    0.915
    23   1 H    1.008 --    12 C    0.985
    24   1 H    1.005 --    12 C    0.984
    25   1 H    1.013 --    12 C    0.984
    26   1 H    1.019 --    14 C    0.984
    27   1 H    1.022 --    14 C    0.983
    28   1 H    1.005 --    14 C    0.987
    29   1 H    1.007 --    15 C    0.986
    30   1 H    1.008 --    15 C    0.984
    31   1 H    1.021 --    15 C    0.982
    32   1 H    0.969 --    16 N    0.949
    33   1 H    0.965 --    16 N    0.948
 ---------------------------------------------------------------------------

           -------------------------------------------------
          | TOTAL ENERGY              -58.562591046019 Eh   |
          | GRADIENT NORM               0.000429498457 Eh/α |
          | HOMO-LUMO GAP               1.381969304787 eV   |
           -------------------------------------------------

 * finished run on 2023/06/20 at 15:00:25.815
