   * xtb version 6.5.1 (579679a) compiled by 'ehlert@majestix' on 2022-07-11
          program call               : /lustre/hpc/kemi/ree/PhD/git/ReactivityQM/dep/xtb-6.5.1/bin/xtb --gfn 1 /lustre/hpc/kemi/ree/PhD/git/ReactivityQM/calculations/R02methylcation/reac01prodN02/conf08/R02methylcation_reac01prodN02_conf08_gfn1.xyz --opt --vfukui --chrg 0 --uhf 0 --alpb DMSO

   ID    Z sym.   atoms
    1    6 C      1, 3, 5, 7-10, 12, 14, 15, 18, 19, 22, 24
    2    8 O      2, 4, 13, 20, 23, 25
    3    7 N      6, 11, 16, 17, 21
    4    1 H      26-42

      * Solvation model:               ALPB
        Solvent                        DMSO
        Solvent mass                       7.8130E+01 g/mol
          :  Hamiltonian                  GFN1-xTB          :
 * total energy  :   -82.9434450 Eh     change       -0.1356071E-08 Eh
 * total energy  :   -82.9607711 Eh     change       -0.1732604E-01 Eh
 * total energy  :   -82.9684906 Eh     change       -0.7719531E-02 Eh
 * total energy  :   -82.9700100 Eh     change       -0.1519433E-02 Eh
 * total energy  :   -82.9707652 Eh     change       -0.7551591E-03 Eh
 * total energy  :   -82.9709910 Eh     change       -0.2258279E-03 Eh
 * total energy  :   -82.9711736 Eh     change       -0.1826290E-03 Eh
 * total energy  :   -82.9712886 Eh     change       -0.1149038E-03 Eh
 * total energy  :   -82.9713751 Eh     change       -0.8649703E-04 Eh
 * total energy  :   -82.9714389 Eh     change       -0.6385135E-04 Eh
 * total energy  :   -82.9727378 Eh     change       -0.2914099E-04 Eh
 * total energy  :   -82.9727604 Eh     change       -0.2256000E-04 Eh
 * total energy  :   -82.9727831 Eh     change       -0.2274826E-04 Eh
 * total energy  :   -82.9728213 Eh     change       -0.3816790E-04 Eh
 * total energy  :   -82.9728314 Eh     change       -0.1015796E-04 Eh
 * total energy  :   -82.9728435 Eh     change       -0.1202284E-04 Eh
 * total energy  :   -82.9728479 Eh     change       -0.4451944E-05 Eh
 * total energy  :   -82.9728536 Eh     change       -0.5716649E-05 Eh
 * total energy  :   -82.9728569 Eh     change       -0.3250179E-05 Eh
   *** GEOMETRY OPTIMIZATION CONVERGED AFTER 48 ITERATIONS ***

 final structure:
================
42
 xtb: 6.5.1 (579679a)
C            4.27499300792976        2.70636325896756       -2.90929754485652
O            3.00272193024040        2.30610450280996       -2.41319184150177
C            2.15245000874743        1.76669818575637       -3.33322840875830
O            2.48569233487571        1.66021634079543       -4.50043792741977
C            0.88066023380927        1.36396193052893       -2.74454561513276
N            0.76241202774357        1.58461591806575       -1.38907488499767
C           -0.31569711423258        1.27602494864869       -0.77287268066041
C           -0.47208269862490        1.58709983096353        0.69871255354527
C           -1.44078562290295        2.75658534420794        0.89411407959808
C            0.88786176437512        1.88799843448058        1.33033336090481
N           -1.07426833173603        0.41881889499334        1.37812822633340
C           -0.62803325159842       -0.81434552420421        1.31952048667151
O            0.43044472003126       -1.06100271713490        0.60492795921622
C            1.00728655464079       -2.37121098471557        0.49401910413772
C           -1.38347846236423       -1.78973825085352        2.06390557167411
N           -2.44635577475477       -1.50618230926465        2.77218092981927
N           -2.87137043757907       -2.65937606602753        3.31865936855674
C           -2.05210993521269       -3.59550324941000        2.92203739103536
C           -2.09909649336209       -5.03418745508188        3.24564931278158
O           -1.09240969221572       -3.10363834284952        2.12654682768711
N           -1.39762777202817        0.70691671907511       -1.41225695329062
C           -1.41422965401832        0.41315485871500       -2.75657704727752
O           -2.40492358697413       -0.11195828539050       -3.24958080213000
C           -0.16093537694849        0.78459566402345       -3.52258374120233
O           -0.12263779100888        0.56275053347169       -4.74165144033395
H            4.80948169236087        1.85087403363380       -3.33510316781972
H            4.83273424511826        3.10558412913502       -2.06359076542430
H            4.16562531387335        3.47691667135930       -3.67916623068362
H           -1.04261669889530        3.64171790186758        0.39992609701313
H           -1.56482420538383        2.97041843478014        1.95392658780900
H           -2.41156663888312        2.51923147608182        0.46258689841562
H            1.56671475845195        1.04989855717871        1.18772657215718
H            1.31165135869894        2.76578946786695        0.84403652645362
H            0.77139822252022        2.08159638308297        2.39414374970910
H           -1.88821556516690        0.57573321134654        1.95761121898769
H            1.30045630841601       -2.73261479839062        1.47947436236644
H            1.88332294824681       -2.25308641736595       -0.14160993245798
H            0.29424150957167       -3.06031927887150        0.04097796216502
H           -2.35044261067716       -5.60542175878842        2.35086556706591
H           -1.12250971041326       -5.36938445081177        3.59340400721897
H           -2.84932537346885       -5.21369146739174        4.01218999565392
H           -2.21460414120987        0.46199472469602       -0.88083673304114

          :  Hamiltonian                  GFN1-xTB          :
         :: total energy             -82.972856884253 Eh    ::
         :: gradient norm              0.000663078873 Eh/a0 ::
         :: HOMO-LUMO gap              0.279691267871 eV    ::
         :: SCC energy               -83.749162058777 Eh    ::
         :: -> Gsolv                  -0.107143986281 Eh    ::
         :: repulsion energy           0.802615435696 Eh    ::

    * Orbital Energies and Occupations

         #    Occupation            Energy/Eh            Energy/eV
      -------------------------------------------------------------
         1        2.0000           -0.8965962             -24.3976
       ...           ...                  ...                  ...
        55        2.0000           -0.5106417             -13.8953
        56        2.0000           -0.5042503             -13.7213
        57        2.0000           -0.5010412             -13.6340
        58        2.0000           -0.4929653             -13.4143
        59        2.0000           -0.4827913             -13.1374
        60        2.0000           -0.4796144             -13.0510
        61        2.0000           -0.4723055             -12.8521
        62        2.0000           -0.4696436             -12.7797
        63        2.0000           -0.4545594             -12.3692
        64        2.0000           -0.4471942             -12.1688
        65        2.0000           -0.4325763             -11.7710
        66        2.0000           -0.3903563             -10.6221
        67        1.9911           -0.3790115             -10.3134 (HOMO)
        68        0.0089           -0.3687330             -10.0337 (LUMO)
        69                         -0.2837473              -7.7212
        70                         -0.2814581              -7.6589
        71                         -0.2561599              -6.9705
        72                         -0.2482713              -6.7558
        73                         -0.2074249              -5.6443
        74                         -0.1569138              -4.2698
        75                         -0.1525557              -4.1513
        76                         -0.1460938              -3.9754
        77                         -0.1328250              -3.6144
        78                         -0.1260488              -3.4300
       ...                                ...                  ...
       134                          0.7620446              20.7363
      -------------------------------------------------------------
                  HL-Gap            0.0102785 Eh            0.2797 eV

Wiberg/Mayer (AO) data.
largest (>0.10) Wiberg bond orders for each atom

     #   Z sym  total        # sym  WBO       # sym  WBO       # sym  WBO
 ---------------------------------------------------------------------------
     1   6 C    3.894 --    27 H    0.987    26 H    0.980    28 H    0.980
                             2 O    0.921
     2   8 O    2.143 --     3 C    1.037     1 C    0.921     4 O    0.112
     3   6 C    3.849 --     4 O    1.606     5 C    1.101     2 O    1.037
     4   8 O    1.875 --     3 C    1.606     2 O    0.112
     5   6 C    3.902 --    24 C    1.253     6 N    1.169     3 C    1.101
                            25 O    0.122
     6   7 N    3.034 --     7 C    1.621     5 C    1.169
     7   6 C    3.930 --     6 N    1.621    21 N    1.094     8 C    0.969
     8   6 C    3.897 --     9 C    0.989    10 C    0.986     7 C    0.969
                            11 N    0.881
     9   6 C    3.986 --     8 C    0.989    31 H    0.983    30 H    0.982
                            29 H    0.981
    10   6 C    3.985 --     8 C    0.986    34 H    0.986    32 H    0.982
                            33 H    0.980
    11   7 N    3.464 --    12 C    1.432     8 C    0.881    35 H    0.876
                            13 O    0.107
    12   6 C    3.888 --    11 N    1.432    13 O    1.195    15 C    1.094
    13   8 O    2.273 --    12 C    1.195    14 C    0.862    11 N    0.107
    14   6 C    3.830 --    37 H    0.981    36 H    0.975    38 H    0.975
                            13 O    0.862
    15   6 C    3.885 --    16 N    1.534    12 C    1.094    20 O    1.052
    16   7 N    3.013 --    15 C    1.534    17 N    1.253
    17   7 N    2.988 --    18 C    1.553    16 N    1.253
    18   6 C    3.846 --    17 N    1.553    20 O    1.083    19 C    1.039
    19   6 C    3.979 --    18 C    1.039    41 H    0.979    40 H    0.961
                            39 H    0.952
    20   8 O    2.333 --    18 C    1.083    15 C    1.052
    21   7 N    3.415 --    22 C    1.146     7 C    1.094    42 H    0.897
                            23 O    0.134
    22   6 C    3.872 --    23 O    1.597    21 N    1.146    24 C    0.961
    23   8 O    1.873 --    22 C    1.597    21 N    0.134
    24   6 C    3.938 --    25 O    1.544     5 C    1.253    22 C    0.961
    25   8 O    1.834 --    24 C    1.544     5 C    0.122
    26   1 H    1.012 --     1 C    0.980
    27   1 H    1.015 --     1 C    0.987
    28   1 H    1.012 --     1 C    0.980
    29   1 H    0.999 --     9 C    0.981
    30   1 H    0.996 --     9 C    0.982
    31   1 H    0.998 --     9 C    0.983
    32   1 H    1.009 --    10 C    0.982
    33   1 H    1.009 --    10 C    0.980
    34   1 H    0.999 --    10 C    0.986
    35   1 H    0.933 --    11 N    0.876
    36   1 H    1.003 --    14 C    0.975
    37   1 H    1.004 --    14 C    0.981
    38   1 H    1.003 --    14 C    0.975
    39   1 H    0.991 --    19 C    0.952
    40   1 H    0.992 --    19 C    0.961
    41   1 H    0.995 --    19 C    0.979
    42   1 H    0.943 --    21 N    0.897
 ---------------------------------------------------------------------------

           -------------------------------------------------
          | TOTAL ENERGY              -82.972856884253 Eh   |
          | GRADIENT NORM               0.000663078873 Eh/α |
          | HOMO-LUMO GAP               0.279691267871 eV   |
           -------------------------------------------------

 * finished run on 2023/06/21 at 17:31:09.058
