   * xtb version 6.5.1 (579679a) compiled by 'ehlert@majestix' on 2022-07-11
          program call               : /lustre/hpc/kemi/ree/PhD/git/ReactivityQM/dep/xtb-6.5.1/bin/xtb --gfn 1 /lustre/hpc/kemi/ree/PhD/git/ReactivityQM/calculations/RaltegravirCLI/reac02prodN15/conf20/RaltegravirCLI_reac02prodN15_conf20_gfn1.xyz --opt --vfukui --chrg 1 --uhf 0 --alpb DMSO

   ID    Z sym.   atoms
    1    6 C      1, 3-6, 9, 10, 13-18, 20-22, 24
    2    7 N      2, 7, 8, 12
    3    8 O      11, 23, 25
    4    9 F      19
    5    1 H      26-47

      * Solvation model:               ALPB
        Solvent                        DMSO
        Solvent mass                       7.8130E+01 g/mol
          :  Hamiltonian                  GFN1-xTB          :
 * total energy  :   -79.5044730 Eh     change       -0.4362732E-11 Eh
 * total energy  :   -79.5137020 Eh     change       -0.9229021E-02 Eh
 * total energy  :   -79.5162713 Eh     change       -0.2569313E-02 Eh
 * total energy  :   -79.5167219 Eh     change       -0.4506040E-03 Eh
 * total energy  :   -79.5169740 Eh     change       -0.2521120E-03 Eh
 * total energy  :   -79.5170409 Eh     change       -0.6690581E-04 Eh
 * total energy  :   -79.5170924 Eh     change       -0.5151949E-04 Eh
 * total energy  :   -79.5171377 Eh     change       -0.4527209E-04 Eh
 * total energy  :   -79.5171844 Eh     change       -0.4672921E-04 Eh
 * total energy  :   -79.5172239 Eh     change       -0.3945362E-04 Eh
 * total energy  :   -79.5172737 Eh     change       -0.2109854E-04 Eh
 * total energy  :   -79.5172924 Eh     change       -0.1875460E-04 Eh
 * total energy  :   -79.5173057 Eh     change       -0.1324057E-04 Eh
 * total energy  :   -79.5173173 Eh     change       -0.1161664E-04 Eh
 * total energy  :   -79.5173244 Eh     change       -0.7057234E-05 Eh
 * total energy  :   -79.5173336 Eh     change       -0.9238707E-05 Eh
 * total energy  :   -79.5173392 Eh     change       -0.5614770E-05 Eh
 * total energy  :   -79.5173443 Eh     change       -0.5113017E-05 Eh
 * total energy  :   -79.5173490 Eh     change       -0.4706143E-05 Eh
   *** GEOMETRY OPTIMIZATION CONVERGED AFTER 20 ITERATIONS ***

 final structure:
================
47
 xtb: 6.5.1 (579679a)
C           -4.01773945079254       -2.38961046795337       -0.16259242301330
N           -2.85299324967733       -1.49538080937014       -0.14912943187846
C           -2.91990903987192       -0.12696231978030       -0.04934074935712
C           -4.24247588694438        0.62494920436756        0.02757238980911
C           -3.96688704414787        2.10350884738427        0.34752663113149
C           -4.96719571780007        0.52490743408173       -1.32255781522529
N           -5.07924729369755        0.04265419077895        1.07245017708999
N           -1.85179615598733        0.60861221400589       -0.05174653636829
C           -0.59902340955910        0.06396563951234       -0.14010523459145
C            0.46527640934720        1.05490457975412       -0.09115784687046
O            0.35706447200861        2.24021528418758       -0.04422189701453
N            1.87737228932121        0.49031997237597       -0.10442879016733
C            2.34408533303347        0.47175409501368       -1.51347497945416
C            2.75914400584648        1.31668991894677        0.78407350207194
C            4.11459586861474        0.67416342163099        0.90517590004808
C            4.25116584855196       -0.52101371312651        1.61125321436531
C            5.49444495545359       -1.11962150682983        1.74484144294388
C            6.58792059947701       -0.49766736957685        1.16621108825708
F            7.79087447150961       -1.06505241201897        1.29593585138405
C            6.48555164432874        0.68778102252373        0.45975393844639
C            5.23347941529696        1.27154691648429        0.32844591568546
C           -0.46350038558015       -1.29467693031928       -0.25386270136864
O            0.70521975297515       -1.93004088817370       -0.36785263577145
C           -1.64655044400435       -2.14726372743693       -0.27280971810127
O           -1.54456622970642       -3.36116366752661       -0.38837705313106
H           -3.74837235731017       -3.29702284740426        0.37846300678742
H           -4.25796124811024       -2.64496874218816       -1.19506167832234
H           -4.86147193096834       -1.90301507394795        0.31979687318263
H           -3.41585637716630        2.18793354056849        1.28260373846192
H           -4.91386197109776        2.63171938545583        0.44486317103829
H           -3.38163377088687        2.56314931209777       -0.44765630278281
H           -5.25393853993547       -0.50180517003264       -1.53866099382947
H           -5.86734027933943        1.13733549948571       -1.29334396206523
H           -4.31956154749878        0.88688902188057       -2.12010591145340
H           -5.96950955344502        0.52212447224823        1.08364084141845
H           -4.63883252016270        0.18044847801928        1.97195303575250
H            1.86868849920217       -0.47441430893501        0.23682802998403
H            1.69559729932815       -0.19702807469718       -2.07342424904444
H            2.29692639475515        1.48279354924269       -1.91098273495787
H            3.36620409935430        0.10197207766865       -1.52145303434824
H            2.25546138298099        1.36606484945614        1.75164270731236
H            2.81219607077649        2.31529619371463        0.34891465869686
H            3.38029162409837       -0.98333824615263        2.05950977458992
H            5.61356884115323       -2.04772632130472        2.28834719800576
H            7.36428637142924        1.14174108093490        0.02022792880976
H            5.12777633287235        2.19870209635673       -0.22174219828036
H            0.53303142197331       -2.89437170140346       -0.43312313787625

          :  Hamiltonian                  GFN1-xTB          :
         :: total energy             -79.517349023405 Eh    ::
         :: gradient norm              0.000676621174 Eh/a0 ::
         :: HOMO-LUMO gap              1.416022774206 eV    ::
         :: SCC energy               -80.414549832037 Eh    ::
         :: -> Gsolv                  -0.105712858817 Eh    ::
         :: repulsion energy           0.928200806869 Eh    ::

    * Orbital Energies and Occupations

         #    Occupation            Energy/Eh            Energy/eV
      -------------------------------------------------------------
         1        2.0000           -0.8863725             -24.1194
       ...           ...                  ...                  ...
        55        2.0000           -0.5202655             -14.1571
        56        2.0000           -0.5132373             -13.9659
        57        2.0000           -0.5096608             -13.8686
        58        2.0000           -0.5067554             -13.7895
        59        2.0000           -0.5012264             -13.6391
        60        2.0000           -0.4912903             -13.3687
        61        2.0000           -0.4894255             -13.3179
        62        2.0000           -0.4792750             -13.0417
        63        2.0000           -0.4701346             -12.7930
        64        2.0000           -0.4671826             -12.7127
        65        2.0000           -0.4580551             -12.4643
        66        2.0000           -0.4520098             -12.2998
        67        2.0000           -0.4224169             -11.4946 (HOMO)
        68                         -0.3703791             -10.0785 (LUMO)
        69                         -0.3036966              -8.2640
        70                         -0.2922542              -7.9526
        71                         -0.2900019              -7.8914
        72                         -0.2798021              -7.6138
        73                         -0.1868653              -5.0849
        74                         -0.1696513              -4.6164
        75                         -0.1661487              -4.5211
        76                         -0.1506623              -4.0997
        77                         -0.1438789              -3.9151
        78                         -0.1413797              -3.8471
       ...                                ...                  ...
       144                          0.7209679              19.6185
      -------------------------------------------------------------
                  HL-Gap            0.0520379 Eh            1.4160 eV

Wiberg/Mayer (AO) data.
largest (>0.10) Wiberg bond orders for each atom

     #   Z sym  total        # sym  WBO       # sym  WBO       # sym  WBO
 ---------------------------------------------------------------------------
     1   6 C    3.905 --    26 H    0.975    27 H    0.973    28 H    0.965
                             2 N    0.918
     2   7 N    3.531 --     3 C    1.172    24 C    1.152     1 C    0.918
                            25 O    0.143
     3   6 C    3.912 --     8 N    1.564     2 N    1.172     4 C    0.975
     4   6 C    3.963 --     5 C    0.991     7 N    0.982     6 C    0.981
                             3 C    0.975
     5   6 C    3.993 --     4 C    0.991    30 H    0.985    29 H    0.984
                            31 H    0.983
     6   6 C    3.992 --    34 H    0.986    32 H    0.982    33 H    0.982
                             4 C    0.981
     7   7 N    2.995 --     4 C    0.982    36 H    0.939    35 H    0.935
     8   7 N    3.027 --     3 C    1.564     9 C    1.175
     9   6 C    3.966 --    22 C    1.451     8 N    1.175    10 C    1.085
    10   6 C    3.852 --    11 O    1.796     9 C    1.085    12 N    0.839
    11   8 O    2.050 --    10 C    1.796
    12   7 N    3.608 --    13 C    0.903    14 C    0.884    37 H    0.870
                            10 C    0.839
    13   6 C    3.894 --    39 H    0.984    38 H    0.981    40 H    0.978
                            12 N    0.903
    14   6 C    3.899 --    15 C    1.006    42 H    0.973    41 H    0.968
                            12 N    0.884
    15   6 C    3.984 --    21 C    1.415    16 C    1.409    14 C    1.006
    16   6 C    3.994 --    17 C    1.451    15 C    1.409    43 H    0.969
                            20 C    0.110
    17   6 C    3.991 --    16 C    1.451    18 C    1.393    44 H    0.967
                            21 C    0.108
    18   6 C    3.865 --    20 C    1.399    17 C    1.393    19 F    0.940
    19   9 F    1.073 --    18 C    0.940
    20   6 C    3.991 --    21 C    1.443    18 C    1.399    45 H    0.967
                            16 C    0.110
    21   6 C    3.992 --    20 C    1.443    15 C    1.415    46 H    0.969
                            17 C    0.108
    22   6 C    3.912 --     9 C    1.451    23 O    1.111    24 C    1.061
    23   8 O    2.110 --    22 C    1.111    47 H    0.774
    24   6 C    3.923 --    25 O    1.568     2 N    1.152    22 C    1.061
    25   8 O    1.914 --    24 C    1.568     2 N    0.143
    26   1 H    1.004 --     1 C    0.975
    27   1 H    1.000 --     1 C    0.973
    28   1 H    1.026 --     1 C    0.965
    29   1 H    1.008 --     5 C    0.984
    30   1 H    1.002 --     5 C    0.985
    31   1 H    1.010 --     5 C    0.983
    32   1 H    1.003 --     6 C    0.982
    33   1 H    0.998 --     6 C    0.982
    34   1 H    1.002 --     6 C    0.986
    35   1 H    0.950 --     7 N    0.935
    36   1 H    0.953 --     7 N    0.939
    37   1 H    0.942 --    12 N    0.870
    38   1 H    0.995 --    13 C    0.981
    39   1 H    0.992 --    13 C    0.984
    40   1 H    0.998 --    13 C    0.978
    41   1 H    0.996 --    14 C    0.968
    42   1 H    1.001 --    14 C    0.973
    43   1 H    0.995 --    16 C    0.969
    44   1 H    0.995 --    17 C    0.967
    45   1 H    0.995 --    20 C    0.967
    46   1 H    0.997 --    21 C    0.969
    47   1 H    0.820 --    23 O    0.774
 ---------------------------------------------------------------------------

           -------------------------------------------------
          | TOTAL ENERGY              -79.517349023405 Eh   |
          | GRADIENT NORM               0.000676621174 Eh/α |
          | HOMO-LUMO GAP               1.416022774206 eV   |
           -------------------------------------------------

 * finished run on 2023/06/20 at 15:37:46.838
