   * xtb version 6.5.1 (579679a) compiled by 'ehlert@majestix' on 2022-07-11
          program call               : /lustre/hpc/kemi/ree/PhD/git/ReactivityQM/dep/xtb-6.5.1/bin/xtb --gfn 1 /lustre/hpc/kemi/ree/PhD/git/ReactivityQM/calculations/R02deprot/reac01prodE13/conf08/R02deprot_reac01prodE13_conf08_gfn1.xyz --opt --vfukui --chrg -2 --uhf 0 --alpb DMSO

   ID    Z sym.   atoms
    1    6 C      1, 3, 5, 6, 8, 10, 12-15, 17, 19, 22, 23
    2    8 O      2, 4, 7, 9, 18, 24
    3    7 N      11, 16, 20, 21, 25
    4    1 H      26-42

      * Solvation model:               ALPB
        Solvent                        DMSO
        Solvent mass                       7.8130E+01 g/mol
          :  Hamiltonian                  GFN1-xTB          :
 * total energy  :   -83.5719981 Eh     change       -0.1463718E-11 Eh
 * total energy  :   -83.5843830 Eh     change       -0.1238491E-01 Eh
 * total energy  :   -83.5884993 Eh     change       -0.4116278E-02 Eh
 * total energy  :   -83.5892176 Eh     change       -0.7183158E-03 Eh
 * total energy  :   -83.5899542 Eh     change       -0.7365951E-03 Eh
 * total energy  :   -83.5902532 Eh     change       -0.2990391E-03 Eh
 * total energy  :   -83.5904644 Eh     change       -0.2111673E-03 Eh
 * total energy  :   -83.5906083 Eh     change       -0.1438585E-03 Eh
 * total energy  :   -83.5907002 Eh     change       -0.9197108E-04 Eh
 * total energy  :   -83.5907715 Eh     change       -0.7124503E-04 Eh
 * total energy  :   -83.5926809 Eh     change       -0.1182040E-04 Eh
 * total energy  :   -83.5926949 Eh     change       -0.1401442E-04 Eh
 * total energy  :   -83.5927064 Eh     change       -0.1154711E-04 Eh
 * total energy  :   -83.5927217 Eh     change       -0.1525632E-04 Eh
 * total energy  :   -83.5927309 Eh     change       -0.9244845E-05 Eh
 * total energy  :   -83.5927387 Eh     change       -0.7784757E-05 Eh
 * total energy  :   -83.5927469 Eh     change       -0.8160983E-05 Eh
 * total energy  :   -83.5927530 Eh     change       -0.6106592E-05 Eh
 * total energy  :   -83.5927577 Eh     change       -0.4764942E-05 Eh
   *** GEOMETRY OPTIMIZATION CONVERGED AFTER 61 ITERATIONS ***

 final structure:
================
42
 xtb: 6.5.1 (579679a)
C           -3.86501642166514        3.92581916032168       -0.23128834109643
O           -2.98987394859374        2.84059448961410       -0.45182639666814
C           -3.34241616076002        1.65658101811113        0.21129283315941
O           -4.39848023880814        1.64913534929159        0.92420281354678
C           -2.48243028852956        0.57303043347053        0.02331914202503
C           -2.75168646037082       -0.69525164473432        0.66346296839256
O           -3.87053445490834       -0.80021932545544        1.45400896889417
C           -1.87807741598390       -1.72549515725677        0.44847590076616
O           -1.96813375875613       -3.01584787784789        0.95996519532304
C           -2.97066650435777       -3.33965868314559        1.89772763134365
N           -0.77406406227173       -1.58192489173392       -0.34480332251225
C           -0.59259622012785       -0.37719512359647       -0.90572836733687
C            0.64915733273470       -0.26755188635143       -1.79424001914398
C            0.57103305840755       -1.36735778853450       -2.86514059089508
C            0.72116164296225        1.12014888092991       -2.44733494977914
N            1.80798859131683       -0.49979252578371       -0.92346949379540
C            3.11688990303107       -0.33835236531092       -1.36977345707231
O            3.43046334781130       -0.36864427182562       -2.58645259992685
C            4.07678046009710       -0.20121836379814       -0.32186589366496
N            5.40844749879704       -0.08181264878761       -0.43611812583463
N            5.89527277945847        0.05555467971490        0.83474661835971
C            4.89051913752467        0.01721274791874        1.64693931802286
C            4.93257978566508        0.13530668376542        3.12652449382019
O            3.69884059379911       -0.14395050483455        1.01453636417926
N           -1.35007108694029        0.68310592469247       -0.78339777979396
H           -3.91581951988624        4.19046721431443        0.83270538974846
H           -3.47686845169944        4.77736159057038       -0.79358535677719
H           -4.88140360813740        3.69891761692174       -0.57794192856809
H           -4.30219396998169        0.11478566381889        1.41837489425538
H           -3.97698294662653       -3.27204420609926        1.46617394090374
H           -2.92292392440887       -2.70236426438967        2.78922437414316
H           -2.79147543298794       -4.37546412754171        2.19947614539794
H            1.45463151655251       -1.36143265186594       -3.50191815603206
H           -0.31063391951172       -1.20878857540649       -3.48662327120228
H            0.48461974229233       -2.34031563912500       -2.37919000136502
H            1.57341632235721        1.18755715850248       -3.12274372033764
H           -0.19326483554931        1.30301463050032       -3.01164827676633
H            0.80985523084412        1.88871298284150       -1.67938170883803
H            1.65590594413258       -0.25003855710802        0.04465355287116
H            4.52517354065631       -0.76013648348259        3.59601900032111
H            5.96239374390210        0.26917172506055        3.44769166230046
H            4.34048745852266        0.98838161366941        3.45888054962960

          :  Hamiltonian                  GFN1-xTB          :
         :: total energy             -83.592757737655 Eh    ::
         :: gradient norm              0.000760167418 Eh/a0 ::
         :: HOMO-LUMO gap              0.033160447290 eV    ::
         :: SCC energy               -84.308916590090 Eh    ::
         :: -> Gsolv                  -0.258489206763 Eh    ::
         :: repulsion energy           0.740746353756 Eh    ::

    * Orbital Energies and Occupations

         #    Occupation            Energy/Eh            Energy/eV
      -------------------------------------------------------------
         1        2.0000           -0.7953387             -21.6423
       ...           ...                  ...                  ...
        56        2.0000           -0.4346123             -11.8264
        57        2.0000           -0.4306660             -11.7190
        58        2.0000           -0.4220746             -11.4852
        59        2.0000           -0.4007636             -10.9053
        60        2.0000           -0.3960733             -10.7777
        61        2.0000           -0.3944880             -10.7346
        62        2.0000           -0.3918183             -10.6619
        63        2.0000           -0.3826032             -10.4112
        64        2.0000           -0.3822122             -10.4005
        65        2.0000           -0.3770113             -10.2590
        66        2.0000           -0.3588054              -9.7636
        67        2.0000           -0.3460730              -9.4171
        68        1.3101           -0.2606235              -7.0919 (HOMO)
        69        0.6899           -0.2594049              -7.0588 (LUMO)
        70                         -0.2050803              -5.5805
        71                         -0.1946168              -5.2958
        72                         -0.1577620              -4.2929
        73                         -0.1323630              -3.6018
        74                         -0.1225256              -3.3341
        75                         -0.1064069              -2.8955
        76                         -0.1048467              -2.8530
        77                         -0.0881677              -2.3992
        78                         -0.0841885              -2.2909
        79                         -0.0721603              -1.9636
       ...                                ...                  ...
       134                          0.6910572              18.8046
      -------------------------------------------------------------
                  HL-Gap            0.0012186 Eh            0.0332 eV

Wiberg/Mayer (AO) data.
largest (>0.10) Wiberg bond orders for each atom

     #   Z sym  total        # sym  WBO       # sym  WBO       # sym  WBO
 ---------------------------------------------------------------------------
     1   6 C    3.919 --    27 H    0.987    28 H    0.980    26 H    0.980
                             2 O    0.951
     2   8 O    2.047 --     1 C    0.951     3 C    0.943
     3   6 C    3.703 --     4 O    1.338     5 C    1.320     2 O    0.943
     4   8 O    1.710 --     3 C    1.338    29 H    0.128
     5   6 C    3.800 --     3 C    1.320     6 C    1.146    25 N    1.122
     6   6 C    3.822 --     8 C    1.478     5 C    1.146     7 O    1.025
     7   8 O    1.961 --     6 C    1.025    29 H    0.745
     8   6 C    3.801 --     6 C    1.478    11 N    1.193     9 O    0.958
     9   8 O    2.061 --     8 C    0.958    10 C    0.946
    10   6 C    3.915 --    32 H    0.985    31 H    0.981    30 H    0.980
                             9 O    0.946
    11   7 N    2.781 --    12 C    1.327     8 C    1.193
    12   6 C    3.956 --    25 N    1.504    11 N    1.327    13 C    0.965
    13   6 C    3.943 --    15 C    0.993    14 C    0.989    12 C    0.965
                            16 N    0.933
    14   6 C    3.994 --    13 C    0.989    34 H    0.988    35 H    0.984
                            33 H    0.983
    15   6 C    3.993 --    13 C    0.993    37 H    0.986    38 H    0.986
                            36 H    0.985
    16   7 N    3.160 --    17 C    1.108    13 C    0.933    39 H    0.920
                            18 O    0.112
    17   6 C    3.761 --    18 O    1.418    19 C    1.164    16 N    1.108
    18   8 O    1.665 --    17 C    1.418    16 N    0.112
    19   6 C    3.672 --    20 N    1.381    17 C    1.164    24 O    0.959
    20   7 N    2.709 --    19 C    1.381    21 N    1.189
    21   7 N    2.981 --    22 C    1.628    20 N    1.189
    22   6 C    3.808 --    21 N    1.628    24 O    1.037    23 C    1.023
    23   6 C    3.994 --    22 C    1.023    41 H    0.986    40 H    0.972
                            42 H    0.972
    24   8 O    2.165 --    22 C    1.037    19 C    0.959
    25   7 N    2.876 --    12 C    1.504     5 C    1.122
    26   1 H    1.019 --     1 C    0.980
    27   1 H    1.020 --     1 C    0.987
    28   1 H    1.019 --     1 C    0.980
    29   1 H    0.886 --     7 O    0.745     4 O    0.128
    30   1 H    1.022 --    10 C    0.980
    31   1 H    1.020 --    10 C    0.981
    32   1 H    1.020 --    10 C    0.985
    33   1 H    1.024 --    14 C    0.983
    34   1 H    1.009 --    14 C    0.988
    35   1 H    1.027 --    14 C    0.984
    36   1 H    1.018 --    15 C    0.985
    37   1 H    1.020 --    15 C    0.986
    38   1 H    1.019 --    15 C    0.986
    39   1 H    0.972 --    16 N    0.920
    40   1 H    1.001 --    23 C    0.972
    41   1 H    1.005 --    23 C    0.986
    42   1 H    1.001 --    23 C    0.972
 ---------------------------------------------------------------------------

           -------------------------------------------------
          | TOTAL ENERGY              -83.592757737655 Eh   |
          | GRADIENT NORM               0.000760167418 Eh/α |
          | HOMO-LUMO GAP               0.033160447290 eV   |
           -------------------------------------------------

 * finished run on 2023/06/20 at 18:01:00.360
