   * xtb version 6.5.1 (579679a) compiled by 'ehlert@majestix' on 2022-07-11
          program call               : /lustre/hpc/kemi/ree/PhD/git/ReactivityQM/dep/xtb-6.5.1/bin/xtb --gfn 1 /lustre/hpc/kemi/ree/PhD/git/ReactivityQM/calculations/R03/reac01prodN05/conf09/R03_reac01prodN05_conf09_gfn1.xyz --opt --vfukui --chrg 1 --uhf 0 --alpb DMSO

   ID    Z sym.   atoms
    1    6 C      1, 2, 4-7, 9, 10
    2    9 F      3
    3    7 N      8
    4    1 H      11-21

      * Solvation model:               ALPB
        Solvent                        DMSO
        Solvent mass                       7.8130E+01 g/mol
          :  Hamiltonian                  GFN1-xTB          :
 * total energy  :   -30.7508450 Eh     change       -0.4084555E-10 Eh
 * total energy  :   -30.7547623 Eh     change       -0.3917292E-02 Eh
 * total energy  :   -30.7567135 Eh     change       -0.1951252E-02 Eh
 * total energy  :   -30.7576767 Eh     change       -0.9631410E-03 Eh
 * total energy  :   -30.7586398 Eh     change       -0.9631677E-03 Eh
 * total energy  :   -30.7593628 Eh     change       -0.7229752E-03 Eh
 * total energy  :   -30.7599337 Eh     change       -0.5708410E-03 Eh
 * total energy  :   -30.7604270 Eh     change       -0.4933124E-03 Eh
 * total energy  :   -30.7608902 Eh     change       -0.4632599E-03 Eh
 * total energy  :   -30.7613148 Eh     change       -0.4245399E-03 Eh
 * total energy  :   -30.7621043 Eh     change       -0.1551419E-04 Eh
 * total energy  :   -30.7621181 Eh     change       -0.1381629E-04 Eh
 * total energy  :   -30.7621284 Eh     change       -0.1030693E-04 Eh
 * total energy  :   -30.7621460 Eh     change       -0.1759296E-04 Eh
 * total energy  :   -30.7621531 Eh     change       -0.7133324E-05 Eh
 * total energy  :   -30.7621692 Eh     change       -0.1607951E-04 Eh
 * total energy  :   -30.7621786 Eh     change       -0.9414543E-05 Eh
 * total energy  :   -30.7621851 Eh     change       -0.6479062E-05 Eh
 * total energy  :   -30.7621890 Eh     change       -0.3881017E-05 Eh
   *** GEOMETRY OPTIMIZATION CONVERGED AFTER 24 ITERATIONS ***

 final structure:
================
21
 xtb: 6.5.1 (579679a)
C           -2.67162002778709       -0.44861841934831        0.43420328600197
C           -1.78522738554448        0.39302724603369       -0.53933928585937
F           -2.64726500024720        0.94348201173445       -1.44665636019805
C           -0.86206818350615       -0.57611830401692       -1.17121623770551
C            0.40198243487463       -0.72210349051642       -0.70266694717861
C            0.92228610463826        0.15313927812456        0.28605505769700
C            2.30100745704738       -0.00744981187987        0.78847926342542
N            3.08830753833232       -0.93984452128345        0.02746094663926
C            0.13191987566675        1.23864410560801        0.74931639728513
C           -1.13127169374937        1.42635095933856        0.29198731596466
H           -3.19900172526255       -1.19858268618832       -0.15083651110223
H           -3.38783609530523        0.22272602389918        0.90276026375454
H           -2.05888017522799       -0.92851374660593        1.19187975744680
H           -1.26786988321369       -1.21703574282208       -1.94502486569595
H            1.05602341202252       -1.49263558993062       -1.09521457124180
H            2.23116809725386       -0.35809593817128        1.82693002945882
H            2.78277533761960        0.98112737074928        0.84759971963321
H            3.28385451441554       -0.58026752195712       -0.89487891105493
H            3.95651679615093       -1.12924939012789        0.50466803950143
H            0.58138918253543        1.95582920586281        1.42668354185027
H           -1.72619158071346        2.28418896149709        0.58146307137808

          :  Hamiltonian                  GFN1-xTB          :
         :: total energy             -30.762188978011 Eh    ::
         :: gradient norm              0.000782359474 Eh/a0 ::
         :: HOMO-LUMO gap              0.713842858191 eV    ::
         :: SCC energy               -31.153953690161 Eh    ::
         :: -> Gsolv                  -0.085250624351 Eh    ::
         :: repulsion energy           0.401813287520 Eh    ::

    * Orbital Energies and Occupations

         #    Occupation            Energy/Eh            Energy/eV
      -------------------------------------------------------------
         1        2.0000           -0.8943840             -24.3374
       ...           ...                  ...                  ...
        15        2.0000           -0.5978267             -16.2677
        16        2.0000           -0.5925725             -16.1247
        17        2.0000           -0.5778727             -15.7247
        18        2.0000           -0.5699007             -15.5078
        19        2.0000           -0.5647339             -15.3672
        20        2.0000           -0.5632312             -15.3263
        21        2.0000           -0.5545582             -15.0903
        22        2.0000           -0.5507921             -14.9878
        23        2.0000           -0.5318930             -14.4735
        24        2.0000           -0.5216790             -14.1956
        25        2.0000           -0.5189324             -14.1209
        26        2.0000           -0.5092295             -13.8568
        27        2.0000           -0.4459457             -12.1348 (HOMO)
        28        0.0000           -0.4197125             -11.4210 (LUMO)
        29                         -0.3251444              -8.8476
        30                         -0.2515157              -6.8441
        31                         -0.1591419              -4.3305
        32                         -0.1560129              -4.2453
        33                         -0.1423607              -3.8738
        34                         -0.1360108              -3.7010
        35                         -0.1275471              -3.4707
        36                         -0.1184557              -3.2233
        37                         -0.1096064              -2.9825
        38                         -0.0982259              -2.6729
       ...                                ...                  ...
        62                          0.5469354              14.8829
      -------------------------------------------------------------
                  HL-Gap            0.0262332 Eh            0.7138 eV

Wiberg/Mayer (AO) data.
largest (>0.10) Wiberg bond orders for each atom

     #   Z sym  total        # sym  WBO       # sym  WBO       # sym  WBO
 ---------------------------------------------------------------------------
     1   6 C    3.947 --    13 H    0.982    11 H    0.975    12 H    0.974
                             2 C    0.858
     2   6 C    3.887 --    10 C    1.039     4 C    1.035     3 F    0.899
                             1 C    0.858
     3   9 F    1.008 --     2 C    0.899
     4   6 C    3.953 --     5 C    1.656     2 C    1.035    14 H    0.961
     5   6 C    3.985 --     4 C    1.656     6 C    1.265    15 H    0.956
     6   6 C    3.926 --     5 C    1.265     9 C    1.264     7 C    1.080
     7   6 C    3.981 --     6 C    1.080     8 N    1.023    17 H    0.906
                            16 H    0.901
     8   7 N    3.039 --     7 C    1.023    18 H    0.924    19 H    0.921
     9   6 C    3.987 --    10 C    1.658     6 C    1.264    20 H    0.961
    10   6 C    3.956 --     9 C    1.658     2 C    1.039    21 H    0.961
    11   1 H    0.993 --     1 C    0.975
    12   1 H    0.993 --     1 C    0.974
    13   1 H    0.995 --     1 C    0.982
    14   1 H    0.989 --     4 C    0.961
    15   1 H    1.002 --     5 C    0.956
    16   1 H    0.992 --     7 C    0.901
    17   1 H    0.983 --     7 C    0.906
    18   1 H    0.941 --     8 N    0.924
    19   1 H    0.937 --     8 N    0.921
    20   1 H    0.989 --     9 C    0.961
    21   1 H    0.988 --    10 C    0.961
 ---------------------------------------------------------------------------

           -------------------------------------------------
          | TOTAL ENERGY              -30.762188978011 Eh   |
          | GRADIENT NORM               0.000782359474 Eh/α |
          | HOMO-LUMO GAP               0.713842858191 eV   |
           -------------------------------------------------

 * finished run on 2023/06/20 at 15:14:35.222
