   * xtb version 6.5.1 (579679a) compiled by 'ehlert@majestix' on 2022-07-11
          program call               : /lustre/hpc/kemi/ree/PhD/git/ReactivityQM/dep/xtb-6.5.1/bin/xtb --gfn 1 /lustre/hpc/kemi/ree/PhD/git/ReactivityQM/calculations/R02/reac01prodN06/conf15/R02_reac01prodN06_conf15_gfn1.xyz --opt --vfukui --chrg 1 --uhf 0 --alpb DMSO

   ID    Z sym.   atoms
    1    6 C      1, 3, 5, 7-10, 12, 14, 16, 17, 20, 22, 24
    2    8 O      2, 4, 13, 15, 23, 25
    3    7 N      6, 11, 18, 19, 21
    4    1 H      26-43

      * Solvation model:               ALPB
        Solvent                        DMSO
        Solvent mass                       7.8130E+01 g/mol
          :  Hamiltonian                  GFN1-xTB          :
 * total energy  :   -83.1603979 Eh     change       -0.5688605E-10 Eh
 * total energy  :   -83.1789621 Eh     change       -0.1856427E-01 Eh
 * total energy  :   -83.1860115 Eh     change       -0.7049359E-02 Eh
 * total energy  :   -83.1875368 Eh     change       -0.1525296E-02 Eh
 * total energy  :   -83.1887730 Eh     change       -0.1236221E-02 Eh
 * total energy  :   -83.1893819 Eh     change       -0.6088426E-03 Eh
 * total energy  :   -83.1898879 Eh     change       -0.5060585E-03 Eh
 * total energy  :   -83.1902226 Eh     change       -0.3346316E-03 Eh
 * total energy  :   -83.1903904 Eh     change       -0.1678318E-03 Eh
 * total energy  :   -83.1904553 Eh     change       -0.6486364E-04 Eh
 * total energy  :   -83.1909088 Eh     change       -0.2219093E-04 Eh
 * total energy  :   -83.1909170 Eh     change       -0.8220603E-05 Eh
 * total energy  :   -83.1909256 Eh     change       -0.8554037E-05 Eh
 * total energy  :   -83.1909324 Eh     change       -0.6848374E-05 Eh
 * total energy  :   -83.1909393 Eh     change       -0.6882570E-05 Eh
 * total energy  :   -83.1909455 Eh     change       -0.6211202E-05 Eh
 * total energy  :   -83.1909518 Eh     change       -0.6248237E-05 Eh
 * total energy  :   -83.1909576 Eh     change       -0.5833696E-05 Eh
 * total energy  :   -83.1909621 Eh     change       -0.4441271E-05 Eh
   *** GEOMETRY OPTIMIZATION CONVERGED AFTER 35 ITERATIONS ***

 final structure:
================
43
 xtb: 6.5.1 (579679a)
C            5.95646230181737       -1.49391243775288       -1.25362232863275
O            4.69572337660071       -0.93580057765713       -0.86218713553050
C            4.50706600413519       -0.74912071007818        0.43488549129047
O            5.33885173571128       -1.03522109807352        1.27869656825777
C            3.19577155533100       -0.14854138730623        0.77388949579481
N            2.33524020438121        0.11312229170073       -0.26505893708262
C            1.19657102477243        0.65069468370318       -0.00212583987563
C            0.25342343182638        1.00455879597113       -1.13081599838425
C            0.39861957766044        2.49445381065136       -1.45459545975351
C            0.53839941685731        0.13632727014610       -2.35801013983441
N           -1.13315974927293        0.78754145619219       -0.68275057588286
C           -1.54627384896275       -0.39235422048552       -0.21244195842404
O           -0.86572460103017       -1.37826098437674       -0.01565781139179
C           -3.01637051371590       -0.39277667478071        0.10542941207753
O           -3.77397553783549        0.68649855614224       -0.01702183877507
C           -5.01017677084199        0.32183836062204        0.36650729074769
C           -6.11545368786714        1.29327539284623        0.35912313120096
N           -5.03608849091953       -0.93167771264104        0.71518358375389
N           -3.77437557446605       -1.36822380366191        0.54798065097128
C           -3.46833862999530       -2.75571922160463        0.83047590487628
N            0.82016486206574        0.99230091379777        1.26334033364185
C            1.58084254811678        0.75708373114227        2.39566982671067
O            1.17092377491503        1.06051687760845        3.50031606487666
C            2.87392230912309        0.13589651530983        2.07959178024612
O            3.67303620923070       -0.10993874032895        3.11536380543173
H            6.09560149712722       -2.46930956478283       -0.78226030727320
H            5.92719458391389       -1.59428497157476       -2.33655915198753
H            6.76717810248913       -0.82622857532028       -0.95331662890374
H            1.42312973567699        2.70322779716979       -1.75962910770250
H           -0.27504859428781        2.76466776796455       -2.26537059906522
H            0.15924602301722        3.09359546893312       -0.57784616805458
H            0.43697265822302       -0.91781713907275       -2.10511270108951
H            1.55759893814236        0.32141937548629       -2.69412378836484
H           -0.15839328165404        0.38531266362604       -3.15487019244260
H           -1.80571605333361        1.51655069209961       -0.84899785166595
H           -6.24632125009806        1.68971150703715       -0.64846867423175
H           -5.86848135711895        2.12996758973646        1.01422526848699
H           -7.03344134814746        0.81593495055629        0.69421930100250
H           -3.81818061226400       -2.98342551550084        1.83604166970585
H           -4.00107579445911       -3.37330973445443        0.10811418281463
H           -2.39484725308323       -2.90464634084740        0.74615922903357
H           -0.07779805576814        1.42487753481048        1.40741437565504
H            4.51730113398690       -0.51880459295188        2.80821682777291

          :  Hamiltonian                  GFN1-xTB          :
         :: total energy             -83.190962050595 Eh    ::
         :: gradient norm              0.000595452050 Eh/a0 ::
         :: HOMO-LUMO gap              1.610631833215 eV    ::
         :: SCC energy               -83.998465249634 Eh    ::
         :: -> Gsolv                  -0.123554918288 Eh    ::
         :: repulsion energy           0.833643958798 Eh    ::

    * Orbital Energies and Occupations

         #    Occupation            Energy/Eh            Energy/eV
      -------------------------------------------------------------
         1        2.0000           -0.9391464             -25.5555
       ...           ...                  ...                  ...
        55        2.0000           -0.5323699             -14.4865
        56        2.0000           -0.5241943             -14.2641
        57        2.0000           -0.5203241             -14.1587
        58        2.0000           -0.5192561             -14.1297
        59        2.0000           -0.5167298             -14.0609
        60        2.0000           -0.5056965             -13.7607
        61        2.0000           -0.5035685             -13.7028
        62        2.0000           -0.4966943             -13.5157
        63        2.0000           -0.4939790             -13.4419
        64        2.0000           -0.4902882             -13.3414
        65        2.0000           -0.4673826             -12.7181
        66        2.0000           -0.4545491             -12.3689
        67        2.0000           -0.4373909             -11.9020 (HOMO)
        68                         -0.3782013             -10.2914 (LUMO)
        69                         -0.3321776              -9.0390
        70                         -0.3243319              -8.8255
        71                         -0.2920715              -7.9477
        72                         -0.2590476              -7.0490
        73                         -0.2484496              -6.7607
        74                         -0.1724072              -4.6914
        75                         -0.1665500              -4.5321
        76                         -0.1664180              -4.5285
        77                         -0.1463151              -3.9814
        78                         -0.1404047              -3.8206
       ...                                ...                  ...
       136                          0.7182564              19.5448
      -------------------------------------------------------------
                  HL-Gap            0.0591896 Eh            1.6106 eV

Wiberg/Mayer (AO) data.
largest (>0.10) Wiberg bond orders for each atom

     #   Z sym  total        # sym  WBO       # sym  WBO       # sym  WBO
 ---------------------------------------------------------------------------
     1   6 C    3.864 --    27 H    0.986    26 H    0.979    28 H    0.979
                             2 O    0.890
     2   8 O    2.218 --     3 C    1.139     1 C    0.890     4 O    0.130
     3   6 C    3.850 --     4 O    1.606     2 O    1.139     5 C    1.019
     4   8 O    1.946 --     3 C    1.606     2 O    0.130
     5   6 C    3.963 --    24 C    1.488     6 N    1.171     3 C    1.019
     6   7 N    3.028 --     7 C    1.599     5 C    1.171
     7   6 C    3.935 --     6 N    1.599    21 N    1.167     8 C    0.976
     8   6 C    3.916 --    10 C    0.987     9 C    0.983     7 C    0.976
                            11 N    0.904
     9   6 C    3.986 --    31 H    0.983     8 C    0.983    29 H    0.982
                            30 H    0.981
    10   6 C    3.984 --     8 C    0.987    34 H    0.985    32 H    0.981
                            33 H    0.981
    11   7 N    3.393 --    12 C    1.305     8 C    0.904    35 H    0.882
                            13 O    0.200
    12   6 C    3.929 --    13 O    1.593    11 N    1.305    14 C    0.954
    13   8 O    1.940 --    12 C    1.593    11 N    0.200
    14   6 C    3.842 --    19 N    1.458    15 O    1.125    12 C    0.954
    15   8 O    2.370 --    14 C    1.125    16 C    1.067
    16   6 C    3.838 --    18 N    1.574    15 O    1.067    17 C    1.044
    17   6 C    3.969 --    16 C    1.044    38 H    0.977    36 H    0.948
                            37 H    0.948
    18   7 N    2.964 --    16 C    1.574    19 N    1.156
    19   7 N    3.662 --    14 C    1.458    18 N    1.156    20 C    0.909
    20   6 C    3.877 --    41 H    0.973    39 H    0.966    40 H    0.961
                            19 N    0.909
    21   7 N    3.457 --     7 C    1.167    22 C    1.116    42 H    0.885
                            23 O    0.135
    22   6 C    3.906 --    23 O    1.608    21 N    1.116    24 C    1.052
    23   8 O    1.907 --    22 C    1.608    21 N    0.135
    24   6 C    3.922 --     5 C    1.488    25 O    1.133    22 C    1.052
    25   8 O    2.099 --    24 C    1.133    43 H    0.772
    26   1 H    1.006 --     1 C    0.979
    27   1 H    1.010 --     1 C    0.986
    28   1 H    1.005 --     1 C    0.979
    29   1 H    0.998 --     9 C    0.982
    30   1 H    0.994 --     9 C    0.981
    31   1 H    0.996 --     9 C    0.983
    32   1 H    1.006 --    10 C    0.981
    33   1 H    1.007 --    10 C    0.981
    34   1 H    0.999 --    10 C    0.985
    35   1 H    0.919 --    11 N    0.882
    36   1 H    0.988 --    17 C    0.948
    37   1 H    0.988 --    17 C    0.948
    38   1 H    0.990 --    17 C    0.977
    39   1 H    0.991 --    20 C    0.966
    40   1 H    0.990 --    20 C    0.961
    41   1 H    1.003 --    20 C    0.973
    42   1 H    0.931 --    21 N    0.885
    43   1 H    0.849 --    25 O    0.772
 ---------------------------------------------------------------------------

           -------------------------------------------------
          | TOTAL ENERGY              -83.190962050595 Eh   |
          | GRADIENT NORM               0.000595452050 Eh/α |
          | HOMO-LUMO GAP               1.610631833215 eV   |
           -------------------------------------------------

 * finished run on 2023/06/20 at 15:25:22.978
