   * xtb version 6.5.1 (579679a) compiled by 'ehlert@majestix' on 2022-07-11
          program call               : /lustre/hpc/kemi/ree/PhD/git/ReactivityQM/dep/xtb-6.5.1/bin/xtb --gfn 1 /lustre/hpc/kemi/ree/PhD/git/ReactivityQM/calculations/R02/reac01prodE02/conf14/R02_reac01prodE02_conf14_gfn1.xyz --opt --vfukui --chrg -1 --uhf 0 --alpb DMSO

   ID    Z sym.   atoms
    1    6 C      1, 3, 4, 6, 8-11, 13, 15, 18, 19, 22, 24
    2    8 O      2, 5, 14, 20, 23, 25
    3    7 N      7, 12, 16, 17, 21
    4    1 H      26-43

      * Solvation model:               ALPB
        Solvent                        DMSO
        Solvent mass                       7.8130E+01 g/mol
          :  Hamiltonian                  GFN1-xTB          :
 * total energy  :   -83.8409189 Eh     change       -0.6983214E-10 Eh
 * total energy  :   -83.8554416 Eh     change       -0.1452267E-01 Eh
 * total energy  :   -83.8616486 Eh     change       -0.6207076E-02 Eh
 * total energy  :   -83.8631834 Eh     change       -0.1534749E-02 Eh
 * total energy  :   -83.8638414 Eh     change       -0.6579842E-03 Eh
 * total energy  :   -83.8642075 Eh     change       -0.3661449E-03 Eh
 * total energy  :   -83.8644782 Eh     change       -0.2707142E-03 Eh
 * total energy  :   -83.8646986 Eh     change       -0.2203862E-03 Eh
 * total energy  :   -83.8648877 Eh     change       -0.1890890E-03 Eh
 * total energy  :   -83.8650726 Eh     change       -0.1849312E-03 Eh
 * total energy  :   -83.8677497 Eh     change       -0.1005695E-04 Eh
 * total energy  :   -83.8677606 Eh     change       -0.1091045E-04 Eh
 * total energy  :   -83.8677718 Eh     change       -0.1121603E-04 Eh
 * total energy  :   -83.8677822 Eh     change       -0.1039896E-04 Eh
 * total energy  :   -83.8677918 Eh     change       -0.9602800E-05 Eh
 * total energy  :   -83.8678007 Eh     change       -0.8900243E-05 Eh
 * total energy  :   -83.8678091 Eh     change       -0.8384561E-05 Eh
 * total energy  :   -83.8678172 Eh     change       -0.8136553E-05 Eh
 * total energy  :   -83.8678195 Eh     change       -0.2316128E-05 Eh
   *** GEOMETRY OPTIMIZATION CONVERGED AFTER 68 ITERATIONS ***

 final structure:
================
43
 xtb: 6.5.1 (579679a)
C           -5.10950706031611        2.07799713495503        1.39383630881553
O           -4.23523669980557        0.98061295052252        1.38712516338166
C           -3.86657266683104        0.49485472634207       -0.01045097874929
C           -4.89549533369548       -0.65515955063280       -0.32764751253541
O           -3.81825181715498        1.42283725102177       -0.89561106178121
C           -2.48267285740977       -0.24151867509887        0.26163952860089
N           -1.48955198577088        0.07407866867090       -0.63191915502493
C           -0.34034294017813       -0.50001105584617       -0.56077781879412
C            0.72002073139822       -0.21763479367909       -1.60825334142955
C            0.50890087056329        1.16894842219085       -2.22276374259395
C            0.63832932505676       -1.30776840747373       -2.68243810146264
N            2.05086519793245       -0.30698361505559       -0.99813926699239
C            2.43960467359316        0.47681254675385        0.03118668723318
O            1.71722139940317        1.24345829306149        0.64154176201719
C            3.87793054517681        0.26582855194828        0.34455416131965
N            4.68760781411708       -0.53515031082105       -0.28226370893397
N            5.90450727760995       -0.41276639116858        0.31748467672817
C            5.76043412350485        0.45638687072117        1.27194028210689
C            6.79379337358229        0.93845286006275        2.21437305253906
O            4.50410524682474        0.92090403560058        1.33955938002483
N           -0.04631846529905       -1.44136658648286        0.38212178080065
C           -0.95848251318634       -1.83948919511427        1.33446628634495
O           -0.67757894506323       -2.69179415048442        2.18093684218406
C           -2.24003018480711       -1.18019938343806        1.22655304129716
O           -3.17042183838412       -1.58034308191280        2.14094769842509
H           -4.80442771290863        2.85239081981243        0.67118274772332
H           -5.09466077440447        2.51881436302390        2.39665256157511
H           -6.14853591210833        1.78746113007284        1.16319057622795
H           -5.85896849431870       -0.19798786522820       -0.54669896531774
H           -4.55327381138134       -1.19516056377347       -1.20886064636869
H           -5.00117973928896       -1.34341724087659        0.50738559800613
H            1.25419877575930        1.34957381925170       -2.99413974852888
H           -0.48664170932579        1.21504949839134       -2.66362977997276
H            0.59102175337114        1.93894625102230       -1.45656398061316
H            1.39462014004725       -1.13841771249197       -3.44637365710307
H           -0.34534889599282       -1.29110861753650       -3.14972961988685
H            0.80011025705055       -2.28693958294651       -2.23533284022303
H            2.75298600597203       -0.84829484423770       -1.47416868183161
H            6.48920090913126        0.73384579995816        3.24062278731749
H            6.92191479249375        2.01560591076656        2.10843559985687
H            7.73651150452436        0.43861710398881        2.00709702826059
H            0.85558947167653       -1.88738810715570        0.38406780982930
H           -2.77597083116073       -2.27257527669397        2.69467324753858

          :  Hamiltonian                  GFN1-xTB          :
         :: total energy             -83.867819521715 Eh    ::
         :: gradient norm              0.000149734481 Eh/a0 ::
         :: HOMO-LUMO gap              0.855103035386 eV    ::
         :: SCC energy               -84.632695617517 Eh    ::
         :: -> Gsolv                  -0.146479877990 Eh    ::
         :: repulsion energy           0.791224946108 Eh    ::

    * Orbital Energies and Occupations

         #    Occupation            Energy/Eh            Energy/eV
      -------------------------------------------------------------
         1        2.0000           -0.8621221             -23.4595
       ...           ...                  ...                  ...
        56        2.0000           -0.4638873             -12.6230
        57        2.0000           -0.4597113             -12.5094
        58        2.0000           -0.4583318             -12.4718
        59        2.0000           -0.4507403             -12.2653
        60        2.0000           -0.4481955             -12.1960
        61        2.0000           -0.4462609             -12.1434
        62        2.0000           -0.4401365             -11.9767
        63        2.0000           -0.4301773             -11.7057
        64        2.0000           -0.4142218             -11.2715
        65        2.0000           -0.4007880             -10.9060
        66        2.0000           -0.3930544             -10.6956
        67        2.0000           -0.3606995              -9.8151
        68        2.0000           -0.3399857              -9.2515 (HOMO)
        69        0.0000           -0.3085612              -8.3964 (LUMO)
        70                         -0.2717889              -7.3958
        71                         -0.2555178              -6.9530
        72                         -0.2465726              -6.7096
        73                         -0.1965154              -5.3475
        74                         -0.1416757              -3.8552
        75                         -0.1404550              -3.8220
        76                         -0.1291705              -3.5149
        77                         -0.1172427              -3.1903
        78                         -0.0998517              -2.7171
        79                         -0.0993333              -2.7030
       ...                                ...                  ...
       136                          0.7268579              19.7788
      -------------------------------------------------------------
                  HL-Gap            0.0314245 Eh            0.8551 eV

Wiberg/Mayer (AO) data.
largest (>0.10) Wiberg bond orders for each atom

     #   Z sym  total        # sym  WBO       # sym  WBO       # sym  WBO
 ---------------------------------------------------------------------------
     1   6 C    3.937 --    27 H    0.984     2 O    0.980    28 H    0.980
                            26 H    0.974
     2   8 O    1.935 --     1 C    0.980     3 C    0.773
     3   6 C    3.898 --     5 O    1.273     4 C    0.920     6 C    0.878
                             2 O    0.773
     4   6 C    3.989 --    31 H    0.989    30 H    0.988    29 H    0.985
                             3 C    0.920
     5   8 O    1.545 --     3 C    1.273
     6   6 C    3.917 --    24 C    1.528     7 N    1.194     3 C    0.878
     7   7 N    3.031 --     8 C    1.593     6 C    1.194
     8   6 C    3.938 --     7 N    1.593    21 N    1.164     9 C    0.973
     9   6 C    3.933 --    10 C    0.990    11 C    0.985     8 C    0.973
                            12 N    0.920
    10   6 C    3.991 --     9 C    0.990    32 H    0.987    33 H    0.982
                            34 H    0.981
    11   6 C    3.991 --     9 C    0.985    37 H    0.985    36 H    0.984
                            35 H    0.983
    12   7 N    3.342 --    13 C    1.248     9 C    0.920    38 H    0.895
                            14 O    0.178
    13   6 C    3.918 --    14 O    1.598    12 N    1.248    15 C    0.987
    14   8 O    1.900 --    13 C    1.598    12 N    0.178
    15   6 C    3.874 --    16 N    1.611    20 O    1.064    13 C    0.987
    16   7 N    3.016 --    15 C    1.611    17 N    1.200
    17   7 N    2.981 --    18 C    1.605    16 N    1.200
    18   6 C    3.871 --    17 N    1.605    20 O    1.083    19 C    1.031
    19   6 C    3.987 --    18 C    1.031    41 H    0.983    39 H    0.964
                            40 H    0.963
    20   8 O    2.330 --    18 C    1.083    15 C    1.064
    21   7 N    3.454 --     8 C    1.164    22 C    1.120    42 H    0.892
                            23 O    0.122
    22   6 C    3.907 --    23 O    1.519    24 C    1.120    21 N    1.120
    23   8 O    1.845 --    22 C    1.519    21 N    0.122
    24   6 C    3.911 --     6 C    1.528    22 C    1.120    25 O    1.039
    25   8 O    2.030 --    24 C    1.039    43 H    0.833
    26   1 H    1.036 --     1 C    0.974
    27   1 H    1.024 --     1 C    0.984
    28   1 H    1.018 --     1 C    0.980
    29   1 H    1.016 --     4 C    0.985
    30   1 H    1.016 --     4 C    0.988
    31   1 H    1.020 --     4 C    0.989
    32   1 H    1.002 --    10 C    0.987
    33   1 H    1.014 --    10 C    0.982
    34   1 H    1.011 --    10 C    0.981
    35   1 H    0.998 --    11 C    0.983
    36   1 H    1.002 --    11 C    0.984
    37   1 H    1.000 --    11 C    0.985
    38   1 H    0.949 --    12 N    0.895
    39   1 H    0.997 --    19 C    0.964
    40   1 H    0.997 --    19 C    0.963
    41   1 H    0.999 --    19 C    0.983
    42   1 H    0.942 --    21 N    0.892
    43   1 H    0.871 --    25 O    0.833
 ---------------------------------------------------------------------------

           -------------------------------------------------
          | TOTAL ENERGY              -83.867819521715 Eh   |
          | GRADIENT NORM               0.000149734481 Eh/α |
          | HOMO-LUMO GAP               0.855103035386 eV   |
           -------------------------------------------------

 * finished run on 2023/06/20 at 14:54:19.930
