   * xtb version 6.5.1 (579679a) compiled by 'ehlert@majestix' on 2022-07-11
          program call               : /lustre/hpc/kemi/ree/PhD/git/ReactivityQM/dep/xtb-6.5.1/bin/xtb --gfn 1 /lustre/hpc/kemi/ree/PhD/git/ReactivityQM/calculations/R02oxygendeprot/reac01prodE01/conf11/R02oxygendeprot_reac01prodE01_conf11_gfn1.xyz --opt --vfukui --chrg -2 --uhf 0 --alpb DMSO

   ID    Z sym.   atoms
    1    6 C      1, 3, 5, 7-10, 12, 13, 15, 18, 19, 22, 24
    2    8 O      2, 4, 14, 20, 23, 25
    3    7 N      6, 11, 16, 17, 21
    4    1 H      26-42

      * Solvation model:               ALPB
        Solvent                        DMSO
        Solvent mass                       7.8130E+01 g/mol
          :  Hamiltonian                  GFN1-xTB          :
 * total energy  :   -83.6311758 Eh     change       -0.2260947E-10 Eh
 * total energy  :   -83.6428129 Eh     change       -0.1163708E-01 Eh
 * total energy  :   -83.6466201 Eh     change       -0.3807248E-02 Eh
 * total energy  :   -83.6476535 Eh     change       -0.1033374E-02 Eh
 * total energy  :   -83.6483435 Eh     change       -0.6899548E-03 Eh
 * total energy  :   -83.6487472 Eh     change       -0.4037723E-03 Eh
 * total energy  :   -83.6490134 Eh     change       -0.2661724E-03 Eh
 * total energy  :   -83.6491818 Eh     change       -0.1683403E-03 Eh
 * total energy  :   -83.6493047 Eh     change       -0.1229655E-03 Eh
 * total energy  :   -83.6494175 Eh     change       -0.1127936E-03 Eh
 * total energy  :   -83.6512372 Eh     change       -0.6977638E-05 Eh
 * total energy  :   -83.6512445 Eh     change       -0.7276899E-05 Eh
 * total energy  :   -83.6512513 Eh     change       -0.6870769E-05 Eh
 * total energy  :   -83.6512575 Eh     change       -0.6115750E-05 Eh
 * total energy  :   -83.6512631 Eh     change       -0.5667204E-05 Eh
 * total energy  :   -83.6512689 Eh     change       -0.5754919E-05 Eh
 * total energy  :   -83.6512749 Eh     change       -0.5999208E-05 Eh
 * total energy  :   -83.6512805 Eh     change       -0.5667213E-05 Eh
 * total energy  :   -83.6512855 Eh     change       -0.4968761E-05 Eh
   *** GEOMETRY OPTIMIZATION CONVERGED AFTER 66 ITERATIONS ***

 final structure:
================
42
 xtb: 6.5.1 (579679a)
C            6.35958589192505        0.86094599127661       -0.24355369682488
O            5.02202346051777        0.47924470443754        0.03026142563045
C            4.83566574728196       -0.22800370452031        1.19366765692237
O            5.79255947006381       -0.46938659667386        1.91772836626956
C            3.45352948003241       -0.61255208548515        1.39813749028056
N            2.57120673346204       -0.20105196154280        0.41098121504777
C            1.32736617805516       -0.50918587240680        0.48549554870376
C            0.35652809586498       -0.10829407750895       -0.62114372185626
C            0.66313183006367        1.34708592157736       -1.02166524652062
C            0.62929438237741       -1.05522343835588       -1.80090419491589
N           -0.99953784093228       -0.26194036570158       -0.08547923243984
C           -2.15820301152431       -0.18823812596823       -1.10585267811215
C           -2.66993721062754       -1.66032138313722       -1.26391726835446
O           -1.91379666965018        0.43288401571999       -2.22279689477490
C           -3.26548721118085        0.55389167686709       -0.28241559885330
N           -3.10459944035943        1.48567628309033        0.60439748155068
N           -4.36363438808596        1.94450405854474        0.94420995001879
C           -5.19736243201184        1.26348357438969        0.23360782094393
C           -6.67705602199654        1.36807646162598        0.22447486338913
O           -4.57716786141427        0.37020025605982       -0.56243229775743
N            0.83151556419918       -1.26312523451106        1.52448302378814
C            1.57761003405680       -1.72477954558193        2.56891848446468
O            1.04670249000444       -2.38846027367274        3.46320680032714
C            3.04725393672727       -1.37329518743998        2.52630042657120
O            3.78594573177336       -1.76633777650604        3.45265026653244
H            6.35238949324192        1.40408037603909       -1.18796612244853
H            7.00627647724728       -0.01869112570744       -0.33177142163300
H            6.75357092778477        1.50689274701360        0.54839482932335
H            0.04038665129712        1.64863959506350       -1.86229238265671
H            0.46935645433633        2.01526893042612       -0.18167812081062
H            1.71377721417814        1.43468938482534       -1.30149969272963
H            1.68276381764557       -0.98844489425663       -2.07610369492097
H            0.41021308469703       -2.08456037250979       -1.51645166911166
H            0.02319832387862       -0.78547061762821       -2.66469124284539
H           -1.14456287928427        0.51044192807839        0.56805705144115
H           -3.59352115191202       -1.65035663287187       -1.84041589347687
H           -2.85175939126735       -2.11158558878627       -0.29014898467307
H           -1.92802151719594       -2.24652834578916       -1.80187771283749
H           -6.99222329192011        2.14740839269034        0.91369854730139
H           -7.03302674785680        1.60582461858800       -0.77763342553341
H           -7.12342978453695        0.42028466805117        0.52441592945724
H           -0.15852261894444       -1.48022437782317        1.50960401614253

          :  Hamiltonian                  GFN1-xTB          :
         :: total energy             -83.651285511692 Eh    ::
         :: gradient norm              0.000180226608 Eh/a0 ::
         :: HOMO-LUMO gap              2.230570723047 eV    ::
         :: SCC energy               -84.384801964199 Eh    ::
         :: -> Gsolv                  -0.263556514880 Eh    ::
         :: repulsion energy           0.759573260998 Eh    ::

    * Orbital Energies and Occupations

         #    Occupation            Energy/Eh            Energy/eV
      -------------------------------------------------------------
         1        2.0000           -0.8171485             -22.2357
       ...           ...                  ...                  ...
        56        2.0000           -0.4411447             -12.0042
        57        2.0000           -0.4397796             -11.9670
        58        2.0000           -0.4347415             -11.8299
        59        2.0000           -0.4271503             -11.6234
        60        2.0000           -0.4224919             -11.4966
        61        2.0000           -0.4124635             -11.2237
        62        2.0000           -0.4078334             -11.0977
        63        2.0000           -0.3987318             -10.8500
        64        2.0000           -0.3728239             -10.1451
        65        2.0000           -0.3635122              -9.8917
        66        2.0000           -0.3506695              -9.5422
        67        2.0000           -0.3421794              -9.3112
        68        2.0000           -0.3404582              -9.2643 (HOMO)
        69                         -0.2584863              -7.0338 (LUMO)
        70                         -0.2242021              -6.1008
        71                         -0.2184080              -5.9432
        72                         -0.2085270              -5.6743
        73                         -0.1847391              -5.0270
        74                         -0.1279426              -3.4815
        75                         -0.1186803              -3.2295
        76                         -0.0970645              -2.6413
        77                         -0.0937683              -2.5516
        78                         -0.0848825              -2.3098
        79                         -0.0786256              -2.1395
       ...                                ...                  ...
       134                          0.7691034              20.9284
      -------------------------------------------------------------
                  HL-Gap            0.0819720 Eh            2.2306 eV

Wiberg/Mayer (AO) data.
largest (>0.10) Wiberg bond orders for each atom

     #   Z sym  total        # sym  WBO       # sym  WBO       # sym  WBO
 ---------------------------------------------------------------------------
     1   6 C    3.904 --    26 H    0.987    27 H    0.980    28 H    0.980
                             2 O    0.932
     2   8 O    2.131 --     3 C    1.014     1 C    0.932     4 O    0.105
     3   6 C    3.849 --     4 O    1.580     5 C    1.133     2 O    1.014
     4   8 O    1.858 --     3 C    1.580     2 O    0.105
     5   6 C    3.920 --    24 C    1.274     6 N    1.145     3 C    1.133
                            25 O    0.130
     6   7 N    3.019 --     7 C    1.627     5 C    1.145
     7   6 C    3.924 --     6 N    1.627    21 N    1.105     8 C    0.970
     8   6 C    3.968 --     9 C    0.983    10 C    0.983    11 N    0.981
                             7 C    0.970
     9   6 C    3.995 --    30 H    0.986    31 H    0.985     8 C    0.983
                            29 H    0.979
    10   6 C    3.994 --    32 H    0.987    33 H    0.985     8 C    0.983
                            34 H    0.977
    11   7 N    3.003 --     8 C    0.981    35 H    0.944    12 C    0.847
    12   6 C    3.936 --    14 O    1.211    13 C    0.940    15 C    0.883
                            11 N    0.847
    13   6 C    3.992 --    37 H    0.991    36 H    0.987    38 H    0.984
                            12 C    0.940
    14   8 O    1.561 --    12 C    1.211
    15   6 C    3.804 --    16 N    1.650    20 O    1.048    12 C    0.883
    16   7 N    2.983 --    15 C    1.650    17 N    1.146
    17   7 N    2.976 --    18 C    1.657    16 N    1.146
    18   6 C    3.888 --    17 N    1.657    20 O    1.063    19 C    1.024
    19   6 C    3.993 --    18 C    1.024    39 H    0.985    40 H    0.971
                            41 H    0.970
    20   8 O    2.295 --    18 C    1.063    15 C    1.048
    21   7 N    3.444 --    22 C    1.181     7 C    1.105    42 H    0.886
                            23 O    0.136
    22   6 C    3.884 --    23 O    1.554    21 N    1.181    24 C    0.973
    23   8 O    1.833 --    22 C    1.554    21 N    0.136
    24   6 C    3.944 --    25 O    1.506     5 C    1.274    22 C    0.973
    25   8 O    1.810 --    24 C    1.506     5 C    0.130
    26   1 H    1.017 --     1 C    0.987
    27   1 H    1.015 --     1 C    0.980
    28   1 H    1.016 --     1 C    0.980
    29   1 H    1.035 --     9 C    0.979
    30   1 H    1.010 --     9 C    0.986
    31   1 H    1.020 --     9 C    0.985
    32   1 H    1.013 --    10 C    0.987
    33   1 H    1.011 --    10 C    0.985
    34   1 H    1.030 --    10 C    0.977
    35   1 H    0.995 --    11 N    0.944
    36   1 H    1.017 --    13 C    0.987
    37   1 H    1.017 --    13 C    0.991
    38   1 H    1.018 --    13 C    0.984
    39   1 H    1.003 --    19 C    0.985
    40   1 H    1.002 --    19 C    0.971
    41   1 H    1.002 --    19 C    0.970
    42   1 H    0.973 --    21 N    0.886
 ---------------------------------------------------------------------------

           -------------------------------------------------
          | TOTAL ENERGY              -83.651285511692 Eh   |
          | GRADIENT NORM               0.000180226608 Eh/α |
          | HOMO-LUMO GAP               2.230570723047 eV   |
           -------------------------------------------------

 * finished run on 2023/06/21 at 17:00:54.976
