   * xtb version 6.5.1 (579679a) compiled by 'ehlert@majestix' on 2022-07-11
          program call               : /lustre/hpc/kemi/ree/PhD/git/ReactivityQM/dep/xtb-6.5.1/bin/xtb --gfn 1 /lustre/hpc/kemi/ree/PhD/git/ReactivityQM/calculations/R02/reac01prodE03/conf03/R02_reac01prodE03_conf03_gfn1.xyz --opt --vfukui --chrg -1 --uhf 0 --alpb DMSO

   ID    Z sym.   atoms
    1    6 C      1, 3, 5, 6, 8-11, 13, 15, 18, 19, 22, 24
    2    8 O      2, 4, 14, 20, 23, 25
    3    7 N      7, 12, 16, 17, 21
    4    1 H      26-43

      * Solvation model:               ALPB
        Solvent                        DMSO
        Solvent mass                       7.8130E+01 g/mol
          :  Hamiltonian                  GFN1-xTB          :
 * total energy  :   -83.8130111 Eh     change       -0.3879563E-10 Eh
 * total energy  :   -83.8280633 Eh     change       -0.1505212E-01 Eh
 * total energy  :   -83.8343380 Eh     change       -0.6274783E-02 Eh
 * total energy  :   -83.8360331 Eh     change       -0.1695039E-02 Eh
 * total energy  :   -83.8372988 Eh     change       -0.1265680E-02 Eh
 * total energy  :   -83.8381239 Eh     change       -0.8251086E-03 Eh
 * total energy  :   -83.8388897 Eh     change       -0.7657785E-03 Eh
 * total energy  :   -83.8395341 Eh     change       -0.6444682E-03 Eh
 * total energy  :   -83.8399777 Eh     change       -0.4435712E-03 Eh
 * total energy  :   -83.8402797 Eh     change       -0.3020519E-03 Eh
 * total energy  :   -83.8470437 Eh     change       -0.3211222E-04 Eh
 * total energy  :   -83.8470819 Eh     change       -0.3821145E-04 Eh
 * total energy  :   -83.8471057 Eh     change       -0.2382686E-04 Eh
 * total energy  :   -83.8471531 Eh     change       -0.4732012E-04 Eh
 * total energy  :   -83.8471743 Eh     change       -0.2124220E-04 Eh
 * total energy  :   -83.8471932 Eh     change       -0.1886225E-04 Eh
 * total energy  :   -83.8472056 Eh     change       -0.1244570E-04 Eh
 * total energy  :   -83.8472115 Eh     change       -0.5933826E-05 Eh
 * total energy  :   -83.8472159 Eh     change       -0.4313168E-05 Eh
   *** GEOMETRY OPTIMIZATION CONVERGED AFTER 52 ITERATIONS ***

 final structure:
================
43
 xtb: 6.5.1 (579679a)
C           -3.75982417295776       -0.31455689545164       -2.38614104870689
O           -4.03410499925765       -0.72058808984793       -1.04829452391143
C           -3.77934062701487        0.23277826411018       -0.06371518922670
O           -4.89048002237793        1.01149838406673        0.28281447754467
C           -5.98369378218813        0.27786700573565        0.82683569059641
C           -2.53755180356001        0.41363417147042        0.48033484184068
N           -1.51991344106105       -0.39249757331784       -0.06612923214151
C           -0.33245408270493       -0.31075742699576        0.41416404823793
C            0.75010449914344       -1.23335610980407       -0.12898267003762
C            0.89549379208310       -2.42566172440902        0.82217490276668
C            0.39309311131482       -1.70926912719214       -1.53968624281027
N            2.03612685848785       -0.52900694376290       -0.14283046031857
C            2.23732059616750        0.61513707711720       -0.83373762183616
O            1.37655716007976        1.22133056002638       -1.45758093152725
C            3.63181122908539        1.10328449716872       -0.74053015975180
N            4.12322873828455        2.20449810060553       -1.22953960649894
N            5.44201038676672        2.23698151472335       -0.87784515829430
C            5.67521109627937        1.15888246965708       -0.19910975650490
C            6.95461438372523        0.72529208082146        0.40458416088852
O            4.57492081980001        0.39632119664727       -0.07143168763017
N            0.01740553373596        0.50256798967221        1.43635263166671
C           -0.90383975477400        1.40929558746401        2.05579373422050
O           -0.45287279448186        2.13372148549708        2.97518203492460
C           -2.18633706516405        1.33266999082386        1.52670472641098
O           -3.15899136669292        2.17976098548821        2.08465219157215
H           -4.30849069522923        0.59840949634245       -2.64652837665500
H           -2.68492136499057       -0.14205385646751       -2.52622656464477
H           -4.08188322100064       -1.12603992067714       -3.04090248934566
H           -5.71298725654421       -0.17753516669499        1.78786825791762
H           -6.30625788901567       -0.50902570804401        0.13609054746011
H           -6.80296211289117        0.98185804961806        0.97753110880355
H            1.16401828386475       -2.08024758829562        1.81955327838617
H           -0.04792676130049       -2.96713871697318        0.87827901904948
H            1.66830546943746       -3.10309323864927        0.46371324119109
H            1.16741970693931       -2.37379818150491       -1.91748130412766
H           -0.55560479186125       -2.24338323301308       -1.50603634720170
H            0.29027866942298       -0.85759061171902       -2.21135641855026
H            2.83067491002672       -0.99822365697770        0.25358013172461
H            6.84018436078765        0.61470554111627        1.48276930843544
H            7.24878349510982       -0.24185650226395       -0.00184379228950
H            7.72764622049541        1.45988287659912        0.19304404525418
H            0.95799568646520        0.49398693989942        1.79119473041051
H           -3.96276900243977        2.13256000739838        1.54271347270087

          :  Hamiltonian                  GFN1-xTB          :
         :: total energy             -83.847215852025 Eh    ::
         :: gradient norm              0.000602658376 Eh/a0 ::
         :: HOMO-LUMO gap              0.164871594055 eV    ::
         :: SCC energy               -84.607513909138 Eh    ::
         :: -> Gsolv                  -0.133670559336 Eh    ::
         :: repulsion energy           0.786806903441 Eh    ::

    * Orbital Energies and Occupations

         #    Occupation            Energy/Eh            Energy/eV
      -------------------------------------------------------------
         1        2.0000           -0.8526748             -23.2025
       ...           ...                  ...                  ...
        56        2.0000           -0.4698269             -12.7846
        57        2.0000           -0.4661294             -12.6840
        58        2.0000           -0.4512304             -12.2786
        59        2.0000           -0.4472105             -12.1692
        60        2.0000           -0.4408958             -11.9974
        61        2.0000           -0.4394069             -11.9569
        62        2.0000           -0.4372800             -11.8990
        63        2.0000           -0.4309524             -11.7268
        64        2.0000           -0.4232988             -11.5185
        65        2.0000           -0.3919175             -10.6646
        66        2.0000           -0.3880172             -10.5585
        67        2.0000           -0.3709828             -10.0950
        68        1.9208           -0.3036097              -8.2616 (HOMO)
        69        0.0792           -0.2975508              -8.0968 (LUMO)
        70                         -0.2465374              -6.7086
        71                         -0.2255548              -6.1377
        72                         -0.1922310              -5.2309
        73                         -0.1837727              -5.0007
        74                         -0.1374132              -3.7392
        75                         -0.1198869              -3.2623
        76                         -0.1185441              -3.2258
        77                         -0.1154230              -3.1408
        78                         -0.1063482              -2.8939
        79                         -0.0902998              -2.4572
       ...                                ...                  ...
       136                          0.7311385              19.8953
      -------------------------------------------------------------
                  HL-Gap            0.0060589 Eh            0.1649 eV

Wiberg/Mayer (AO) data.
largest (>0.10) Wiberg bond orders for each atom

     #   Z sym  total        # sym  WBO       # sym  WBO       # sym  WBO
 ---------------------------------------------------------------------------
     1   6 C    3.914 --    28 H    0.986    26 H    0.983    27 H    0.982
                             2 O    0.931
     2   8 O    2.012 --     3 C    0.946     1 C    0.931
     3   6 C    3.712 --     6 C    1.520     2 O    0.946     4 O    0.932
     4   8 O    2.044 --     3 C    0.932     5 C    0.930
     5   6 C    3.910 --    31 H    0.986    29 H    0.983    30 H    0.983
                             4 O    0.930
     6   6 C    3.953 --     3 C    1.520    24 C    1.174     7 N    1.072
     7   7 N    2.999 --     8 C    1.622     6 C    1.072    21 N    0.132
     8   6 C    3.947 --     7 N    1.622    21 N    1.197     9 C    0.965
     9   6 C    3.932 --    11 C    0.992    10 C    0.989     8 C    0.965
                            12 N    0.920
    10   6 C    3.993 --     9 C    0.989    32 H    0.985    33 H    0.984
                            34 H    0.984
    11   6 C    3.992 --     9 C    0.992    35 H    0.987    36 H    0.983
                            37 H    0.981
    12   7 N    3.332 --    13 C    1.246     9 C    0.920    38 H    0.899
                            14 O    0.172
    13   6 C    3.894 --    14 O    1.565    12 N    1.246    15 C    1.003
    14   8 O    1.857 --    13 C    1.565    12 N    0.172
    15   6 C    3.838 --    16 N    1.597    20 O    1.036    13 C    1.003
    16   7 N    2.956 --    15 C    1.597    17 N    1.192
    17   7 N    2.980 --    18 C    1.618    16 N    1.192
    18   6 C    3.861 --    17 N    1.618    20 O    1.068    19 C    1.030
    19   6 C    3.988 --    18 C    1.030    41 H    0.983    40 H    0.965
                            39 H    0.964
    20   8 O    2.296 --    18 C    1.068    15 C    1.036
    21   7 N    3.363 --     8 C    1.197    22 C    0.959    42 H    0.907
                             7 N    0.132
    22   6 C    3.897 --    23 O    1.414    24 C    1.370    21 N    0.959
    23   8 O    1.712 --    22 C    1.414    24 C    0.131
    24   6 C    3.811 --    22 C    1.370     6 C    1.174    25 O    0.966
                            23 O    0.131
    25   8 O    1.929 --    24 C    0.966    43 H    0.846
    26   1 H    1.015 --     1 C    0.983
    27   1 H    1.027 --     1 C    0.982
    28   1 H    1.019 --     1 C    0.986
    29   1 H    1.015 --     5 C    0.983
    30   1 H    1.020 --     5 C    0.983
    31   1 H    1.018 --     5 C    0.986
    32   1 H    1.002 --    10 C    0.985
    33   1 H    1.004 --    10 C    0.984
    34   1 H    0.999 --    10 C    0.984
    35   1 H    1.003 --    11 C    0.987
    36   1 H    1.017 --    11 C    0.983
    37   1 H    1.016 --    11 C    0.981
    38   1 H    0.941 --    12 N    0.899
    39   1 H    0.997 --    19 C    0.964
    40   1 H    0.997 --    19 C    0.965
    41   1 H    1.000 --    19 C    0.983
    42   1 H    0.959 --    21 N    0.907
    43   1 H    0.898 --    25 O    0.846
 ---------------------------------------------------------------------------

           -------------------------------------------------
          | TOTAL ENERGY              -83.847215852025 Eh   |
          | GRADIENT NORM               0.000602658376 Eh/α |
          | HOMO-LUMO GAP               0.164871594055 eV   |
           -------------------------------------------------

 * finished run on 2023/06/20 at 14:55:12.537
