   * xtb version 6.5.1 (579679a) compiled by 'ehlert@majestix' on 2022-07-11
          program call               : /lustre/hpc/kemi/ree/PhD/git/ReactivityQM/dep/xtb-6.5.1/bin/xtb --gfn 1 /lustre/hpc/kemi/ree/PhD/git/ReactivityQM/calculations/R02oxygendeprot/reac01prodE09/conf09/R02oxygendeprot_reac01prodE09_conf09_gfn1.xyz --opt --vfukui --chrg -2 --uhf 0 --alpb DMSO

   ID    Z sym.   atoms
    1    6 C      1, 3, 5, 7-10, 12, 14, 16, 17, 20, 22, 24
    2    8 O      2, 4, 13, 15, 23, 25
    3    7 N      6, 11, 18, 19, 21
    4    1 H      26-42

      * Solvation model:               ALPB
        Solvent                        DMSO
        Solvent mass                       7.8130E+01 g/mol
          :  Hamiltonian                  GFN1-xTB          :
 * total energy  :   -83.5863544 Eh     change       -0.3369394E-10 Eh
 * total energy  :   -83.6024885 Eh     change       -0.1613406E-01 Eh
 * total energy  :   -83.6097970 Eh     change       -0.7308531E-02 Eh
 * total energy  :   -83.6125788 Eh     change       -0.2781796E-02 Eh
 * total energy  :   -83.6163123 Eh     change       -0.3733460E-02 Eh
 * total energy  :   -83.6186814 Eh     change       -0.2369078E-02 Eh
 * total energy  :   -83.6213675 Eh     change       -0.2686176E-02 Eh
 * total energy  :   -83.6230835 Eh     change       -0.1716001E-02 Eh
 * total energy  :   -83.6244086 Eh     change       -0.1325047E-02 Eh
 * total energy  :   -83.6253038 Eh     change       -0.8952296E-03 Eh
 * total energy  :   -83.6329477 Eh     change       -0.3077186E-04 Eh
 * total energy  :   -83.6329797 Eh     change       -0.3201665E-04 Eh
 * total energy  :   -83.6330035 Eh     change       -0.2381116E-04 Eh
 * total energy  :   -83.6330216 Eh     change       -0.1802675E-04 Eh
 * total energy  :   -83.6330376 Eh     change       -0.1601154E-04 Eh
 * total energy  :   -83.6330453 Eh     change       -0.7666516E-05 Eh
 * total energy  :   -83.6330581 Eh     change       -0.1284291E-04 Eh
 * total energy  :   -83.6330646 Eh     change       -0.6511424E-05 Eh
 * total energy  :   -83.6330687 Eh     change       -0.4138720E-05 Eh
   *** GEOMETRY OPTIMIZATION CONVERGED AFTER 71 ITERATIONS ***

 final structure:
================
42
 xtb: 6.5.1 (579679a)
C            6.85612270116360       -1.03641065283523       -1.15700547883054
O            5.72993716485440       -0.98917004876435       -0.29656161333961
C            4.63648271751823       -0.34301400131541       -0.78880275535718
O            4.66850795636399        0.15437417481331       -1.91085441235070
C            3.49565874610374       -0.30435391608145        0.10818503248529
N            2.41404792187668        0.37646495307834       -0.43031229862850
C            1.33004953364711        0.50941131368809        0.23996006243383
C            0.15711906578479        1.31748804600734       -0.29029422297970
C            0.31517770274661        2.74310664311196        0.26962261433109
C            0.20101781039313        1.33171211500288       -1.82719993161978
N           -1.06003514739364        0.69169447430229        0.22880886127468
C           -2.34024948744617        1.19814964635255       -0.25938283498049
O           -2.44730086011609        2.39660762599297       -0.63678424671565
C           -3.36074333951568        0.30233441944929       -0.00527014119015
O           -4.64378999896302        0.44556128809996       -0.63382707185109
C           -4.99388631194379       -0.79577161861462       -0.97102760931326
C           -6.26500664320394       -0.99121879736641       -1.72616449982236
N           -4.21385896656553       -1.74779186528359       -0.62108132630475
N           -3.12930736838862       -1.13799018730593        0.12761477425177
C           -3.30035365143728       -1.59664390351290        1.52032280206338
N            1.19951324036525       -0.00250674520252        1.51457534048618
C            2.17653911603170       -0.69896452942265        2.16550114885740
O            1.97482533501200       -1.12722502449634        3.30339573306043
C            3.47106202518930       -0.88037706349898        1.40462821379494
O            4.40212395918302       -1.50446753203339        1.95442847732370
H            6.61512720356991       -1.56282913582014       -2.08651134852939
H            7.64328551321104       -1.57139089274587       -0.62681516004661
H            7.20036203618948       -0.02707377510061       -1.40553209688843
H           -0.44353831146989        3.40721015436162       -0.14039609564682
H            0.21792711180860        2.72501540232994        1.35494558189522
H            1.30087226353807        3.13050644841060        0.01016818153481
H           -0.58607507550546        1.97252774678759       -2.22205478777768
H            0.06698872762194        0.32175805559960       -2.21558287687524
H            1.16826409351487        1.70746074500263       -2.16204154702115
H           -1.03049990481128       -0.31409040332967        0.05710101551322
H           -6.23120919679202       -0.45020628256653       -2.67172964084782
H           -6.42024756964779       -2.04980910159312       -1.91963362958634
H           -7.10206998524841       -0.60450702489045       -1.14581079716051
H           -4.27970839151929       -1.31215921443207        1.91741793481080
H           -2.51638392206614       -1.13896216818282        2.12123931921642
H           -3.19893894319533       -2.68131798080048        1.54598444289806
H            0.32219312954952        0.13686761280121        1.99870788744184

          :  Hamiltonian                  GFN1-xTB          :
         :: total energy             -83.633068745835 Eh    ::
         :: gradient norm              0.000697946975 Eh/a0 ::
         :: HOMO-LUMO gap              0.928941964340 eV    ::
         :: SCC energy               -84.371890027547 Eh    ::
         :: -> Gsolv                  -0.258970384964 Eh    ::
         :: repulsion energy           0.764651721887 Eh    ::

    * Orbital Energies and Occupations

         #    Occupation            Energy/Eh            Energy/eV
      -------------------------------------------------------------
         1        2.0000           -0.7912044             -21.5298
       ...           ...                  ...                  ...
        56        2.0000           -0.4484870             -12.2040
        57        2.0000           -0.4433549             -12.0643
        58        2.0000           -0.4281585             -11.6508
        59        2.0000           -0.4252866             -11.5726
        60        2.0000           -0.4150390             -11.2938
        61        2.0000           -0.4060735             -11.0498
        62        2.0000           -0.4011666             -10.9163
        63        2.0000           -0.3841701             -10.4538
        64        2.0000           -0.3781372             -10.2896
        65        2.0000           -0.3680615             -10.0155
        66        2.0000           -0.3632629              -9.8849
        67        2.0000           -0.3534295              -9.6173
        68        2.0000           -0.2942835              -8.0079 (HOMO)
        69                         -0.2601455              -7.0789 (LUMO)
        70                         -0.2217922              -6.0353
        71                         -0.2031006              -5.5266
        72                         -0.1871233              -5.0919
        73                         -0.1420282              -3.8648
        74                         -0.1197638              -3.2589
        75                         -0.1187564              -3.2315
        76                         -0.0984857              -2.6799
        77                         -0.0944050              -2.5689
        78                         -0.0918163              -2.4984
        79                         -0.0902894              -2.4569
       ...                                ...                  ...
       134                          0.7579530              20.6250
      -------------------------------------------------------------
                  HL-Gap            0.0341380 Eh            0.9289 eV

Wiberg/Mayer (AO) data.
largest (>0.10) Wiberg bond orders for each atom

     #   Z sym  total        # sym  WBO       # sym  WBO       # sym  WBO
 ---------------------------------------------------------------------------
     1   6 C    3.903 --    27 H    0.987    26 H    0.980    28 H    0.980
                             2 O    0.930
     2   8 O    2.153 --     3 C    1.036     1 C    0.930     4 O    0.107
     3   6 C    3.849 --     4 O    1.567     5 C    1.127     2 O    1.036
     4   8 O    1.844 --     3 C    1.567     2 O    0.107
     5   6 C    3.918 --    24 C    1.279     6 N    1.143     3 C    1.127
                            25 O    0.130
     6   7 N    3.022 --     7 C    1.636     5 C    1.143
     7   6 C    3.926 --     6 N    1.636    21 N    1.095     8 C    0.975
     8   6 C    3.966 --    10 C    0.988     9 C    0.980     7 C    0.975
                            11 N    0.967
     9   6 C    3.993 --    31 H    0.989    30 H    0.987     8 C    0.980
                            29 H    0.977
    10   6 C    3.996 --     8 C    0.988    33 H    0.987    34 H    0.985
                            32 H    0.983
    11   7 N    3.082 --     8 C    0.967    12 C    0.951    35 H    0.934
    12   6 C    3.919 --    14 C    1.464    13 O    1.388    11 N    0.951
    13   8 O    1.741 --    12 C    1.388    14 C    0.166
    14   6 C    3.604 --    12 C    1.464    19 N    0.951    15 O    0.866
                            13 O    0.166
    15   8 O    2.186 --    16 C    1.104    14 C    0.866    18 N    0.139
    16   6 C    3.910 --    18 N    1.704    15 O    1.104    17 C    1.012
    17   6 C    3.995 --    16 C    1.012    37 H    0.987    36 H    0.974
                            38 H    0.973
    18   7 N    2.940 --    16 C    1.704    19 N    0.975    15 O    0.139
    19   7 N    3.065 --    18 N    0.975    20 C    0.970    14 C    0.951
    20   6 C    3.983 --    41 H    0.988    40 H    0.988    39 H    0.984
                            19 N    0.970
    21   7 N    3.440 --    22 C    1.178     7 C    1.095    42 H    0.894
                            23 O    0.136
    22   6 C    3.883 --    23 O    1.560    21 N    1.178    24 C    0.972
    23   8 O    1.841 --    22 C    1.560    21 N    0.136
    24   6 C    3.944 --    25 O    1.505     5 C    1.279    22 C    0.972
    25   8 O    1.810 --    24 C    1.505     5 C    0.130
    26   1 H    1.015 --     1 C    0.980
    27   1 H    1.016 --     1 C    0.987
    28   1 H    1.015 --     1 C    0.980
    29   1 H    1.030 --     9 C    0.977
    30   1 H    1.011 --     9 C    0.987
    31   1 H    1.009 --     9 C    0.989
    32   1 H    1.021 --    10 C    0.983
    33   1 H    1.009 --    10 C    0.987
    34   1 H    1.019 --    10 C    0.985
    35   1 H    0.988 --    11 N    0.934
    36   1 H    1.005 --    17 C    0.974
    37   1 H    1.006 --    17 C    0.987
    38   1 H    1.004 --    17 C    0.973
    39   1 H    1.020 --    20 C    0.984
    40   1 H    1.029 --    20 C    0.988
    41   1 H    1.024 --    20 C    0.988
    42   1 H    0.966 --    21 N    0.894
 ---------------------------------------------------------------------------

           -------------------------------------------------
          | TOTAL ENERGY              -83.633068745835 Eh   |
          | GRADIENT NORM               0.000697946975 Eh/α |
          | HOMO-LUMO GAP               0.928941964340 eV   |
           -------------------------------------------------

 * finished run on 2023/06/21 at 17:10:39.734
