   * xtb version 6.5.1 (579679a) compiled by 'ehlert@majestix' on 2022-07-11
          program call               : /lustre/hpc/kemi/ree/PhD/git/ReactivityQM/dep/xtb-6.5.1/bin/xtb --gfn 1 /lustre/hpc/kemi/ree/PhD/git/ReactivityQM/calculations/RaltegravirCLI/reac01prodN07/conf07/RaltegravirCLI_reac01prodN07_conf07_gfn1.xyz --opt --vfukui --chrg 1 --uhf 0 --alpb DMSO

   ID    Z sym.   atoms
    1    6 C      1, 3, 5, 8, 9
    2    8 O      2, 10
    3   17 Cl     4
    4    7 N      6, 7
    5    1 H      11-16

      * Solvation model:               ALPB
        Solvent                        DMSO
        Solvent mass                       7.8130E+01 g/mol
          :  Hamiltonian                  GFN1-xTB          :
 * total energy  :   -33.4076455 Eh     change       -0.3659295E-11 Eh
 * total energy  :   -33.4155318 Eh     change       -0.7886263E-02 Eh
 * total energy  :   -33.4177248 Eh     change       -0.2192954E-02 Eh
 * total energy  :   -33.4180129 Eh     change       -0.2881201E-03 Eh
 * total energy  :   -33.4181979 Eh     change       -0.1849685E-03 Eh
 * total energy  :   -33.4182224 Eh     change       -0.2450433E-04 Eh
 * total energy  :   -33.4182329 Eh     change       -0.1051732E-04 Eh
 * total energy  :   -33.4182349 Eh     change       -0.1991659E-05 Eh
   *** GEOMETRY OPTIMIZATION CONVERGED AFTER 8 ITERATIONS ***

 final structure:
================
16
 xtb: 6.5.1 (579679a)
C           -2.97776002580530        0.01114187109154       -0.72453874253959
O           -2.53735441207894       -0.87361256111302        0.31973365282105
C           -1.32287159181963       -1.00400303510431        0.70550791588465
Cl          -1.05014356510146       -2.08774502496467        1.93676676225514
C           -0.24063843061415       -0.27983230918179        0.13798724561220
N           -0.25559462616442        0.61458381003852       -0.83511812881818
N            0.99084235254228        1.01565040890233       -1.02203148985266
C            1.74743117629702        0.36016294026913       -0.15876554794266
C            3.20112751479189        0.48044914980449        0.02750681494223
O            1.02121834062820       -0.46079621181974        0.58643180018957
H           -2.47801050362798       -0.25001071091793       -1.65813776656493
H           -2.73496543715976        1.03984647704554       -0.45534905245352
H           -4.05338373261267       -0.13681394364200       -0.79510438089334
H            3.40751196363430        1.30352223243859        0.71586849884022
H            3.68172108957355        0.70313878007452       -0.92358975944020
H            3.60086888751705       -0.43568087292117        0.45714917796001

          :  Hamiltonian                  GFN1-xTB          :
         :: total energy             -33.418234865432 Eh    ::
         :: gradient norm              0.000518107455 Eh/a0 ::
         :: HOMO-LUMO gap              2.434017190087 eV    ::
         :: SCC energy               -33.695008331978 Eh    ::
         :: -> Gsolv                  -0.078352100136 Eh    ::
         :: repulsion energy           0.283880893065 Eh    ::

    * Orbital Energies and Occupations

         #    Occupation            Energy/Eh            Energy/eV
      -------------------------------------------------------------
         1        2.0000           -1.0161940             -27.6520
       ...           ...                  ...                  ...
        15        2.0000           -0.6382879             -17.3687
        16        2.0000           -0.5977992             -16.2669
        17        2.0000           -0.5844082             -15.9026
        18        2.0000           -0.5828346             -15.8597
        19        2.0000           -0.5730146             -15.5925
        20        2.0000           -0.5627295             -15.3126
        21        2.0000           -0.5610648             -15.2674
        22        2.0000           -0.5598248             -15.2336
        23        2.0000           -0.5375404             -14.6272
        24        2.0000           -0.5342161             -14.5368
        25        2.0000           -0.5254883             -14.2993
        26        2.0000           -0.5046172             -13.7313
        27        2.0000           -0.5012724             -13.6403 (HOMO)
        28                         -0.4118239             -11.2063 (LUMO)
        29                         -0.3068186              -8.3490
        30                         -0.2849272              -7.7533
        31                         -0.2642862              -7.1916
        32                         -0.1703580              -4.6357
        33                         -0.1621128              -4.4113
        34                         -0.1402936              -3.8176
        35                         -0.1402104              -3.8153
        36                         -0.1388770              -3.7790
        37                         -0.1102907              -3.0012
        38                         -0.1006968              -2.7401
       ...                                ...                  ...
        57                          0.5362621              14.5924
      -------------------------------------------------------------
                  HL-Gap            0.0894485 Eh            2.4340 eV

Wiberg/Mayer (AO) data.
largest (>0.10) Wiberg bond orders for each atom

     #   Z sym  total        # sym  WBO       # sym  WBO       # sym  WBO
 ---------------------------------------------------------------------------
     1   6 C    3.809 --    13 H    0.977    11 H    0.964    12 H    0.964
                             2 O    0.842
     2   8 O    2.342 --     3 C    1.300     1 C    0.842
     3   6 C    3.886 --     2 O    1.300     4 Cl   1.228     5 C    1.182
     4  17 Cl   1.460 --     3 C    1.228
     5   6 C    3.886 --     6 N    1.449     3 C    1.182    10 O    1.039
     6   7 N    3.042 --     5 C    1.449     7 N    1.343
     7   7 N    2.999 --     8 C    1.452     6 N    1.343
     8   6 C    3.843 --     7 N    1.452    10 O    1.132     9 C    1.049
     9   6 C    3.971 --     8 C    1.049    16 H    0.970    15 H    0.965
                            14 H    0.933
    10   8 O    2.353 --     8 C    1.132     5 C    1.039
    11   1 H    1.003 --     1 C    0.964
    12   1 H    1.003 --     1 C    0.964
    13   1 H    0.998 --     1 C    0.977
    14   1 H    0.985 --     9 C    0.933
    15   1 H    0.989 --     9 C    0.965
    16   1 H    0.990 --     9 C    0.970
 ---------------------------------------------------------------------------

           -------------------------------------------------
          | TOTAL ENERGY              -33.418234865432 Eh   |
          | GRADIENT NORM               0.000518107455 Eh/α |
          | HOMO-LUMO GAP               2.434017190087 eV   |
           -------------------------------------------------

 * finished run on 2023/06/20 at 14:55:32.073
