   * xtb version 6.5.1 (579679a) compiled by 'ehlert@majestix' on 2022-07-11
          program call               : /lustre/hpc/kemi/ree/PhD/git/ReactivityQM/dep/xtb-6.5.1/bin/xtb --gfn 1 /lustre/hpc/kemi/ree/PhD/git/ReactivityQM/calculations/RaltegravirCLI/reac02/conf10/RaltegravirCLI_reac02_conf10_gfn1.xyz --opt --vfukui --chrg 0 --uhf 0 --alpb DMSO

   ID    Z sym.   atoms
    1    6 C      1, 3-6, 9, 10, 13-17, 19-21, 23
    2    7 N      2, 7, 8, 12
    3    8 O      11, 22, 24
    4    9 F      18
    5    1 H      25-43

      * Solvation model:               ALPB
        Solvent                        DMSO
        Solvent mass                       7.8130E+01 g/mol
          :  Hamiltonian                  GFN1-xTB          :
 * total energy  :   -76.1647612 Eh     change       -0.7858603E-11 Eh
 * total energy  :   -76.1720605 Eh     change       -0.7299246E-02 Eh
 * total energy  :   -76.1739988 Eh     change       -0.1938369E-02 Eh
 * total energy  :   -76.1743696 Eh     change       -0.3707736E-03 Eh
 * total energy  :   -76.1745970 Eh     change       -0.2273675E-03 Eh
 * total energy  :   -76.1746787 Eh     change       -0.8168358E-04 Eh
 * total energy  :   -76.1747364 Eh     change       -0.5775001E-04 Eh
 * total energy  :   -76.1747620 Eh     change       -0.2560097E-04 Eh
 * total energy  :   -76.1747801 Eh     change       -0.1804131E-04 Eh
 * total energy  :   -76.1747920 Eh     change       -0.1196088E-04 Eh
 * total energy  :   -76.1749662 Eh     change       -0.1188045E-04 Eh
 * total energy  :   -76.1749763 Eh     change       -0.1010928E-04 Eh
 * total energy  :   -76.1749872 Eh     change       -0.1093311E-04 Eh
 * total energy  :   -76.1749979 Eh     change       -0.1066584E-04 Eh
 * total energy  :   -76.1750048 Eh     change       -0.6904390E-05 Eh
 * total energy  :   -76.1750110 Eh     change       -0.6182931E-05 Eh
 * total energy  :   -76.1750187 Eh     change       -0.7743317E-05 Eh
 * total energy  :   -76.1750261 Eh     change       -0.7409988E-05 Eh
 * total energy  :   -76.1750302 Eh     change       -0.4044714E-05 Eh
   *** GEOMETRY OPTIMIZATION CONVERGED AFTER 31 ITERATIONS ***

 final structure:
================
43
 xtb: 6.5.1 (579679a)
C           -3.92947875514996        1.89480398410864       -1.03279820168356
N           -2.64112022591501        1.40287270065421       -0.54465090609758
C           -2.43811878694028        0.14401606421085       -0.02985167549342
C           -3.53395078278756       -0.92483963013931        0.08874505895914
C           -4.35176518367234       -1.12293502444636       -1.19467236039710
C           -4.43559612599961       -0.61455174189086        1.29295255184974
N           -2.88229110233928       -2.20099706874452        0.36513048864317
N           -1.28009676888188       -0.22015697658361        0.42168615832896
C           -0.19076347246179        0.60364558379842        0.40141250073075
C            1.04288020602189       -0.01616594749607        0.99198530146025
O            1.02932153970575       -1.15533193481698        1.44417135296131
N            2.14527037087011        0.75801203715200        1.01491364687536
C            3.40761007314820        0.24091327226461        1.53271228680925
C            4.23742864257446       -0.36573308516511        0.42077231048057
C            5.36051048624008        0.29778143349869       -0.06580300698031
C            6.11570244549466       -0.25051250210055       -1.09446984407399
C            5.71930408853596       -1.46523090667517       -1.62228016191868
F            6.44402683088030       -2.00259145324774       -2.61822203648386
C            4.60832008222289       -2.15126662202273       -1.16421995854227
C            3.86809223501702       -1.59064003737125       -0.13384966185692
C           -0.31847389449315        1.84972992107118       -0.13818995618596
O            0.68229155158188        2.74973190426046       -0.23961357585374
C           -1.59544156977034        2.30172481637422       -0.65516918475729
O           -1.72926804444614        3.42193190154389       -1.14573044901051
H           -4.09593501561614        1.55038803891784       -2.05284082187075
H           -3.89597201881021        2.98417338435579       -1.02624715697681
H           -4.73292641292732        1.55931502785053       -0.38539064688042
H           -3.71310843068882       -1.04391160490342       -2.07319948274579
H           -5.16444308892277       -0.40618895303806       -1.27808404407654
H           -4.78714363755199       -2.12217504467485       -1.17199639728383
H           -5.01343241635747        0.29407649637350        1.14037797985097
H           -3.82709375144623       -0.49528285531881        2.18900835405994
H           -5.12352979224670       -1.44601465456334        1.44275454564995
H           -2.30224854142135       -2.09987714670462        1.19349866637139
H           -2.26232789755159       -2.42216071138232       -0.40540113595940
H            2.16300512737989        1.66357759831473        0.57747874209842
H            3.17594700601039       -0.51687763629109        2.28843553553768
H            3.94343501597406        1.06710309450000        2.00535900101632
H            5.65457546840428        1.24966237318826        0.36053145649918
H            6.99223650037546        0.25379319016127       -1.47938805745854
H            4.33349517562057       -3.10153697164806       -1.60357888208203
H            2.99490175286685       -2.11032619567100        0.24426940772971
H            0.32617011747638        3.55805288229541       -0.65639674124024

          :  Hamiltonian                  GFN1-xTB          :
         :: total energy             -76.175030150904 Eh    ::
         :: gradient norm              0.000354007692 Eh/a0 ::
         :: HOMO-LUMO gap              2.722000563741 eV    ::
         :: SCC energy               -77.019666794926 Eh    ::
         :: -> Gsolv                  -0.045579422350 Eh    ::
         :: repulsion energy           0.871934776251 Eh    ::

    * Orbital Energies and Occupations

         #    Occupation            Energy/Eh            Energy/eV
      -------------------------------------------------------------
         1        2.0000           -0.8627341             -23.4762
       ...           ...                  ...                  ...
        52        2.0000           -0.4952549             -13.4766
        53        2.0000           -0.4876011             -13.2683
        54        2.0000           -0.4837173             -13.1626
        55        2.0000           -0.4719046             -12.8412
        56        2.0000           -0.4669990             -12.7077
        57        2.0000           -0.4648040             -12.6480
        58        2.0000           -0.4499051             -12.2425
        59        2.0000           -0.4460021             -12.1363
        60        2.0000           -0.4378223             -11.9138
        61        2.0000           -0.4335300             -11.7970
        62        2.0000           -0.4317595             -11.7488
        63        2.0000           -0.4196466             -11.4192
        64        2.0000           -0.4101586             -11.1610 (HOMO)
        65                         -0.3101270              -8.4390 (LUMO)
        66                         -0.2724303              -7.4132
        67                         -0.2718291              -7.3968
        68                         -0.2653735              -7.2212
        69                         -0.2251022              -6.1253
        70                         -0.1470530              -4.0015
        71                         -0.1451026              -3.9484
        72                         -0.1439287              -3.9165
        73                         -0.1266345              -3.4459
        74                         -0.1190566              -3.2397
        75                         -0.1168285              -3.1791
       ...                                ...                  ...
       134                          0.7184886              19.5511
      -------------------------------------------------------------
                  HL-Gap            0.1000317 Eh            2.7220 eV

Wiberg/Mayer (AO) data.
largest (>0.10) Wiberg bond orders for each atom

     #   Z sym  total        # sym  WBO       # sym  WBO       # sym  WBO
 ---------------------------------------------------------------------------
     1   6 C    3.925 --    27 H    0.977    25 H    0.977    26 H    0.973
                             2 N    0.931
     2   7 N    3.507 --     3 C    1.164    23 C    1.134     1 C    0.931
                            24 O    0.133
     3   6 C    3.918 --     8 N    1.570     2 N    1.164     4 C    0.963
     4   6 C    3.969 --     7 N    0.997     5 C    0.992     6 C    0.983
                             3 C    0.963
     5   6 C    3.994 --     4 C    0.992    28 H    0.986    30 H    0.983
                            29 H    0.983
     6   6 C    3.994 --    32 H    0.985    33 H    0.983     4 C    0.983
                            31 H    0.979
     7   7 N    2.960 --     4 C    0.997    35 H    0.945    34 H    0.940
     8   7 N    3.042 --     3 C    1.570     9 C    1.196
     9   6 C    3.964 --    21 C    1.508     8 N    1.196    10 C    0.991
    10   6 C    3.907 --    11 O    1.571    12 N    1.265     9 C    0.991
    11   8 O    1.879 --    10 C    1.571    12 N    0.171
    12   7 N    3.346 --    10 C    1.265    13 C    0.942    36 H    0.887
                            11 O    0.171
    13   6 C    3.949 --    14 C    0.994    38 H    0.977    37 H    0.968
                            12 N    0.942
    14   6 C    3.988 --    15 C    1.424    20 C    1.414    13 C    0.994
    15   6 C    3.994 --    16 C    1.438    14 C    1.424    39 H    0.971
                            19 C    0.110
    16   6 C    3.991 --    15 C    1.438    17 C    1.405    40 H    0.969
                            20 C    0.111
    17   6 C    3.860 --    16 C    1.405    19 C    1.398    18 F    0.923
    18   9 F    1.051 --    17 C    0.923
    19   6 C    3.992 --    20 C    1.448    17 C    1.398    41 H    0.970
                            15 C    0.110
    20   6 C    3.992 --    19 C    1.448    14 C    1.414    42 H    0.969
                            16 C    0.111
    21   6 C    3.916 --     9 C    1.508    23 C    1.093    22 O    1.070
    22   8 O    2.063 --    21 C    1.070    43 H    0.800
    23   6 C    3.916 --    24 O    1.537     2 N    1.134    21 C    1.093
    24   8 O    1.888 --    23 C    1.537     2 N    0.133
    25   1 H    1.002 --     1 C    0.977
    26   1 H    1.007 --     1 C    0.973
    27   1 H    1.008 --     1 C    0.977
    28   1 H    1.001 --     5 C    0.986
    29   1 H    1.004 --     5 C    0.983
    30   1 H    1.008 --     5 C    0.983
    31   1 H    1.005 --     6 C    0.979
    32   1 H    1.003 --     6 C    0.985
    33   1 H    1.005 --     6 C    0.983
    34   1 H    0.977 --     7 N    0.940
    35   1 H    0.968 --     7 N    0.945
    36   1 H    0.945 --    12 N    0.887
    37   1 H    1.010 --    13 C    0.968
    38   1 H    1.003 --    13 C    0.977
    39   1 H    1.000 --    15 C    0.971
    40   1 H    0.998 --    16 C    0.969
    41   1 H    0.999 --    19 C    0.970
    42   1 H    1.010 --    20 C    0.969
    43   1 H    0.845 --    22 O    0.800
 ---------------------------------------------------------------------------

           -------------------------------------------------
          | TOTAL ENERGY              -76.175030150904 Eh   |
          | GRADIENT NORM               0.000354007692 Eh/α |
          | HOMO-LUMO GAP               2.722000563741 eV   |
           -------------------------------------------------

 * finished run on 2023/06/20 at 14:51:40.956
