   * xtb version 6.5.1 (579679a) compiled by 'ehlert@majestix' on 2022-07-11
          program call               : /lustre/hpc/kemi/ree/PhD/git/ReactivityQM/dep/xtb-6.5.1/bin/xtb --gfn 1 /lustre/hpc/kemi/ree/PhD/git/ReactivityQM/calculations/R02deprot/reac01prodE12/conf06/R02deprot_reac01prodE12_conf06_gfn1.xyz --opt --vfukui --chrg -2 --uhf 0 --alpb DMSO

   ID    Z sym.   atoms
    1    6 C      1, 3, 5, 6, 8, 9, 12-15, 17, 19, 22, 23
    2    8 O      2, 4, 7, 10, 18, 24
    3    7 N      11, 16, 20, 21, 25
    4    1 H      26-42

      * Solvation model:               ALPB
        Solvent                        DMSO
        Solvent mass                       7.8130E+01 g/mol
          :  Hamiltonian                  GFN1-xTB          :
 * total energy  :   -83.5612732 Eh     change       -0.4135359E-11 Eh
 * total energy  :   -83.5746281 Eh     change       -0.1335495E-01 Eh
 * total energy  :   -83.5807145 Eh     change       -0.6086429E-02 Eh
 * total energy  :   -83.5818277 Eh     change       -0.1113161E-02 Eh
 * total energy  :   -83.5823662 Eh     change       -0.5385041E-03 Eh
 * total energy  :   -83.5825835 Eh     change       -0.2172743E-03 Eh
 * total energy  :   -83.5827561 Eh     change       -0.1725729E-03 Eh
 * total energy  :   -83.5828955 Eh     change       -0.1394114E-03 Eh
 * total energy  :   -83.5830152 Eh     change       -0.1197245E-03 Eh
 * total energy  :   -83.5831406 Eh     change       -0.1254485E-03 Eh
 * total energy  :   -83.5862656 Eh     change       -0.1096321E-04 Eh
 * total energy  :   -83.5862759 Eh     change       -0.1025924E-04 Eh
 * total energy  :   -83.5862849 Eh     change       -0.9062996E-05 Eh
 * total energy  :   -83.5862930 Eh     change       -0.8055345E-05 Eh
 * total energy  :   -83.5863005 Eh     change       -0.7465966E-05 Eh
 * total energy  :   -83.5863078 Eh     change       -0.7354109E-05 Eh
 * total energy  :   -83.5863154 Eh     change       -0.7563103E-05 Eh
 * total energy  :   -83.5863232 Eh     change       -0.7842413E-05 Eh
 * total energy  :   -83.5863269 Eh     change       -0.3685693E-05 Eh
   *** GEOMETRY OPTIMIZATION CONVERGED AFTER 94 ITERATIONS ***

 final structure:
================
42
 xtb: 6.5.1 (579679a)
C           -6.56703278442018        0.70944113782489        0.32915122269246
O           -5.35065154151459        0.09523198339089       -0.07398559175067
C           -4.23544586527468        0.90487064582753       -0.02293265977899
O           -4.36310101218873        2.07200945091934        0.32722096684132
C           -2.98933842507948        0.25350737458459       -0.39863890829257
C           -2.83017748692119       -1.05807433546030       -0.75915510258543
O           -3.82904579563920       -1.98848588446016       -0.79223494498684
C           -1.46259782495430       -1.60088364175528       -1.30659355527706
C           -1.21437659691760       -3.00168832026252       -0.61529416616926
O           -1.45875691953962       -1.65995735630607       -2.62258947250369
N           -0.37728426209946       -0.71388238469550       -0.73779116076178
C           -0.69181459340610        0.50180370307100       -0.40997001170739
C            0.48609578356168        1.43410844013345       -0.04819202383179
C            0.53409049745430        2.61201159923154       -1.02985870966276
C            0.31414593705085        1.94124545408551        1.38942561238261
N            1.69707582520867        0.62770214945832       -0.16352349196747
C            2.93455765948920        1.00820489961348        0.13959278466968
O            3.27990254040152        2.13181003407239        0.50724699241350
C            3.90319627628029       -0.11336458826304       -0.02066444844842
N            3.63264241351971       -1.31199300812058       -0.45064033691662
N            4.80253496585433       -2.01843523402482       -0.41600211436089
C            5.70821922184922       -1.20998757310117        0.03325805432483
C            7.14032311818325       -1.50344235774744        0.26690686203870
O            5.21185648417598        0.00981401848200        0.30118188711409
N           -1.87834738684585        1.10061461480905       -0.28881330738005
H           -6.49593921599057        1.06694785697265        1.36146620092719
H           -7.34916779881641       -0.04430609073356        0.25673531832963
H           -6.80906039792047        1.55623147042840       -0.32110658413854
H           -4.68353594346024       -1.62899099657688       -0.51186362858097
H           -1.96026665407004       -3.71725206021930       -0.96047004118636
H           -0.22441962668096       -3.35617006928087       -0.90299516563722
H           -1.26453963974307       -2.91544925564000        0.47048286875420
H            0.73724583637904        2.25422368908987       -2.03993809380830
H            1.30846533709834        3.32536348932355       -0.74768364429113
H           -0.43396381218871        3.11435508954196       -1.02140206525093
H           -0.67259059295256        2.39750563945383        1.47926917191164
H            1.07418202778816        2.67932662062915        1.64425406306308
H            0.38085687868381        1.10969031562333        2.09136949214158
H            1.49507578824314       -0.34379812316245       -0.44522877927232
H            7.35452964548260       -2.52830394889395       -0.02498089682721
H            7.38234847728200       -1.36910496720872        1.32078052387226
H            7.76410946263776       -0.82244748064277       -0.31083911610983

          :  Hamiltonian                  GFN1-xTB          :
         :: total energy             -83.586326903162 Eh    ::
         :: gradient norm              0.000179804613 Eh/a0 ::
         :: HOMO-LUMO gap              0.181874393008 eV    ::
         :: SCC energy               -84.315630140531 Eh    ::
         :: -> Gsolv                  -0.296653698600 Eh    ::
         :: repulsion energy           0.754722812182 Eh    ::

    * Orbital Energies and Occupations

         #    Occupation            Energy/Eh            Energy/eV
      -------------------------------------------------------------
         1        2.0000           -0.8420352             -22.9129
       ...           ...                  ...                  ...
        56        2.0000           -0.4375158             -11.9054
        57        2.0000           -0.4333006             -11.7907
        58        2.0000           -0.4243390             -11.5469
        59        2.0000           -0.4148310             -11.2881
        60        2.0000           -0.4111252             -11.1873
        61        2.0000           -0.4065217             -11.0620
        62        2.0000           -0.4036780             -10.9846
        63        2.0000           -0.3747629             -10.1978
        64        2.0000           -0.3616655              -9.8414
        65        2.0000           -0.3305820              -8.9956
        66        2.0000           -0.3059215              -8.3245
        67        2.0000           -0.3004904              -8.1768
        68        1.9424           -0.2881582              -7.8412 (HOMO)
        69        0.0576           -0.2814744              -7.6593 (LUMO)
        70                         -0.2389907              -6.5033
        71                         -0.2326768              -6.3315
        72                         -0.1686580              -4.5894
        73                         -0.1573271              -4.2811
        74                         -0.1359471              -3.6993
        75                         -0.1158780              -3.1532
        76                         -0.0971439              -2.6434
        77                         -0.0903863              -2.4595
        78                         -0.0886915              -2.4134
        79                         -0.0683346              -1.8595
       ...                                ...                  ...
       134                          0.7299209              19.8622
      -------------------------------------------------------------
                  HL-Gap            0.0066838 Eh            0.1819 eV

Wiberg/Mayer (AO) data.
largest (>0.10) Wiberg bond orders for each atom

     #   Z sym  total        # sym  WBO       # sym  WBO       # sym  WBO
 ---------------------------------------------------------------------------
     1   6 C    3.899 --    27 H    0.987    28 H    0.981    26 H    0.981
                             2 O    0.923
     2   8 O    2.144 --     3 C    0.996     1 C    0.923     4 O    0.101
     3   6 C    3.824 --     4 O    1.588     5 C    1.106     2 O    0.996
     4   8 O    1.861 --     3 C    1.588     2 O    0.101
     5   6 C    3.950 --     6 C    1.516    25 N    1.107     3 C    1.106
     6   6 C    3.833 --     5 C    1.516     7 O    1.040     8 C    0.893
     7   8 O    2.032 --     6 C    1.040    29 H    0.834
     8   6 C    3.940 --    10 O    1.178     9 C    0.924     6 C    0.893
                            11 N    0.879
     9   6 C    3.980 --    32 H    0.991    31 H    0.989    30 H    0.989
                             8 C    0.924
    10   8 O    1.454 --     8 C    1.178
    11   7 N    2.947 --    12 C    1.557     8 C    0.879    25 N    0.176
    12   6 C    3.962 --    11 N    1.557    25 N    1.346    13 C    0.940
    13   6 C    3.911 --    15 C    0.988    14 C    0.987    12 C    0.940
                            16 N    0.917
    14   6 C    3.996 --    33 H    0.987    13 C    0.987    34 H    0.986
                            35 H    0.985
    15   6 C    3.995 --    13 C    0.988    38 H    0.987    37 H    0.985
                            36 H    0.983
    16   7 N    3.394 --    17 C    1.321    13 C    0.917    39 H    0.857
                            18 O    0.188
    17   6 C    3.913 --    18 O    1.523    16 N    1.321    19 C    0.988
    18   8 O    1.835 --    17 C    1.523    16 N    0.188
    19   6 C    3.833 --    20 N    1.598    24 O    1.046    17 C    0.988
    20   7 N    2.971 --    19 C    1.598    21 N    1.184
    21   7 N    2.980 --    22 C    1.623    20 N    1.184
    22   6 C    3.869 --    21 N    1.623    24 O    1.075    23 C    1.028
    23   6 C    3.990 --    22 C    1.028    40 H    0.984    42 H    0.967
                            41 H    0.966
    24   8 O    2.299 --    22 C    1.075    19 C    1.046
    25   7 N    2.840 --    12 C    1.346     5 C    1.107    11 N    0.176
    26   1 H    1.016 --     1 C    0.981
    27   1 H    1.015 --     1 C    0.987
    28   1 H    1.016 --     1 C    0.981
    29   1 H    0.892 --     7 O    0.834
    30   1 H    1.024 --     9 C    0.989
    31   1 H    1.026 --     9 C    0.989
    32   1 H    1.020 --     9 C    0.991
    33   1 H    1.009 --    14 C    0.987
    34   1 H    1.013 --    14 C    0.986
    35   1 H    1.024 --    14 C    0.985
    36   1 H    1.029 --    15 C    0.983
    37   1 H    1.015 --    15 C    0.985
    38   1 H    1.009 --    15 C    0.987
    39   1 H    1.002 --    16 N    0.857
    40   1 H    1.001 --    23 C    0.984
    41   1 H    0.999 --    23 C    0.966
    42   1 H    0.999 --    23 C    0.967
 ---------------------------------------------------------------------------

           -------------------------------------------------
          | TOTAL ENERGY              -83.586326903162 Eh   |
          | GRADIENT NORM               0.000179804613 Eh/α |
          | HOMO-LUMO GAP               0.181874393008 eV   |
           -------------------------------------------------

 * finished run on 2023/06/20 at 17:57:56.894
