   * xtb version 6.5.1 (579679a) compiled by 'ehlert@majestix' on 2022-07-11
          program call               : /lustre/hpc/kemi/ree/PhD/git/ReactivityQM/dep/xtb-6.5.1/bin/xtb --gfn 1 /lustre/hpc/kemi/ree/PhD/git/ReactivityQM/calculations/R02methylcation/reac01prodN13/conf06/R02methylcation_reac01prodN13_conf06_gfn1.xyz --opt --vfukui --chrg 0 --uhf 0 --alpb DMSO

   ID    Z sym.   atoms
    1    6 C      1, 3, 5, 7-10, 12, 14, 17-19, 22, 24
    2    8 O      2, 4, 13, 20, 23, 25
    3    7 N      6, 11, 15, 16, 21
    4    1 H      26-42

      * Solvation model:               ALPB
        Solvent                        DMSO
        Solvent mass                       7.8130E+01 g/mol
          :  Hamiltonian                  GFN1-xTB          :
 * total energy  :   -82.9217903 Eh     change       -0.4547616E-08 Eh
 * total energy  :   -82.9329277 Eh     change       -0.1113745E-01 Eh
 * total energy  :   -82.9371367 Eh     change       -0.4208944E-02 Eh
 * total energy  :   -82.9376085 Eh     change       -0.4718474E-03 Eh
 * total energy  :   -82.9378287 Eh     change       -0.2201925E-03 Eh
 * total energy  :   -82.9379326 Eh     change       -0.1038568E-03 Eh
 * total energy  :   -82.9380457 Eh     change       -0.1131688E-03 Eh
 * total energy  :   -82.9381372 Eh     change       -0.9145514E-04 Eh
 * total energy  :   -82.9382010 Eh     change       -0.6381117E-04 Eh
 * total energy  :   -82.9382366 Eh     change       -0.3555005E-04 Eh
 * total energy  :   -82.9382632 Eh     change       -0.2660920E-04 Eh
 * total energy  :   -82.9382840 Eh     change       -0.2082444E-04 Eh
 * total energy  :   -82.9383132 Eh     change       -0.2920500E-04 Eh
 * total energy  :   -82.9383390 Eh     change       -0.2582242E-04 Eh
 * total energy  :   -82.9383718 Eh     change       -0.3277515E-04 Eh
 * total energy  :   -82.9384064 Eh     change       -0.3464765E-04 Eh
 * total energy  :   -82.9384189 Eh     change       -0.1243296E-04 Eh
 * total energy  :   -82.9384280 Eh     change       -0.9088603E-05 Eh
 * total energy  :   -82.9384322 Eh     change       -0.4264952E-05 Eh
   *** GEOMETRY OPTIMIZATION CONVERGED AFTER 19 ITERATIONS ***

 final structure:
================
42
 xtb: 6.5.1 (579679a)
C           -7.16683653242044        0.65423679778564        1.12223444845145
O           -5.98219523852553        0.88425976709679        0.35856424720180
C           -4.94239349426823        0.09397143218422        0.62981751014807
O           -4.98481651416440       -0.77972806835921        1.47250714038415
C           -3.73463998015019        0.37925390723629       -0.18612980780863
N           -2.69869904049744       -0.44185103460635        0.09385479780702
C           -1.55894633038283       -0.31701872212696       -0.51744170607837
C           -0.44142365924357       -1.28877613961724       -0.22316259828136
C           -0.71036866877021       -2.02757532945249        1.09096198464006
C           -0.34399757789527       -2.27031799050034       -1.40280590823827
N            0.80234630590410       -0.51547423116315       -0.10947721259445
C            2.01260728445071       -1.08986628931104        0.07110418022819
O            2.24907109012366       -2.28218504002446        0.07866272481178
C            3.06398795656645       -0.05504303925848        0.26891388947837
N            2.83293868547243        1.27043921351442        0.28377636607477
N            3.94146218263994        1.87555414011267        0.50621690021240
C            4.98948240397066        0.89861161374036        0.65501632674709
C            6.04498524660071        1.07345960446059       -0.43996439540801
C            5.59148839763793        0.97145707752639        2.06098357192587
O            4.31840682498743       -0.35064720134544        0.48288103481710
N           -1.35107907241737        0.63116164694462       -1.47057087273028
C           -2.31176492946826        1.54490648750022       -1.87410870727644
O           -2.04998395549435        2.36586472470890       -2.73069001625030
C           -3.65209917815434        1.42151957709021       -1.17585010161787
O           -4.55953257275630        2.19155229270914       -1.48291902780368
H           -7.89975777266501        1.38883890918083        0.79384874173446
H           -6.95842686359910        0.77770959388616        2.18798618528100
H           -7.53953868982881       -0.35757616724219        0.94470273556754
H           -1.65995560829479       -2.55520316411040        1.01673984670169
H           -0.76389034277256       -1.31633075519006        1.91327420864070
H            0.08564432936175       -2.74331628164149        1.28408577255116
H           -1.30965316471859       -2.75211319393692       -1.54787395419014
H            0.40494102099302       -3.03204563731121       -1.19858102913732
H           -0.07182623612192       -1.73529724053824       -2.31006428078616
H            0.73708894835146        0.48553073984003       -0.00387581851112
H            6.78594624832217        0.28280217909562       -0.35085785781156
H            6.52312492850805        2.04245541685545       -0.32175585643172
H            5.56712282387872        1.01722622116680       -1.41530638417503
H            6.32952599141716        0.18104827705316        2.17490828386135
H            6.06524001914930        1.94045965770620        2.19517759861644
H            4.80247321563511        0.84352053197894        2.79884268276834
H           -0.45605848135882        0.69452571636160       -1.92900464351305

          :  Hamiltonian                  GFN1-xTB          :
         :: total energy             -82.938432232602 Eh    ::
         :: gradient norm              0.000648255586 Eh/a0 ::
         :: HOMO-LUMO gap              0.045912874367 eV    ::
         :: SCC energy               -83.705281200412 Eh    ::
         :: -> Gsolv                  -0.068851659664 Eh    ::
         :: repulsion energy           0.792173569179 Eh    ::

    * Orbital Energies and Occupations

         #    Occupation            Energy/Eh            Energy/eV
      -------------------------------------------------------------
         1        2.0000           -0.8824666             -24.0131
       ...           ...                  ...                  ...
        55        2.0000           -0.5145579             -14.0018
        56        2.0000           -0.5112059             -13.9106
        57        2.0000           -0.5083544             -13.8330
        58        2.0000           -0.5039189             -13.7123
        59        2.0000           -0.4914101             -13.3720
        60        2.0000           -0.4874712             -13.2648
        61        2.0000           -0.4832113             -13.1488
        62        2.0000           -0.4747541             -12.9187
        63        2.0000           -0.4696944             -12.7810
        64        2.0000           -0.4694257             -12.7737
        65        2.0000           -0.4609362             -12.5427
        66        2.0000           -0.4246893             -11.5564
        67        1.4170           -0.4082731             -11.1097 (HOMO)
        68        0.5830           -0.4065858             -11.0638 (LUMO)
        69                         -0.3252730              -8.8511
        70                         -0.3108738              -8.4593
        71                         -0.2853664              -7.7652
        72                         -0.2359453              -6.4204
        73                         -0.2243765              -6.1056
        74                         -0.1575278              -4.2865
        75                         -0.1440482              -3.9198
        76                         -0.1385037              -3.7689
        77                         -0.1347347              -3.6663
        78                         -0.1344223              -3.6578
       ...                                ...                  ...
       134                          0.7457206              20.2921
      -------------------------------------------------------------
                  HL-Gap            0.0016873 Eh            0.0459 eV

Wiberg/Mayer (AO) data.
largest (>0.10) Wiberg bond orders for each atom

     #   Z sym  total        # sym  WBO       # sym  WBO       # sym  WBO
 ---------------------------------------------------------------------------
     1   6 C    3.875 --    26 H    0.986    27 H    0.979    28 H    0.979
                             2 O    0.902
     2   8 O    2.193 --     3 C    1.108     1 C    0.902     4 O    0.131
     3   6 C    3.842 --     4 O    1.632     2 O    1.108     5 C    1.024
     4   8 O    1.877 --     3 C    1.632     2 O    0.131
     5   6 C    3.712 --     6 N    1.290    24 C    1.167     3 C    1.024
     6   7 N    2.988 --     7 C    1.486     5 C    1.290
     7   6 C    3.791 --     6 N    1.486    21 N    1.183     8 C    0.987
     8   6 C    3.923 --     7 C    0.987     9 C    0.986    10 C    0.968
                            11 N    0.917
     9   6 C    3.982 --     8 C    0.986    30 H    0.985    31 H    0.982
                            29 H    0.982
    10   6 C    3.973 --    34 H    0.984    32 H    0.984    33 H    0.976
                             8 C    0.968
    11   7 N    3.321 --    12 C    1.243     8 C    0.917    35 H    0.890
                            13 O    0.188
    12   6 C    3.910 --    13 O    1.599    11 N    1.243    14 C    0.985
    13   8 O    1.909 --    12 C    1.599    11 N    0.188
    14   6 C    3.636 --    15 N    1.305    20 O    1.200    12 C    0.985
    15   7 N    3.013 --    16 N    1.541    14 C    1.305
    16   7 N    2.689 --    15 N    1.541    17 C    1.023
    17   6 C    3.836 --    16 N    1.023    18 C    0.937    19 C    0.937
                            20 O    0.877
    18   6 C    3.936 --    38 H    0.982    37 H    0.982    36 H    0.980
                            17 C    0.937
    19   6 C    3.936 --    41 H    0.982    40 H    0.982    39 H    0.980
                            17 C    0.937
    20   8 O    2.218 --    14 C    1.200    17 C    0.877
    21   7 N    3.420 --     7 C    1.183    22 C    1.106    42 H    0.883
                            23 O    0.113
    22   6 C    3.839 --    23 O    1.653    21 N    1.106    24 C    0.949
    23   8 O    1.875 --    22 C    1.653    21 N    0.113
    24   6 C    3.867 --    25 O    1.612     5 C    1.167    22 C    0.949
    25   8 O    1.792 --    24 C    1.612
    26   1 H    1.011 --     1 C    0.986
    27   1 H    1.007 --     1 C    0.979
    28   1 H    1.007 --     1 C    0.979
    29   1 H    1.009 --     9 C    0.982
    30   1 H    1.003 --     9 C    0.985
    31   1 H    1.005 --     9 C    0.982
    32   1 H    0.999 --    10 C    0.984
    33   1 H    1.007 --    10 C    0.976
    34   1 H    1.000 --    10 C    0.984
    35   1 H    0.946 --    11 N    0.890
    36   1 H    0.996 --    18 C    0.980
    37   1 H    0.997 --    18 C    0.982
    38   1 H    0.996 --    18 C    0.982
    39   1 H    0.996 --    19 C    0.980
    40   1 H    0.997 --    19 C    0.982
    41   1 H    0.996 --    19 C    0.982
    42   1 H    0.928 --    21 N    0.883
 ---------------------------------------------------------------------------

           -------------------------------------------------
          | TOTAL ENERGY              -82.938432232602 Eh   |
          | GRADIENT NORM               0.000648255586 Eh/α |
          | HOMO-LUMO GAP               0.045912874367 eV   |
           -------------------------------------------------

 * finished run on 2023/06/21 at 17:46:56.374
