   * xtb version 6.5.1 (579679a) compiled by 'ehlert@majestix' on 2022-07-11
          program call               : /lustre/hpc/kemi/ree/PhD/git/ReactivityQM/dep/xtb-6.5.1/bin/xtb --gfn 1 /lustre/hpc/kemi/ree/PhD/git/ReactivityQM/calculations/R02oxygendeprot/reac01prodN17/conf18/R02oxygendeprot_reac01prodN17_conf18_gfn1.xyz --opt --vfukui --chrg 0 --uhf 0 --alpb DMSO

   ID    Z sym.   atoms
    1    6 C      1, 3, 5, 7-10, 12, 13, 15, 18, 19, 22, 24
    2    8 O      2, 4, 14, 20, 23, 25
    3    7 N      6, 11, 16, 17, 21
    4    1 H      26-42

      * Solvation model:               ALPB
        Solvent                        DMSO
        Solvent mass                       7.8130E+01 g/mol
          :  Hamiltonian                  GFN1-xTB          :
 * total energy  :   -82.9325225 Eh     change       -0.7442225E-09 Eh
 * total energy  :   -82.9467488 Eh     change       -0.1422623E-01 Eh
 * total energy  :   -82.9524728 Eh     change       -0.5724045E-02 Eh
 * total energy  :   -82.9536361 Eh     change       -0.1163308E-02 Eh
 * total energy  :   -82.9542952 Eh     change       -0.6590489E-03 Eh
 * total energy  :   -82.9546644 Eh     change       -0.3692045E-03 Eh
 * total energy  :   -82.9549569 Eh     change       -0.2925026E-03 Eh
 * total energy  :   -82.9552321 Eh     change       -0.2752803E-03 Eh
 * total energy  :   -82.9555204 Eh     change       -0.2882654E-03 Eh
 * total energy  :   -82.9558346 Eh     change       -0.3141513E-03 Eh
 * total energy  :   -82.9588733 Eh     change       -0.1625673E-04 Eh
 * total energy  :   -82.9588874 Eh     change       -0.1413057E-04 Eh
 * total energy  :   -82.9589001 Eh     change       -0.1275232E-04 Eh
 * total energy  :   -82.9589188 Eh     change       -0.1860927E-04 Eh
 * total energy  :   -82.9589462 Eh     change       -0.2741599E-04 Eh
 * total energy  :   -82.9589756 Eh     change       -0.2944588E-04 Eh
 * total energy  :   -82.9589947 Eh     change       -0.1907411E-04 Eh
 * total energy  :   -82.9590032 Eh     change       -0.8464093E-05 Eh
 * total energy  :   -82.9590080 Eh     change       -0.4865010E-05 Eh
   *** GEOMETRY OPTIMIZATION CONVERGED AFTER 33 ITERATIONS ***

 final structure:
================
42
 xtb: 6.5.1 (579679a)
C            3.93781927686280        2.23959191137329       -2.92681373617229
O            3.87403961144905        1.22425001151342       -1.93066928371174
C            2.67980526922463        1.06319770919380       -1.32637096019284
O            1.71393898430935        1.75440323188612       -1.62485253261887
C            2.64290491720014        0.01767008222366       -0.31042735463312
N            1.38684224414211       -0.12343283371547        0.23985042584951
C            1.15927033110124       -0.97937180530646        1.17013333284703
C           -0.27440263839405       -1.09889649894770        1.64513459458441
C           -0.44032128137616       -1.43968892260718        3.11824699960503
C           -1.00522201600402       -2.11145483423657        0.75799543043803
N           -0.82788517862846        0.28542346482258        1.32877707715141
C           -0.45600651565699        1.33138394487948        2.31157511273154
C           -2.30418152984177        0.30635382556653        1.13313876214267
O           -3.03453320430063        0.21568355492029        2.07348161523144
C           -2.62584222884879        0.47257975312772       -0.26387080319263
N           -1.75872987044381        0.56164801614326       -1.24101975482899
N           -2.45907666649696        0.70503230653794       -2.37417844133030
C           -3.72624528608813        0.69881723544322       -2.04233608408709
C           -4.88978003984979        0.82840749521697       -2.93876890920611
O           -3.88781575125696        0.55419603441482       -0.72695340123232
N            2.13112608554450       -1.80947399796502        1.65962662048673
C            3.43548496541501       -1.78422907547767        1.20451079953540
O            4.25734693087957       -2.54655097012780        1.69190405390879
C            3.74017881718301       -0.78271614649363        0.10567954944863
O            4.89503023722412       -0.72852068874777       -0.33977951362728
H            4.95092779945477        2.22901176672950       -3.32722339315706
H            3.71841330620130        3.21877646129273       -2.49069669158164
H            3.21806814724438        2.03868023522622       -3.72614996004726
H           -0.20287733477156       -2.49180982554878        3.26535138677517
H            0.22128968884099       -0.84330171555326        3.74272309378703
H           -1.47208514607175       -1.27574075233447        3.42487922266214
H           -0.51487410985420       -3.07818690827660        0.85831088418939
H           -2.04568113523427       -2.21420919175701        1.06001594051596
H           -0.95891430674819       -1.79999277465527       -0.28472534652942
H           -0.32203246350693        0.51562946407047        0.43112908519757
H           -0.71887787812238        2.29563236524811        1.88231685465566
H           -1.00698083722022        1.16943935121872        3.23295113752368
H            0.61625627682944        1.26919856964539        2.47801584363607
H           -4.55401868114935        0.91943411320690       -3.96877267605842
H           -5.53366249503932       -0.04497764685818       -2.83510503015893
H           -5.47334660966121        1.70652457406903       -2.66178888950327
H            1.91465031548728       -2.46840888936736        2.38788393896171

          :  Hamiltonian                  GFN1-xTB          :
         :: total energy             -82.959008021261 Eh    ::
         :: gradient norm              0.000566610407 Eh/a0 ::
         :: HOMO-LUMO gap              0.269513320681 eV    ::
         :: SCC energy               -83.731758211157 Eh    ::
         :: -> Gsolv                  -0.088679699737 Eh    ::
         :: repulsion energy           0.801011881608 Eh    ::

    * Orbital Energies and Occupations

         #    Occupation            Energy/Eh            Energy/eV
      -------------------------------------------------------------
         1        2.0000           -0.8956827             -24.3728
       ...           ...                  ...                  ...
        55        2.0000           -0.5144133             -13.9979
        56        2.0000           -0.5109258             -13.9030
        57        2.0000           -0.5049708             -13.7410
        58        2.0000           -0.4975650             -13.5394
        59        2.0000           -0.4862376             -13.2312
        60        2.0000           -0.4832528             -13.1500
        61        2.0000           -0.4760957             -12.9552
        62        2.0000           -0.4756818             -12.9440
        63        2.0000           -0.4625023             -12.5853
        64        2.0000           -0.4520713             -12.3015
        65        2.0000           -0.4439088             -12.0794
        66        2.0000           -0.3978118             -10.8250
        67        1.9892           -0.3847347             -10.4692 (HOMO)
        68        0.0108           -0.3748303             -10.1997 (LUMO)
        69                         -0.2866951              -7.8014
        70                         -0.2850551              -7.7567
        71                         -0.2662169              -7.2441
        72                         -0.2500533              -6.8043
        73                         -0.2131048              -5.7989
        74                         -0.1631817              -4.4404
        75                         -0.1539460              -4.1891
        76                         -0.1490926              -4.0570
        77                         -0.1369741              -3.7273
        78                         -0.1279157              -3.4808
       ...                                ...                  ...
       134                          0.7522197              20.4689
      -------------------------------------------------------------
                  HL-Gap            0.0099044 Eh            0.2695 eV

Wiberg/Mayer (AO) data.
largest (>0.10) Wiberg bond orders for each atom

     #   Z sym  total        # sym  WBO       # sym  WBO       # sym  WBO
 ---------------------------------------------------------------------------
     1   6 C    3.891 --    26 H    0.987    28 H    0.981    27 H    0.980
                             2 O    0.917
     2   8 O    2.173 --     3 C    1.069     1 C    0.917     4 O    0.114
     3   6 C    3.853 --     4 O    1.581     5 C    1.097     2 O    1.069
     4   8 O    1.856 --     3 C    1.581     2 O    0.114
     5   6 C    3.899 --    24 C    1.257     6 N    1.158     3 C    1.097
                            25 O    0.123
     6   7 N    3.100 --     7 C    1.591     5 C    1.158
     7   6 C    3.935 --     6 N    1.591    21 N    1.124     8 C    0.975
     8   6 C    3.889 --     9 C    1.005    10 C    0.988     7 C    0.975
                            11 N    0.844
     9   6 C    3.985 --     8 C    1.005    30 H    0.982    31 H    0.977
                            29 H    0.975
    10   6 C    3.985 --     8 C    0.988    34 H    0.982    33 H    0.979
                            32 H    0.978
    11   7 N    3.594 --    12 C    0.905    13 C    0.880     8 C    0.844
                            35 H    0.819
    12   6 C    3.894 --    36 H    0.982    37 H    0.982    38 H    0.980
                            11 N    0.905
    13   6 C    3.874 --    14 O    1.768    15 C    1.080    11 N    0.880
    14   8 O    2.035 --    13 C    1.768
    15   6 C    3.886 --    16 N    1.521    13 C    1.080    20 O    1.054
    16   7 N    3.037 --    15 C    1.521    17 N    1.275
    17   7 N    2.989 --    18 C    1.526    16 N    1.275
    18   6 C    3.851 --    17 N    1.526    20 O    1.109    19 C    1.040
    19   6 C    3.979 --    18 C    1.040    39 H    0.980    40 H    0.955
                            41 H    0.954
    20   8 O    2.347 --    18 C    1.109    15 C    1.054
    21   7 N    3.424 --    22 C    1.131     7 C    1.124    42 H    0.890
                            23 O    0.131
    22   6 C    3.870 --    23 O    1.611    21 N    1.131    24 C    0.959
    23   8 O    1.886 --    22 C    1.611    21 N    0.131
    24   6 C    3.938 --    25 O    1.545     5 C    1.257    22 C    0.959
    25   8 O    1.841 --    24 C    1.545     5 C    0.123
    26   1 H    1.014 --     1 C    0.987
    27   1 H    1.012 --     1 C    0.980
    28   1 H    1.012 --     1 C    0.981
    29   1 H    0.996 --     9 C    0.975
    30   1 H    0.997 --     9 C    0.982
    31   1 H    1.000 --     9 C    0.977
    32   1 H    0.997 --    10 C    0.978
    33   1 H    0.996 --    10 C    0.979
    34   1 H    1.005 --    10 C    0.982
    35   1 H    0.980 --    11 N    0.819
    36   1 H    0.991 --    12 C    0.982
    37   1 H    0.998 --    12 C    0.982
    38   1 H    0.998 --    12 C    0.980
    39   1 H    0.995 --    19 C    0.980
    40   1 H    0.992 --    19 C    0.955
    41   1 H    0.992 --    19 C    0.954
    42   1 H    0.935 --    21 N    0.890
 ---------------------------------------------------------------------------

           -------------------------------------------------
          | TOTAL ENERGY              -82.959008021261 Eh   |
          | GRADIENT NORM               0.000566610407 Eh/α |
          | HOMO-LUMO GAP               0.269513320681 eV   |
           -------------------------------------------------

 * finished run on 2023/06/21 at 17:37:52.494
