   * xtb version 6.5.1 (579679a) compiled by 'ehlert@majestix' on 2022-07-11
          program call               : /lustre/hpc/kemi/ree/PhD/git/ReactivityQM/dep/xtb-6.5.1/bin/xtb --gfn 1 /lustre/hpc/kemi/ree/PhD/git/ReactivityQM/calculations/R02deprot/reac01prodE11/conf07/R02deprot_reac01prodE11_conf07_gfn1.xyz --opt --vfukui --chrg -2 --uhf 0 --alpb DMSO

   ID    Z sym.   atoms
    1    6 C      1, 3, 5, 7-10, 12, 14, 17-19, 22, 24
    2    8 O      2, 4, 13, 20, 23, 25
    3    7 N      6, 11, 15, 16, 21
    4    1 H      26-42

      * Solvation model:               ALPB
        Solvent                        DMSO
        Solvent mass                       7.8130E+01 g/mol
          :  Hamiltonian                  GFN1-xTB          :
 * total energy  :   -83.6396472 Eh     change       -0.3879563E-11 Eh
 * total energy  :   -83.6504684 Eh     change       -0.1082123E-01 Eh
 * total energy  :   -83.6535529 Eh     change       -0.3084529E-02 Eh
 * total energy  :   -83.6540369 Eh     change       -0.4839756E-03 Eh
 * total energy  :   -83.6543702 Eh     change       -0.3332906E-03 Eh
 * total energy  :   -83.6545809 Eh     change       -0.2107378E-03 Eh
 * total energy  :   -83.6548536 Eh     change       -0.2726691E-03 Eh
 * total energy  :   -83.6551048 Eh     change       -0.2512402E-03 Eh
 * total energy  :   -83.6552815 Eh     change       -0.1766739E-03 Eh
 * total energy  :   -83.6554081 Eh     change       -0.1266066E-03 Eh
 * total energy  :   -83.6561870 Eh     change       -0.1747102E-04 Eh
 * total energy  :   -83.6562118 Eh     change       -0.2481907E-04 Eh
 * total energy  :   -83.6562308 Eh     change       -0.1898478E-04 Eh
 * total energy  :   -83.6562499 Eh     change       -0.1912127E-04 Eh
 * total energy  :   -83.6562817 Eh     change       -0.3182045E-04 Eh
 * total energy  :   -83.6562976 Eh     change       -0.1588453E-04 Eh
 * total energy  :   -83.6563005 Eh     change       -0.2825766E-05 Eh
 * total energy  :   -83.6563106 Eh     change       -0.1016802E-04 Eh
 * total energy  :   -83.6563150 Eh     change       -0.4387518E-05 Eh
   *** GEOMETRY OPTIMIZATION CONVERGED AFTER 33 ITERATIONS ***

 final structure:
================
42
 xtb: 6.5.1 (579679a)
C            3.64963166959856        2.80574768627667        0.02735736885175
O            3.08274100458058        1.50212101967600        0.08410425223508
C            3.88482644705292        0.53379573045351        0.57466652673133
O            5.01577711339651        0.77955840623169        0.95010677097836
C            3.24297049569018       -0.79622986511204        0.58103607512707
N            1.94283826297189       -0.86664808718835        0.15543875806021
C            1.37379172044719       -2.05137738799198        0.12333114854057
C           -0.06289302172011       -2.15172704287572       -0.38452543917434
C           -0.02987407847719       -2.90054358917135       -1.72858325519103
C           -0.89456365826040       -2.94411931992232        0.64113793234028
N           -0.58616800805128       -0.80718341980364       -0.57258242712562
C           -1.93228917692169       -0.56586812680361       -0.84363287260291
O           -2.67418595126535       -1.44368585212214       -1.33336870520358
C           -2.30430784406663        0.77256666477744       -0.55028032901325
N           -1.52072393180851        1.68111577953325        0.00762569563001
N           -2.15132864891689        2.80910052206971        0.18610449651974
C           -3.52347650766545        2.62444970445077       -0.31143749734109
C           -3.79927211869747        3.61523171165542       -1.45688144464339
C           -4.52590288824507        2.83546169106252        0.83777297028236
O           -3.59401124945438        1.28866509957736       -0.78729014690540
N            1.92591387170301       -3.22092744136031        0.46623297027615
C            3.19971155360376       -3.23145947450673        0.91171082333323
O            3.81794454086432       -4.25810667079306        1.26870892430753
C            3.89195586541148       -1.94119602059943        0.96627903342449
O            5.17266903150425       -1.99695374365784        1.40058783408773
H            3.88015264992628        3.16881891369344        1.03298523755001
H            2.91465538944192        3.45674082442714       -0.44328396418197
H            4.56972335718410        2.79805913991600       -0.56360448114349
H           -1.04026080063741       -3.06495133540150       -2.10062236093461
H            0.52806432524968       -2.31996205861359       -2.46382765244899
H            0.46164955685356       -3.86389007718575       -1.59323984365327
H           -1.90333748172196       -3.11603578524246        0.26848213255674
H           -0.41557174533139       -3.90595119953501        0.82341747551117
H           -0.95089944340153       -2.39649078376710        1.58196610652466
H           -0.12211909459605       -0.09675913843025       -0.01117774680298
H           -4.80663278047185        3.47528218525009       -1.84495317556730
H           -3.69233940523983        4.63473842447736       -1.09229466920792
H           -3.08220028945310        3.44797195053990       -2.25922542079160
H           -5.54483402844900        2.68913422434309        0.48363334176224
H           -4.31932293675231        2.12040383817267        1.63283208995795
H           -4.42319639077222        3.84415407607874        1.23213248304798
H            5.34469462489829       -2.94305017258412        1.59132798428094

          :  Hamiltonian                  GFN1-xTB          :
         :: total energy             -83.656315014735 Eh    ::
         :: gradient norm              0.000464977992 Eh/a0 ::
         :: HOMO-LUMO gap              0.915014628051 eV    ::
         :: SCC energy               -84.387157337271 Eh    ::
         :: -> Gsolv                  -0.256254442760 Eh    ::
         :: repulsion energy           0.756174429557 Eh    ::

    * Orbital Energies and Occupations

         #    Occupation            Energy/Eh            Energy/eV
      -------------------------------------------------------------
         1        2.0000           -0.8107331             -22.0612
       ...           ...                  ...                  ...
        56        2.0000           -0.4423194             -12.0361
        57        2.0000           -0.4401877             -11.9781
        58        2.0000           -0.4273450             -11.6286
        59        2.0000           -0.4252364             -11.5713
        60        2.0000           -0.4103735             -11.1668
        61        2.0000           -0.4066992             -11.0668
        62        2.0000           -0.3955642             -10.7639
        63        2.0000           -0.3886498             -10.5757
        64        2.0000           -0.3797487             -10.3335
        65        2.0000           -0.3643821              -9.9153
        66        2.0000           -0.3639709              -9.9042
        67        2.0000           -0.3621696              -9.8551
        68        2.0000           -0.3052676              -8.3068 (HOMO)
        69                         -0.2716414              -7.3917 (LUMO)
        70                         -0.2281764              -6.2090
        71                         -0.2185021              -5.9457
        72                         -0.1837650              -5.0005
        73                         -0.1271059              -3.4587
        74                         -0.1166965              -3.1755
        75                         -0.1007915              -2.7427
        76                         -0.0981907              -2.6719
        77                         -0.0946607              -2.5758
        78                         -0.0916005              -2.4926
        79                         -0.0888585              -2.4180
       ...                                ...                  ...
       134                          0.7502342              20.4149
      -------------------------------------------------------------
                  HL-Gap            0.0336262 Eh            0.9150 eV

Wiberg/Mayer (AO) data.
largest (>0.10) Wiberg bond orders for each atom

     #   Z sym  total        # sym  WBO       # sym  WBO       # sym  WBO
 ---------------------------------------------------------------------------
     1   6 C    3.892 --    27 H    0.987    26 H    0.980    28 H    0.980
                             2 O    0.917
     2   8 O    2.177 --     3 C    1.073     1 C    0.917     4 O    0.121
     3   6 C    3.835 --     4 O    1.629     2 O    1.073     5 C    1.035
     4   8 O    1.894 --     3 C    1.629     2 O    0.121
     5   6 C    3.964 --    24 C    1.473     6 N    1.201     3 C    1.035
     6   7 N    3.004 --     7 C    1.472     5 C    1.201
     7   6 C    3.953 --     6 N    1.472    21 N    1.346     8 C    0.974
     8   6 C    3.955 --     9 C    0.982    10 C    0.982     7 C    0.974
                            11 N    0.953
     9   6 C    3.995 --    30 H    0.987    31 H    0.987    29 H    0.982
                             8 C    0.982
    10   6 C    3.994 --    34 H    0.987    33 H    0.985    32 H    0.983
                             8 C    0.982
    11   7 N    3.212 --    12 C    1.101     8 C    0.953    35 H    0.908
                            13 O    0.109
    12   6 C    3.926 --    13 O    1.453    14 C    1.201    11 N    1.101
    13   8 O    1.792 --    12 C    1.453    11 N    0.109
    14   6 C    3.847 --    15 N    1.416    12 C    1.201    20 O    0.930
                            16 N    0.170
    15   7 N    3.046 --    16 N    1.438    14 C    1.416
    16   7 N    2.860 --    15 N    1.438    17 C    0.984    14 C    0.170
    17   6 C    3.902 --    16 N    0.984    18 C    0.977    19 C    0.976
                            20 O    0.930
    18   6 C    3.994 --    37 H    0.988    36 H    0.987    38 H    0.986
                            17 C    0.977
    19   6 C    3.995 --    41 H    0.988    39 H    0.987    40 H    0.986
                            17 C    0.976
    20   8 O    2.052 --    14 C    0.930    17 C    0.930
    21   7 N    2.984 --     7 C    1.346    22 C    1.267    23 O    0.127
    22   6 C    3.932 --    23 O    1.455    21 N    1.267    24 C    1.075
    23   8 O    1.794 --    22 C    1.455    21 N    0.127
    24   6 C    3.904 --     5 C    1.473    22 C    1.075    25 O    1.068
    25   8 O    2.046 --    24 C    1.068    42 H    0.818
    26   1 H    1.011 --     1 C    0.980
    27   1 H    1.014 --     1 C    0.987
    28   1 H    1.013 --     1 C    0.980
    29   1 H    1.024 --     9 C    0.982
    30   1 H    1.011 --     9 C    0.987
    31   1 H    1.016 --     9 C    0.987
    32   1 H    1.018 --    10 C    0.983
    33   1 H    1.022 --    10 C    0.985
    34   1 H    1.008 --    10 C    0.987
    35   1 H    1.003 --    11 N    0.908
    36   1 H    1.009 --    18 C    0.987
    37   1 H    1.011 --    18 C    0.988
    38   1 H    1.016 --    18 C    0.986
    39   1 H    1.009 --    19 C    0.987
    40   1 H    1.016 --    19 C    0.986
    41   1 H    1.011 --    19 C    0.988
    42   1 H    0.880 --    25 O    0.818
 ---------------------------------------------------------------------------

           -------------------------------------------------
          | TOTAL ENERGY              -83.656315014735 Eh   |
          | GRADIENT NORM               0.000464977992 Eh/α |
          | HOMO-LUMO GAP               0.915014628051 eV   |
           -------------------------------------------------

 * finished run on 2023/06/20 at 17:55:08.109
