   * xtb version 6.5.1 (579679a) compiled by 'ehlert@majestix' on 2022-07-11
          program call               : /lustre/hpc/kemi/ree/PhD/git/ReactivityQM/dep/xtb-6.5.1/bin/xtb --gfn 1 /lustre/hpc/kemi/ree/PhD/git/ReactivityQM/calculations/R02oxygendeprot/reac01prodN02/conf15/R02oxygendeprot_reac01prodN02_conf15_gfn1.xyz --opt --vfukui --chrg 0 --uhf 0 --alpb DMSO

   ID    Z sym.   atoms
    1    6 C      1, 3, 5, 7-10, 12, 14, 15, 18, 19, 22, 24
    2    8 O      2, 4, 13, 20, 23, 25
    3    7 N      6, 11, 16, 17, 21
    4    1 H      26-42

      * Solvation model:               ALPB
        Solvent                        DMSO
        Solvent mass                       7.8130E+01 g/mol
          :  Hamiltonian                  GFN1-xTB          :
 * total energy  :   -82.9416420 Eh     change       -0.3038281E-10 Eh
 * total energy  :   -82.9598890 Eh     change       -0.1824697E-01 Eh
 * total energy  :   -82.9677053 Eh     change       -0.7816295E-02 Eh
 * total energy  :   -82.9689505 Eh     change       -0.1245193E-02 Eh
 * total energy  :   -82.9697833 Eh     change       -0.8327688E-03 Eh
 * total energy  :   -82.9701006 Eh     change       -0.3173143E-03 Eh
 * total energy  :   -82.9703951 Eh     change       -0.2944666E-03 Eh
 * total energy  :   -82.9706261 Eh     change       -0.2310261E-03 Eh
 * total energy  :   -82.9707745 Eh     change       -0.1484138E-03 Eh
 * total energy  :   -82.9708960 Eh     change       -0.1214870E-03 Eh
 * total energy  :   -82.9714891 Eh     change       -0.1811548E-04 Eh
 * total energy  :   -82.9715085 Eh     change       -0.1933399E-04 Eh
 * total energy  :   -82.9715308 Eh     change       -0.2231650E-04 Eh
 * total energy  :   -82.9715433 Eh     change       -0.1247208E-04 Eh
 * total energy  :   -82.9715622 Eh     change       -0.1897154E-04 Eh
 * total energy  :   -82.9715731 Eh     change       -0.1086647E-04 Eh
 * total energy  :   -82.9715840 Eh     change       -0.1090669E-04 Eh
 * total energy  :   -82.9715891 Eh     change       -0.5059530E-05 Eh
 * total energy  :   -82.9715928 Eh     change       -0.3678762E-05 Eh
   *** GEOMETRY OPTIMIZATION CONVERGED AFTER 39 ITERATIONS ***

 final structure:
================
42
 xtb: 6.5.1 (579679a)
C            6.67315956353017        1.09546120149859       -1.23929170938744
O            5.47391545252911        1.39926694380949       -0.53737139825629
C            4.49388886831920        0.47094622992375       -0.61228288225546
O            4.65087896964531       -0.56067409927602       -1.25229676589384
C            3.27749194145634        0.80975721462670        0.11968707591181
N            2.30576158028703       -0.16350085505943        0.01299675296324
C            1.17569051017886       -0.02666034316268        0.59625685456545
C            0.13228028101928       -1.11862401358257        0.50631804475480
C            0.54117225189281       -2.13975979112627       -0.55614933853025
C           -0.05581587802882       -1.76901955568995        1.88271301478741
N           -1.13923398451165       -0.46667954552277        0.09707261712299
C           -2.30076330954065       -1.05140635332174       -0.04957176349869
O           -2.40134404212357       -2.33537120713551        0.14285069122136
C           -3.64006453998206       -3.04792129549256        0.00909406470713
C           -3.42096263945851       -0.22151466584191       -0.42190088945964
N           -4.66618575084838       -0.54546249797996       -0.64740114356981
N           -5.31739167373277        0.59123505985937       -0.95750261598154
C           -4.44308917338930        1.55973695325000       -0.90817613828483
C           -4.66883798849162        2.99522037838656       -1.16119000529994
O           -3.22800564076164        1.10604590265806       -0.57660318831287
N            0.87270877496450        1.07993248301207        1.36666305368677
C            1.74370480224688        2.12971770751787        1.55763857150617
O            1.40465772234856        3.07914676704069        2.25270184494334
C            3.08750604377269        2.00226966461855        0.86987935452382
O            3.90981879962757        2.92128415110771        1.00735135517442
H            7.34753729395084        1.93934980194509       -1.09832212314326
H            7.13081242144234        0.18363237139549       -0.84333518972068
H            6.47057542453648        0.95493061041462       -2.30541383271351
H           -0.16953318009325       -2.96028026312691       -0.59959682693232
H            0.59678707024200       -1.65745361061805       -1.53066839860115
H            1.52608005349584       -2.53002336650708       -0.30141287581452
H           -0.72013332463486       -2.62715474755548        1.82267115451561
H           -0.47214870317255       -1.04788124364483        2.58304111547233
H            0.91498489020411       -2.10115712948687        2.24900776730859
H           -1.11628975852993        0.52957291340106       -0.08452592346881
H           -3.40679821544495       -4.08386197268194        0.24750271179073
H           -4.01259711028727       -2.96137841980116       -1.01276002156823
H           -4.37848008015341       -2.64793500258099        0.70536111121368
H           -5.71087864104696        3.16274293622461       -1.42332842143852
H           -4.41582703224435        3.56946455853756       -0.26904278814315
H           -4.02326814095520        3.33479105930871       -1.97191632866551
H           -0.02176690826025        1.14921507066354        1.81780041277574

          :  Hamiltonian                  GFN1-xTB          :
         :: total energy             -82.971592752550 Eh    ::
         :: gradient norm              0.000572779371 Eh/a0 ::
         :: HOMO-LUMO gap              0.213734137292 eV    ::
         :: SCC energy               -83.747664234613 Eh    ::
         :: -> Gsolv                  -0.103975784432 Eh    ::
         :: repulsion energy           0.801430917302 Eh    ::

    * Orbital Energies and Occupations

         #    Occupation            Energy/Eh            Energy/eV
      -------------------------------------------------------------
         1        2.0000           -0.8979457             -24.4343
       ...           ...                  ...                  ...
        55        2.0000           -0.5076332             -13.8134
        56        2.0000           -0.5028801             -13.6841
        57        2.0000           -0.4982935             -13.5593
        58        2.0000           -0.4919614             -13.3870
        59        2.0000           -0.4835793             -13.1589
        60        2.0000           -0.4797908             -13.0558
        61        2.0000           -0.4699489             -12.7880
        62        2.0000           -0.4670678             -12.7096
        63        2.0000           -0.4520535             -12.3010
        64        2.0000           -0.4437672             -12.0755
        65        2.0000           -0.4299739             -11.7002
        66        2.0000           -0.3889395             -10.5836
        67        1.9685           -0.3768332             -10.2542 (HOMO)
        68        0.0315           -0.3689787             -10.0404 (LUMO)
        69                         -0.2843642              -7.7379
        70                         -0.2789727              -7.5912
        71                         -0.2545745              -6.9273
        72                         -0.2494069              -6.7867
        73                         -0.2056204              -5.5952
        74                         -0.1586222              -4.3163
        75                         -0.1521887              -4.1413
        76                         -0.1359576              -3.6996
        77                         -0.1340282              -3.6471
        78                         -0.1238497              -3.3701
       ...                                ...                  ...
       134                          0.7546217              20.5343
      -------------------------------------------------------------
                  HL-Gap            0.0078546 Eh            0.2137 eV

Wiberg/Mayer (AO) data.
largest (>0.10) Wiberg bond orders for each atom

     #   Z sym  total        # sym  WBO       # sym  WBO       # sym  WBO
 ---------------------------------------------------------------------------
     1   6 C    3.894 --    26 H    0.987    27 H    0.980    28 H    0.980
                             2 O    0.920
     2   8 O    2.168 --     3 C    1.060     1 C    0.920     4 O    0.113
     3   6 C    3.850 --     4 O    1.584     5 C    1.099     2 O    1.060
     4   8 O    1.855 --     3 C    1.584     2 O    0.113
     5   6 C    3.895 --    24 C    1.260     6 N    1.166     3 C    1.099
                            25 O    0.124
     6   7 N    3.035 --     7 C    1.628     5 C    1.166
     7   6 C    3.924 --     6 N    1.628    21 N    1.089     8 C    0.978
     8   6 C    3.893 --     9 C    0.989    10 C    0.979     7 C    0.978
                            11 N    0.874
     9   6 C    3.983 --     8 C    0.989    29 H    0.984    30 H    0.984
                            31 H    0.979
    10   6 C    3.982 --    33 H    0.983    34 H    0.982    32 H    0.981
                             8 C    0.979
    11   7 N    3.471 --    12 C    1.454    35 H    0.874     8 C    0.874
                            13 O    0.108
    12   6 C    3.880 --    11 N    1.454    13 O    1.188    15 C    1.090
    13   8 O    2.270 --    12 C    1.188    14 C    0.864    11 N    0.108
    14   6 C    3.831 --    36 H    0.980    37 H    0.974    38 H    0.974
                            13 O    0.864
    15   6 C    3.881 --    16 N    1.543    12 C    1.090    20 O    1.046
    16   7 N    3.014 --    15 C    1.543    17 N    1.248
    17   7 N    2.986 --    18 C    1.553    16 N    1.248
    18   6 C    3.847 --    17 N    1.553    20 O    1.086    19 C    1.039
    19   6 C    3.979 --    18 C    1.039    39 H    0.980    41 H    0.956
                            40 H    0.954
    20   8 O    2.328 --    18 C    1.086    15 C    1.046
    21   7 N    3.412 --    22 C    1.143     7 C    1.089    42 H    0.896
                            23 O    0.133
    22   6 C    3.871 --    23 O    1.599    21 N    1.143    24 C    0.962
    23   8 O    1.875 --    22 C    1.599    21 N    0.133
    24   6 C    3.937 --    25 O    1.537     5 C    1.260    22 C    0.962
    25   8 O    1.833 --    24 C    1.537     5 C    0.124
    26   1 H    1.015 --     1 C    0.987
    27   1 H    1.013 --     1 C    0.980
    28   1 H    1.013 --     1 C    0.980
    29   1 H    1.004 --     9 C    0.984
    30   1 H    1.005 --     9 C    0.984
    31   1 H    1.011 --     9 C    0.979
    32   1 H    1.003 --    10 C    0.981
    33   1 H    0.999 --    10 C    0.983
    34   1 H    1.000 --    10 C    0.982
    35   1 H    0.925 --    11 N    0.874
    36   1 H    1.003 --    14 C    0.980
    37   1 H    1.009 --    14 C    0.974
    38   1 H    1.008 --    14 C    0.974
    39   1 H    0.995 --    19 C    0.980
    40   1 H    0.992 --    19 C    0.954
    41   1 H    0.992 --    19 C    0.956
    42   1 H    0.940 --    21 N    0.896
 ---------------------------------------------------------------------------

           -------------------------------------------------
          | TOTAL ENERGY              -82.971592752550 Eh   |
          | GRADIENT NORM               0.000572779371 Eh/α |
          | HOMO-LUMO GAP               0.213734137292 eV   |
           -------------------------------------------------

 * finished run on 2023/06/21 at 17:18:13.712
