   * xtb version 6.5.1 (579679a) compiled by 'ehlert@majestix' on 2022-07-11
          program call               : /lustre/hpc/kemi/ree/PhD/git/ReactivityQM/dep/xtb-6.5.1/bin/xtb --gfn 1 /lustre/hpc/kemi/ree/PhD/git/ReactivityQM/calculations/R02methylcation/reac01prodE05/conf13/R02methylcation_reac01prodE05_conf13_gfn1.xyz --opt --vfukui --chrg -2 --uhf 0 --alpb DMSO

   ID    Z sym.   atoms
    1    6 C      1, 3, 5, 6, 8, 11-14, 16, 18, 21, 22, 25
    2    8 O      2, 4, 7, 9, 17, 23
    3    7 N      10, 15, 19, 20, 24
    4    1 H      26-42

      * Solvation model:               ALPB
        Solvent                        DMSO
        Solvent mass                       7.8130E+01 g/mol
          :  Hamiltonian                  GFN1-xTB          :
 * total energy  :   -83.5565482 Eh     change       -0.6025402E-10 Eh
 * total energy  :   -83.5677136 Eh     change       -0.1116541E-01 Eh
 * total energy  :   -83.5723464 Eh     change       -0.4632769E-02 Eh
 * total energy  :   -83.5735053 Eh     change       -0.1158981E-02 Eh
 * total energy  :   -83.5745622 Eh     change       -0.1056858E-02 Eh
 * total energy  :   -83.5751225 Eh     change       -0.5603404E-03 Eh
 * total energy  :   -83.5755252 Eh     change       -0.4026474E-03 Eh
 * total energy  :   -83.5757814 Eh     change       -0.2561636E-03 Eh
 * total energy  :   -83.5759533 Eh     change       -0.1719267E-03 Eh
 * total energy  :   -83.5760901 Eh     change       -0.1368029E-03 Eh
 * total energy  :   -83.5874927 Eh     change       -0.3337948E-04 Eh
 * total energy  :   -83.5875153 Eh     change       -0.2251031E-04 Eh
 * total energy  :   -83.5875293 Eh     change       -0.1400027E-04 Eh
 * total energy  :   -83.5875410 Eh     change       -0.1169841E-04 Eh
 * total energy  :   -83.5875536 Eh     change       -0.1266772E-04 Eh
 * total energy  :   -83.5875634 Eh     change       -0.9735164E-05 Eh
 * total energy  :   -83.5875709 Eh     change       -0.7576558E-05 Eh
 * total energy  :   -83.5875763 Eh     change       -0.5373217E-05 Eh
 * total energy  :   -83.5875783 Eh     change       -0.1947785E-05 Eh
   *** GEOMETRY OPTIMIZATION CONVERGED AFTER 122 ITERATIONS ***

 final structure:
================
42
 xtb: 6.5.1 (579679a)
C            0.66454185873207        3.32458215952195        0.55825478053791
O            0.92258914441408        1.97470824665109        0.23467900373890
C            2.04728513298591        1.41602381284074        0.85113770177352
O            2.70338383703933        2.11721148597378        1.62642380342376
C            2.26643002269339        0.06860556751848        0.45972127880914
C            3.29297755354053       -0.75327158262142        0.97649032499833
O            4.14275970605221       -0.42802517692313        1.83992748834812
C            3.28565992175220       -2.18909277552941        0.46507306634520
O            4.29636535758131       -2.92405970730474        0.46368871885434
N            2.08497608550544       -2.66329457455787        0.07411353119659
C            0.96584871474230       -1.85023056669463       -0.34096448182516
C           -0.22250485004891       -1.96044422044525        0.63850749951515
C            0.16116791257502       -1.89595004548006        2.13549337369468
C           -0.95706421439749       -3.28333263770317        0.35510520898276
N           -1.10656238963143       -0.83412471281528        0.31796947866827
C           -2.30133543609154       -0.59510807765556        0.86905580914312
O           -2.85960200956869       -1.30363644151291        1.71736852736763
C           -2.95969218754638        0.62980561513332        0.36690365008906
N           -4.11475947640811        1.11214738056466        0.75255654350541
N           -4.33266782859841        2.24531452963713        0.01856253994639
C           -3.31093924548288        2.38752386442620       -0.76418253250556
C           -3.08386848998498        3.46580103742108       -1.75378889565393
O           -2.40206529247965        1.40816790154539       -0.60003075803125
N            1.36423121553929       -0.46935085888501       -0.54919807239638
C            1.90537986759787       -0.28546382361096       -1.90680033521781
H            1.49626888181195        3.97272510819509        0.25617087041014
H            0.49640512640958        3.45563722067043        1.63497931800598
H           -0.23489528440061        3.62085846136454        0.01626883742349
H            2.07867508979743       -3.62373560115771       -0.23351958145548
H           -0.71651718754222       -2.03249146946169        2.76765166201016
H            0.87534909770039       -2.68954111549249        2.35511778627242
H            0.61815493302820       -0.93239313956255        2.36522137738383
H           -0.27980908816998       -4.11631327706380        0.54071765172591
H           -1.26036576978118       -3.31032365308933       -0.69127328211380
H           -1.83817484123100       -3.40311889825644        0.98565186068151
H           -0.71095658354035       -0.15474853344749       -0.32987235841248
H           -3.92741786877525        4.15112031172002       -1.74185372062942
H           -2.17134447727739        4.01233547815802       -1.51470426612423
H           -2.97340876928660        3.04435633568093       -2.75250102878351
H            1.19438962360292       -0.70925852672497       -2.61797297209079
H            2.87873505129456       -0.78108975340452       -2.03988492255059
H            2.02238015581948        0.78147665239686       -2.11053148507509

          :  Hamiltonian                  GFN1-xTB          :
         :: total energy             -83.587578257299 Eh    ::
         :: gradient norm              0.000233515262 Eh/a0 ::
         :: HOMO-LUMO gap              0.121613582642 eV    ::
         :: SCC energy               -84.306321399004 Eh    ::
         :: -> Gsolv                  -0.272622615307 Eh    ::
         :: repulsion energy           0.747985758152 Eh    ::

    * Orbital Energies and Occupations

         #    Occupation            Energy/Eh            Energy/eV
      -------------------------------------------------------------
         1        2.0000           -0.8326904             -22.6587
       ...           ...                  ...                  ...
        56        2.0000           -0.4365835             -11.8800
        57        2.0000           -0.4328982             -11.7798
        58        2.0000           -0.4279572             -11.6453
        59        2.0000           -0.4271473             -11.6233
        60        2.0000           -0.4135517             -11.2533
        61        2.0000           -0.4113875             -11.1944
        62        2.0000           -0.4023327             -10.9480
        63        2.0000           -0.4001566             -10.8888
        64        2.0000           -0.3799388             -10.3387
        65        2.0000           -0.3548259              -9.6553
        66        2.0000           -0.3361255              -9.1464
        67        2.0000           -0.3191577              -8.6847
        68        1.8262           -0.2804333              -7.6310 (HOMO)
        69        0.1738           -0.2759640              -7.5094 (LUMO)
        70                         -0.2316793              -6.3043
        71                         -0.2247016              -6.1144
        72                         -0.1608036              -4.3757
        73                         -0.1596984              -4.3456
        74                         -0.1370385              -3.7290
        75                         -0.1080319              -2.9397
        76                         -0.0981965              -2.6721
        77                         -0.0918800              -2.5002
        78                         -0.0839692              -2.2849
        79                         -0.0769611              -2.0942
       ...                                ...                  ...
       134                          0.7712693              20.9873
      -------------------------------------------------------------
                  HL-Gap            0.0044692 Eh            0.1216 eV

Wiberg/Mayer (AO) data.
largest (>0.10) Wiberg bond orders for each atom

     #   Z sym  total        # sym  WBO       # sym  WBO       # sym  WBO
 ---------------------------------------------------------------------------
     1   6 C    3.917 --    28 H    0.984    26 H    0.980    27 H    0.980
                             2 O    0.947
     2   8 O    2.102 --     3 C    0.957     1 C    0.947
     3   6 C    3.852 --     4 O    1.518     5 C    1.246     2 O    0.957
     4   8 O    1.818 --     3 C    1.518
     5   6 C    3.890 --     6 C    1.308     3 C    1.246    24 N    0.967
                             7 O    0.127
     6   6 C    3.932 --     7 O    1.486     5 C    1.308     8 C    0.949
     7   8 O    1.782 --     6 C    1.486     5 C    0.127
     8   6 C    3.883 --     9 O    1.478    10 N    1.272     6 C    0.949
     9   8 O    1.754 --     8 C    1.478    10 N    0.155
    10   7 N    3.375 --     8 C    1.272    11 C    0.941    29 H    0.918
                             9 O    0.155
    11   6 C    3.196 --    24 N    0.967    12 C    0.956    10 N    0.941
    12   6 C    3.899 --    14 C    0.988    13 C    0.975    11 C    0.956
                            15 N    0.912
    13   6 C    3.986 --    31 H    0.986    30 H    0.985    32 H    0.984
                            12 C    0.975
    14   6 C    3.992 --    12 C    0.988    34 H    0.987    33 H    0.986
                            35 H    0.984
    15   7 N    3.362 --    16 C    1.298    12 C    0.912    36 H    0.884
                            17 O    0.176
    16   6 C    3.883 --    17 O    1.494    15 N    1.298    18 C    1.016
    17   8 O    1.797 --    16 C    1.494    15 N    0.176
    18   6 C    3.789 --    19 N    1.558    23 O    1.025    16 C    1.016
    19   7 N    2.902 --    18 C    1.558    20 N    1.187
    20   7 N    2.978 --    21 C    1.623    19 N    1.187
    21   6 C    3.854 --    20 N    1.623    23 O    1.066    22 C    1.028
    22   6 C    3.991 --    21 C    1.028    37 H    0.984    39 H    0.968
                            38 H    0.966
    23   8 O    2.274 --    21 C    1.066    18 C    1.025
    24   7 N    3.086 --    25 C    0.972     5 C    0.967    11 C    0.967
    25   6 C    3.985 --    40 H    0.989    42 H    0.988    41 H    0.981
                            24 N    0.972
    26   1 H    1.019 --     1 C    0.980
    27   1 H    1.020 --     1 C    0.980
    28   1 H    1.023 --     1 C    0.984
    29   1 H    0.983 --    10 N    0.918
    30   1 H    1.015 --    13 C    0.985
    31   1 H    1.014 --    13 C    0.986
    32   1 H    1.019 --    13 C    0.984
    33   1 H    1.010 --    14 C    0.986
    34   1 H    1.022 --    14 C    0.987
    35   1 H    1.017 --    14 C    0.984
    36   1 H    0.989 --    15 N    0.884
    37   1 H    1.002 --    22 C    0.984
    38   1 H    1.002 --    22 C    0.966
    39   1 H    0.999 --    22 C    0.968
    40   1 H    1.037 --    25 C    0.989
    41   1 H    1.013 --    25 C    0.981
    42   1 H    1.025 --    25 C    0.988
 ---------------------------------------------------------------------------

           -------------------------------------------------
          | TOTAL ENERGY              -83.587578257299 Eh   |
          | GRADIENT NORM               0.000233515262 Eh/α |
          | HOMO-LUMO GAP               0.121613582642 eV   |
           -------------------------------------------------

 * finished run on 2023/06/21 at 17:12:25.310
