   * xtb version 6.5.1 (579679a) compiled by 'ehlert@majestix' on 2022-07-11
          program call               : /lustre/hpc/kemi/ree/PhD/git/ReactivityQM/dep/xtb-6.5.1/bin/xtb --gfn 1 /lustre/hpc/kemi/ree/PhD/git/ReactivityQM/calculations/R02/reac01prodN09/conf11/R02_reac01prodN09_conf11_gfn1.xyz --opt --vfukui --chrg 1 --uhf 0 --alpb DMSO

   ID    Z sym.   atoms
    1    6 C      1, 3, 5, 6, 8-11, 13, 15, 18, 19, 22, 24
    2    8 O      2, 4, 14, 20, 23, 25
    3    7 N      7, 12, 16, 17, 21
    4    1 H      26-43

      * Solvation model:               ALPB
        Solvent                        DMSO
        Solvent mass                       7.8130E+01 g/mol
          :  Hamiltonian                  GFN1-xTB          :
 * total energy  :   -83.0936682 Eh     change       -0.2088996E-11 Eh
 * total energy  :   -83.1146081 Eh     change       -0.2093989E-01 Eh
 * total energy  :   -83.1238209 Eh     change       -0.9212775E-02 Eh
 * total energy  :   -83.1257949 Eh     change       -0.1974001E-02 Eh
 * total energy  :   -83.1269259 Eh     change       -0.1131015E-02 Eh
 * total energy  :   -83.1272498 Eh     change       -0.3239006E-03 Eh
 * total energy  :   -83.1274492 Eh     change       -0.1994178E-03 Eh
 * total energy  :   -83.1275164 Eh     change       -0.6716089E-04 Eh
 * total energy  :   -83.1275456 Eh     change       -0.2924169E-04 Eh
 * total energy  :   -83.1275681 Eh     change       -0.2250293E-04 Eh
 * total energy  :   -83.1279706 Eh     change       -0.1216730E-04 Eh
 * total energy  :   -83.1279767 Eh     change       -0.6066524E-05 Eh
 * total energy  :   -83.1279841 Eh     change       -0.7336854E-05 Eh
 * total energy  :   -83.1279934 Eh     change       -0.9321434E-05 Eh
 * total energy  :   -83.1279957 Eh     change       -0.2287962E-05 Eh
 * total energy  :   -83.1280067 Eh     change       -0.1099436E-04 Eh
 * total energy  :   -83.1280119 Eh     change       -0.5217472E-05 Eh
 * total energy  :   -83.1280170 Eh     change       -0.5129365E-05 Eh
 * total energy  :   -83.1280210 Eh     change       -0.4013659E-05 Eh
   *** GEOMETRY OPTIMIZATION CONVERGED AFTER 40 ITERATIONS ***

 final structure:
================
43
 xtb: 6.5.1 (579679a)
C           -3.29000605676176        2.41130240155587        0.65065625457644
O           -2.84888970018397        1.10572962959107        0.20081350892674
C           -3.72301556706713        0.15600059119487        0.18145306243008
O           -4.88035829922090        0.18344179262299        0.44421144356284
C           -3.03220645029213       -1.24081077639880       -0.28762406573970
C           -3.99247169227692       -2.35833130116706        0.13969273725486
N           -1.80449463794634       -1.31543743487098        0.42704111401626
C           -0.68351010813856       -1.07321929889369       -0.13284602193364
C            0.59644213477024       -1.20573048915596        0.66017147421559
C            1.15364212023677       -2.61072404843658        0.37695753951342
C            0.32200241672728       -1.00258497243273        2.15308993286555
N            1.52172757406697       -0.18088511693637        0.17315702836408
C            2.80344016804224       -0.08564221189855        0.62989619651424
O            3.37108917216216       -0.91395391942618        1.31105733230810
C            3.43181192591967        1.16870658646145        0.15652700479763
N            2.85611939804427        2.10114148414906       -0.54365705013593
N            3.78693259745219        3.07255887287271       -0.74281667260685
C            4.87307753220030        2.67357437583608       -0.14852852791378
C            6.17143900447875        3.37799623521360       -0.07072315746146
O            4.70933287461639        1.47916242513381        0.43695913959058
N           -0.54767326402163       -0.77047519404135       -1.47734374476776
C           -1.58498239103580       -0.72264674642422       -2.34887438877774
O           -1.51050557257540       -0.49276045877462       -3.53381581365649
C           -2.90220781864992       -1.04542319041981       -1.71999891215268
O           -3.91488686017289       -1.10564168066317       -2.49159668510102
H           -3.49359663853858        2.36941430632551        1.72088839356146
H           -4.18932834623469        2.69681394247069        0.10449085810419
H           -2.46859019456609        3.09024277367088        0.43893152987308
H           -3.55485968826597       -3.31740742757811       -0.12672047059744
H           -4.13404034600779       -2.30898517072899        1.21684728557110
H           -4.94740538039366       -2.23277959808516       -0.36563968190981
H            0.39340659320190       -3.35234488482244        0.61571512960729
H            2.03384012688752       -2.79306232071300        0.99012779714756
H            1.42221950236548       -2.69907063274767       -0.67382648402314
H            1.24901115351510       -1.11096115495844        2.71355467021184
H           -0.39615658310214       -1.74512017283629        2.49570086677549
H           -0.08841993268798       -0.00866619803444        2.32104511681366
H            1.12045303196251        0.66264197453427       -0.20853095506673
H            6.96391262311128        2.74082659812780       -0.46406476354883
H            6.40696584560554        3.60789350274352        0.96928962331031
H            6.12122998333208        4.30032137319771       -0.64492443360743
H            0.37923779955235       -0.60768253952388       -1.85193359958778
H           -3.69972905011322       -0.89741992573812       -3.43024561133471

          :  Hamiltonian                  GFN1-xTB          :
         :: total energy             -83.128021015796 Eh    ::
         :: gradient norm              0.000933386374 Eh/a0 ::
         :: HOMO-LUMO gap              0.765997576023 eV    ::
         :: SCC energy               -83.928022107835 Eh    ::
         :: -> Gsolv                  -0.111939839135 Eh    ::
         :: repulsion energy           0.827184042290 Eh    ::

    * Orbital Energies and Occupations

         #    Occupation            Energy/Eh            Energy/eV
      -------------------------------------------------------------
         1        2.0000           -0.9210171             -25.0622
       ...           ...                  ...                  ...
        55        2.0000           -0.5339834             -14.5304
        56        2.0000           -0.5304113             -14.4332
        57        2.0000           -0.5274120             -14.3516
        58        2.0000           -0.5175215             -14.0825
        59        2.0000           -0.5124333             -13.9440
        60        2.0000           -0.5122373             -13.9387
        61        2.0000           -0.5008817             -13.6297
        62        2.0000           -0.4941314             -13.4460
        63        2.0000           -0.4895561             -13.3215
        64        2.0000           -0.4759324             -12.9508
        65        2.0000           -0.4709867             -12.8162
        66        2.0000           -0.4595335             -12.5045
        67        2.0000           -0.4574641             -12.4482 (HOMO)
        68        0.0000           -0.4293142             -11.6822 (LUMO)
        69                         -0.3374291              -9.1819
        70                         -0.3217079              -8.7541
        71                         -0.3118290              -8.4853
        72                         -0.2714690              -7.3870
        73                         -0.2623168              -7.1380
        74                         -0.2090165              -5.6876
        75                         -0.1662425              -4.5237
        76                         -0.1572494              -4.2790
        77                         -0.1527462              -4.1564
        78                         -0.1469401              -3.9984
       ...                                ...                  ...
       136                          0.7432196              20.2240
      -------------------------------------------------------------
                  HL-Gap            0.0281499 Eh            0.7660 eV

Wiberg/Mayer (AO) data.
largest (>0.10) Wiberg bond orders for each atom

     #   Z sym  total        # sym  WBO       # sym  WBO       # sym  WBO
 ---------------------------------------------------------------------------
     1   6 C    3.817 --    28 H    0.981    27 H    0.979    26 H    0.977
                             2 O    0.838
     2   8 O    2.254 --     3 C    1.220     1 C    0.838     4 O    0.149
     3   6 C    3.857 --     4 O    1.749     2 O    1.220     5 C    0.713
     4   8 O    2.090 --     3 C    1.749     2 O    0.149
     5   6 C    3.957 --    24 C    1.106     7 N    1.025     6 C    0.939
                             3 C    0.713
     6   6 C    3.963 --    30 H    0.980    31 H    0.980    29 H    0.978
                             5 C    0.939
     7   7 N    3.029 --     8 C    1.692     5 C    1.025
     8   6 C    3.911 --     7 N    1.692    21 N    1.098     9 C    0.982
     9   6 C    3.933 --    11 C    0.986     8 C    0.982    10 C    0.967
                            12 N    0.932
    10   6 C    3.983 --    32 H    0.985    34 H    0.984    33 H    0.973
                             9 C    0.967
    11   6 C    3.986 --     9 C    0.986    37 H    0.985    36 H    0.983
                            35 H    0.981
    12   7 N    3.301 --    13 C    1.204     9 C    0.932    38 H    0.894
                            14 O    0.165
    13   6 C    3.910 --    14 O    1.624    12 N    1.204    15 C    0.996
    14   8 O    1.935 --    13 C    1.624    12 N    0.165
    15   6 C    3.878 --    16 N    1.602    20 O    1.066    13 C    0.996
    16   7 N    3.021 --    15 C    1.602    17 N    1.208
    17   7 N    2.981 --    18 C    1.596    16 N    1.208
    18   6 C    3.868 --    17 N    1.596    20 O    1.086    19 C    1.032
    19   6 C    3.985 --    18 C    1.032    41 H    0.982    39 H    0.963
                            40 H    0.961
    20   8 O    2.335 --    18 C    1.086    15 C    1.066
    21   7 N    3.483 --    22 C    1.198     8 C    1.098    42 H    0.862
                            23 O    0.167
    22   6 C    3.921 --    23 O    1.640    21 N    1.198    24 C    0.972
    23   8 O    1.979 --    22 C    1.640    21 N    0.167
    24   6 C    3.802 --    25 O    1.369     5 C    1.106    22 C    0.972
    25   8 O    2.286 --    24 C    1.369    43 H    0.740
    26   1 H    0.997 --     1 C    0.977
    27   1 H    0.998 --     1 C    0.979
    28   1 H    1.002 --     1 C    0.981
    29   1 H    0.994 --     6 C    0.978
    30   1 H    0.997 --     6 C    0.980
    31   1 H    0.998 --     6 C    0.980
    32   1 H    1.000 --    10 C    0.985
    33   1 H    1.008 --    10 C    0.973
    34   1 H    0.999 --    10 C    0.984
    35   1 H    1.002 --    11 C    0.981
    36   1 H    1.006 --    11 C    0.983
    37   1 H    1.001 --    11 C    0.985
    38   1 H    0.950 --    12 N    0.894
    39   1 H    0.996 --    19 C    0.963
    40   1 H    0.996 --    19 C    0.961
    41   1 H    0.998 --    19 C    0.982
    42   1 H    0.909 --    21 N    0.862
    43   1 H    0.784 --    25 O    0.740
 ---------------------------------------------------------------------------

           -------------------------------------------------
          | TOTAL ENERGY              -83.128021015796 Eh   |
          | GRADIENT NORM               0.000933386374 Eh/α |
          | HOMO-LUMO GAP               0.765997576023 eV   |
           -------------------------------------------------

 * finished run on 2023/06/20 at 15:29:44.583
