   * xtb version 6.5.1 (579679a) compiled by 'ehlert@majestix' on 2022-07-11
          program call               : /lustre/hpc/kemi/ree/PhD/git/ReactivityQM/dep/xtb-6.5.1/bin/xtb --gfn 1 /lustre/hpc/kemi/ree/PhD/git/ReactivityQM/calculations/R03/reac02prodE05/conf13/R03_reac02prodE05_conf13_gfn1.xyz --opt --vfukui --chrg -1 --uhf 0 --alpb DMSO

   ID    Z sym.   atoms
    1    6 C      1, 3, 5, 6, 8, 11-15, 17, 19, 22, 23, 26
    2    8 O      2, 4, 7, 9, 18, 24
    3    7 N      10, 16, 20, 21, 25
    4    1 H      27-46

      * Solvation model:               ALPB
        Solvent                        DMSO
        Solvent mass                       7.8130E+01 g/mol
          :  Hamiltonian                  GFN1-xTB          :
 * total energy  :   -86.9679859 Eh     change       -0.2441283E-09 Eh
 * total energy  :   -86.9822170 Eh     change       -0.1423110E-01 Eh
 * total energy  :   -86.9893688 Eh     change       -0.7151747E-02 Eh
 * total energy  :   -86.9913343 Eh     change       -0.1965534E-02 Eh
 * total energy  :   -86.9924880 Eh     change       -0.1153718E-02 Eh
 * total energy  :   -86.9930991 Eh     change       -0.6110826E-03 Eh
 * total energy  :   -86.9935282 Eh     change       -0.4291110E-03 Eh
 * total energy  :   -86.9939968 Eh     change       -0.4686030E-03 Eh
 * total energy  :   -86.9944742 Eh     change       -0.4773412E-03 Eh
 * total energy  :   -86.9948944 Eh     change       -0.4202575E-03 Eh
 * total energy  :   -87.0149644 Eh     change       -0.2025604E-04 Eh
 * total energy  :   -87.0149748 Eh     change       -0.1035438E-04 Eh
 * total energy  :   -87.0149836 Eh     change       -0.8884160E-05 Eh
 * total energy  :   -87.0149936 Eh     change       -0.9967582E-05 Eh
 * total energy  :   -87.0150059 Eh     change       -0.1225860E-04 Eh
 * total energy  :   -87.0150183 Eh     change       -0.1239103E-04 Eh
 * total energy  :   -87.0150279 Eh     change       -0.9668119E-05 Eh
 * total energy  :   -87.0150344 Eh     change       -0.6480308E-05 Eh
 * total energy  :   -87.0150389 Eh     change       -0.4446673E-05 Eh
   *** GEOMETRY OPTIMIZATION CONVERGED AFTER 116 ITERATIONS ***

 final structure:
================
46
 xtb: 6.5.1 (579679a)
C           -2.49093492493796        3.00429913885179       -2.28495976325121
O           -2.73273790113357        1.81180543994656       -1.55145694617866
C           -1.74489015116555        1.43744882347728       -0.69048120122490
O           -0.72448641528391        2.11122644271846       -0.57282154020041
C           -2.02307408002647        0.23240151177546        0.05238379127831
C           -3.00208294483810       -0.71005433987329       -0.16920823220026
O           -3.98676841683200       -0.58709697520460       -1.10120389213920
C           -2.93731511612489       -2.00164803538087        0.48394626374421
O           -3.91400054209834       -2.79810069092416        0.47478243047575
N           -1.70769745013868       -2.33339424359744        0.96658016666954
C           -1.54443128733547       -3.70086073471796        1.45568976597143
C           -0.65841815142263       -1.40334704983177        1.14365567379578
C            0.58295413268079       -1.60674745902521        0.25005099881459
C            1.52512604946288       -2.65490653412615        0.86771901068302
C            0.23580024830243       -2.00499901284671       -1.19976477429398
N            1.27908809245135       -0.31465141894925        0.23432896330339
C            2.41580112169364       -0.04547292974100       -0.40611603666159
O            3.09228560021876       -0.83378214528892       -1.05894016571859
C            2.82440812147059        1.38062154252712       -0.21777820909479
N            2.24280892304723        2.26636093569578        0.53101844733597
N            2.96604266379208        3.41880623199248        0.41556026545650
C            3.94392377464017        3.16009302954800       -0.39459560159787
C            5.01462596165581        4.08011972057698       -0.84035417689840
O            3.91430095235158        1.89033185179300       -0.82844269595036
N           -1.12865084060547       -0.03336327174081        1.15580985345537
C           -1.74089400801700        0.31043689519570        2.45154273300280
H           -3.36040381743271        3.17073326746194       -2.92000522743239
H           -1.59396505662946        2.90418836159167       -2.90532451322021
H           -2.35878221069346        3.85556459022205       -1.60886461079524
H           -4.53073454796152       -1.39461280685019       -1.04171511675905
H           -0.81357954472196       -3.70965721894378        2.26219385227713
H           -2.50600609409516       -4.05884737360504        1.83043807379940
H           -1.21474411224930       -4.36486954732559        0.65280023537030
H            1.07262765883552       -3.64243348921414        0.81343285693936
H            2.47500512329255       -2.68636754276608        0.33524622014854
H            1.70928929189806       -2.40884991818919        1.91291013731252
H           -0.35016340752250       -2.92257853879948       -1.19626714223722
H           -0.34724700198740       -1.21593045998035       -1.67480068966827
H            1.14364552115950       -2.17463146269452       -1.77780693513096
H            0.76763066437004        0.45473243680867        0.67285764351809
H            5.97937414269493        3.74069729478485       -0.46331147227937
H            4.81544640535641        5.08140010420689       -0.46671563340340
H            5.06526577316661        4.09807997246641       -1.92838779887005
H           -1.96105706673966        1.37911373806432        2.47323713487968
H           -2.66824024977123       -0.25010818440973        2.62669617251865
H           -1.02414288276195        0.06885005433120        3.23643968444362

          :  Hamiltonian                  GFN1-xTB          :
         :: total energy             -87.015038859182 Eh    ::
         :: gradient norm              0.000947312238 Eh/a0 ::
         :: HOMO-LUMO gap              0.616522916574 eV    ::
         :: SCC energy               -87.795776737972 Eh    ::
         :: -> Gsolv                  -0.106752925779 Eh    ::
         :: repulsion energy           0.812455613585 Eh    ::

    * Orbital Energies and Occupations

         #    Occupation            Energy/Eh            Energy/eV
      -------------------------------------------------------------
         1        2.0000           -0.8501279             -23.1332
       ...           ...                  ...                  ...
        59        2.0000           -0.4675240             -12.7220
        60        2.0000           -0.4672015             -12.7132
        61        2.0000           -0.4583961             -12.4736
        62        2.0000           -0.4453599             -12.1189
        63        2.0000           -0.4447892             -12.1033
        64        2.0000           -0.4387267             -11.9384
        65        2.0000           -0.4327001             -11.7744
        66        2.0000           -0.4214556             -11.4684
        67        2.0000           -0.4097060             -11.1487
        68        2.0000           -0.4042153             -10.9993
        69        2.0000           -0.3872026             -10.5363
        70        2.0000           -0.3698238             -10.0634
        71        2.0000           -0.3122082              -8.4956 (HOMO)
        72        0.0000           -0.2895514              -7.8791 (LUMO)
        73                         -0.2746182              -7.4727
        74                         -0.2450693              -6.6687
        75                         -0.1943572              -5.2887
        76                         -0.1787776              -4.8648
        77                         -0.1387741              -3.7762
        78                         -0.1360672              -3.7026
        79                         -0.1243444              -3.3836
        80                         -0.1221433              -3.3237
        81                         -0.1043532              -2.8396
        82                         -0.1015915              -2.7644
       ...                                ...                  ...
       144                          0.7323052              19.9270
      -------------------------------------------------------------
                  HL-Gap            0.0226568 Eh            0.6165 eV

Wiberg/Mayer (AO) data.
largest (>0.10) Wiberg bond orders for each atom

     #   Z sym  total        # sym  WBO       # sym  WBO       # sym  WBO
 ---------------------------------------------------------------------------
     1   6 C    3.899 --    27 H    0.987    28 H    0.981    29 H    0.981
                             2 O    0.925
     2   8 O    2.145 --     3 C    1.032     1 C    0.925     4 O    0.104
     3   6 C    3.855 --     4 O    1.554     5 C    1.134     2 O    1.032
     4   8 O    1.861 --     3 C    1.554     2 O    0.104
     5   6 C    3.935 --     6 C    1.465     3 C    1.134    25 N    0.975
     6   6 C    3.904 --     5 C    1.465     8 C    1.106     7 O    1.046
                            12 C    0.115
     7   8 O    2.031 --     6 C    1.046    30 H    0.828
     8   6 C    3.933 --     9 O    1.394    10 N    1.212     6 C    1.106
                            12 C    0.113
     9   8 O    1.763 --     8 C    1.394    10 N    0.148
    10   7 N    3.468 --     8 C    1.212    12 C    1.041    11 C    0.949
                             9 O    0.148
    11   6 C    3.958 --    31 H    0.988    33 H    0.981    32 H    0.977
                            10 N    0.949
    12   6 C    3.577 --    10 N    1.041    25 N    0.964    13 C    0.959
                             6 C    0.115     8 C    0.113
    13   6 C    3.918 --    14 C    0.988    15 C    0.978    12 C    0.959
                            16 N    0.915
    14   6 C    3.993 --    13 C    0.988    36 H    0.986    34 H    0.984
                            35 H    0.982
    15   6 C    3.996 --    38 H    0.985    37 H    0.985    39 H    0.983
                            13 C    0.978
    16   7 N    3.401 --    17 C    1.321    13 C    0.915    40 H    0.870
                            18 O    0.191
    17   6 C    3.926 --    18 O    1.547    16 N    1.321    19 C    0.978
    18   8 O    1.872 --    17 C    1.547    16 N    0.191
    19   6 C    3.866 --    20 N    1.625    24 O    1.056    17 C    0.978
    20   7 N    3.010 --    19 C    1.625    21 N    1.189
    21   7 N    2.980 --    22 C    1.618    20 N    1.189
    22   6 C    3.876 --    21 N    1.618    24 O    1.080    23 C    1.029
    23   6 C    3.989 --    22 C    1.029    42 H    0.983    43 H    0.968
                            41 H    0.964
    24   8 O    2.319 --    22 C    1.080    19 C    1.056
    25   7 N    3.091 --     5 C    0.975    12 C    0.964    26 C    0.963
    26   6 C    3.982 --    46 H    0.988    44 H    0.988    45 H    0.982
                            25 N    0.963
    27   1 H    1.016 --     1 C    0.987
    28   1 H    1.014 --     1 C    0.981
    29   1 H    1.014 --     1 C    0.981
    30   1 H    0.879 --     7 O    0.828
    31   1 H    1.019 --    11 C    0.988
    32   1 H    1.017 --    11 C    0.977
    33   1 H    1.010 --    11 C    0.981
    34   1 H    1.009 --    14 C    0.984
    35   1 H    1.013 --    14 C    0.982
    36   1 H    1.017 --    14 C    0.986
    37   1 H    1.007 --    15 C    0.985
    38   1 H    1.013 --    15 C    0.985
    39   1 H    1.013 --    15 C    0.983
    40   1 H    0.991 --    16 N    0.870
    41   1 H    0.998 --    23 C    0.964
    42   1 H    1.000 --    23 C    0.983
    43   1 H    0.998 --    23 C    0.968
    44   1 H    1.017 --    26 C    0.988
    45   1 H    1.009 --    26 C    0.982
    46   1 H    1.029 --    26 C    0.988
 ---------------------------------------------------------------------------

           -------------------------------------------------
          | TOTAL ENERGY              -87.015038859182 Eh   |
          | GRADIENT NORM               0.000947312238 Eh/α |
          | HOMO-LUMO GAP               0.616522916574 eV   |
           -------------------------------------------------

 * finished run on 2023/06/20 at 15:20:13.919
