   * xtb version 6.5.1 (579679a) compiled by 'ehlert@majestix' on 2022-07-11
          program call               : /lustre/hpc/kemi/ree/PhD/git/ReactivityQM/dep/xtb-6.5.1/bin/xtb --gfn 1 /lustre/hpc/kemi/ree/PhD/git/ReactivityQM/calculations/R03/reac02prodN16/conf13/R03_reac02prodN16_conf13_gfn1.xyz --opt --vfukui --chrg 1 --uhf 0 --alpb DMSO

   ID    Z sym.   atoms
    1    6 C      1, 2, 5, 6, 9-12, 14, 15, 18-20, 22, 25
    2    7 N      3, 4, 8, 13, 24
    3    8 O      7, 16, 17, 21, 23, 26
    4    1 H      27-46

      * Solvation model:               ALPB
        Solvent                        DMSO
        Solvent mass                       7.8130E+01 g/mol
          :  Hamiltonian                  GFN1-xTB          :
 * total energy  :   -86.2747274 Eh     change       -0.2971490E-10 Eh
 * total energy  :   -86.2901067 Eh     change       -0.1537929E-01 Eh
 * total energy  :   -86.2960196 Eh     change       -0.5912878E-02 Eh
 * total energy  :   -86.2976504 Eh     change       -0.1630786E-02 Eh
 * total energy  :   -86.2985973 Eh     change       -0.9469463E-03 Eh
 * total energy  :   -86.2991596 Eh     change       -0.5622886E-03 Eh
 * total energy  :   -86.2995848 Eh     change       -0.4251645E-03 Eh
 * total energy  :   -86.2998880 Eh     change       -0.3032507E-03 Eh
 * total energy  :   -86.3001060 Eh     change       -0.2179968E-03 Eh
 * total energy  :   -86.3003388 Eh     change       -0.2327493E-03 Eh
 * total energy  :   -86.3046477 Eh     change       -0.1499606E-04 Eh
 * total energy  :   -86.3046600 Eh     change       -0.1231466E-04 Eh
 * total energy  :   -86.3046803 Eh     change       -0.2030179E-04 Eh
 * total energy  :   -86.3046885 Eh     change       -0.8225014E-05 Eh
 * total energy  :   -86.3046984 Eh     change       -0.9939667E-05 Eh
 * total energy  :   -86.3047063 Eh     change       -0.7856977E-05 Eh
 * total energy  :   -86.3047123 Eh     change       -0.6044275E-05 Eh
 * total energy  :   -86.3047178 Eh     change       -0.5428337E-05 Eh
 * total energy  :   -86.3047228 Eh     change       -0.4990186E-05 Eh
   *** GEOMETRY OPTIMIZATION CONVERGED AFTER 43 ITERATIONS ***

 final structure:
================
46
 xtb: 6.5.1 (579679a)
C            7.37610093567068        1.40685039329766        1.54208240499602
C            5.93772762414432        1.20047184431935        1.26480791044415
N            4.95982554847323        2.02734474156261        1.48787086625871
N            3.82334343877167        1.40640746790393        1.06843420236718
C            4.17904144459171        0.24073576781143        0.61609071473874
C            3.27117131181321       -0.78750388859247        0.05123027146874
O            3.63487633664810       -1.88434582850561       -0.32292877327731
N            2.00110054917236       -0.30937594334774       -0.00851954125007
C            0.84984150269589       -1.13587980225569       -0.37784387120956
C            0.63006991472338       -2.18467462727009        0.72166008339149
C            1.05886624825974       -1.83826181660092       -1.72864481539846
C           -0.37260653727096       -0.23432476156490       -0.47943205826861
N           -1.42410113070635       -0.63552194441081        0.15990896355364
C           -2.61164270689268        0.04754440281609        0.09822947633851
C           -3.62784358543957       -0.53324759439989        0.94620406979705
O           -3.55661743061513       -1.36491581734968        1.78121002223218
O           -4.97736017885097        0.11240801757309        0.75658032037034
C           -5.83065488720929       -0.02158274109881        1.93044853162575
C           -5.65359113751112       -0.21586383916011       -0.49413505726937
C           -2.69931272946356        1.19677399066682       -0.64959971495378
O           -3.78836869248969        1.93653808979480       -0.78309486804793
C           -1.51758238467369        1.67606535851904       -1.36675670487465
O           -1.55823828679400        2.69669825513456       -2.03530181940618
N           -0.38150776015277        0.90663797222024       -1.24293476435202
C            0.74653193086059        1.43698854822484       -2.01926638099898
O            5.50627311891142        0.05466851796338        0.71759706475417
H            7.94854309818995        1.31563270706646        0.61896165797915
H            7.52743982680629        2.39493219658640        1.97015113860597
H            7.73389664474950        0.64735464060068        2.23742060435833
H            1.81384143154837        0.54904910962518        0.48797252553814
H            0.44098821633293       -1.69462507423384        1.67492337209118
H            1.51890623215774       -2.80795953775592        0.80643036398774
H           -0.22378563999360       -2.81049673336628        0.47017803914205
H            1.81167923488510       -2.61813268708242       -1.63016317942587
H            0.11845266135296       -2.29219097683969       -2.03717233336903
H            1.37855649914940       -1.13695537526896       -2.49514777672218
H           -5.26793842330067        0.37656597022433        2.77094264606222
H           -6.08208163970990       -1.07045753295368        2.08270355634982
H           -6.71665823722157        0.57600841970871        1.73533692065510
H           -6.37301365316884        0.57937289220639       -0.67288750887179
H           -6.14156957987992       -1.18502315066091       -0.39523301798911
H           -4.90025067378569       -0.23548216438958       -1.27554060528123
H           -3.58352900366805        2.71324235990479       -1.34689626864437
H            0.48922802636069        1.37801983674147       -3.07636772182378
H            1.65205437169860        0.87963637558255       -1.81678612668841
H            0.87989715107696        2.48268396119214       -1.74272281998373

          :  Hamiltonian                  GFN1-xTB          :
         :: total energy             -86.304722752829 Eh    ::
         :: gradient norm              0.000968269440 Eh/a0 ::
         :: HOMO-LUMO gap              1.990738142946 eV    ::
         :: SCC energy               -87.145234738128 Eh    ::
         :: -> Gsolv                  -0.111415129594 Eh    ::
         :: repulsion energy           0.869716727751 Eh    ::

    * Orbital Energies and Occupations

         #    Occupation            Energy/Eh            Energy/eV
      -------------------------------------------------------------
         1        2.0000           -0.9306595             -25.3245
       ...           ...                  ...                  ...
        58        2.0000           -0.5255006             -14.2996
        59        2.0000           -0.5182324             -14.1018
        60        2.0000           -0.5124937             -13.9457
        61        2.0000           -0.5108303             -13.9004
        62        2.0000           -0.5035465             -13.7022
        63        2.0000           -0.4919489             -13.3866
        64        2.0000           -0.4875896             -13.2680
        65        2.0000           -0.4804302             -13.0732
        66        2.0000           -0.4723661             -12.8537
        67        2.0000           -0.4669703             -12.7069
        68        2.0000           -0.4614826             -12.5576
        69        2.0000           -0.4579123             -12.4604
        70        2.0000           -0.4533950             -12.3375 (HOMO)
        71                         -0.3802367             -10.3468 (LUMO)
        72                         -0.3183155              -8.6618
        73                         -0.3151797              -8.5765
        74                         -0.2903717              -7.9014
        75                         -0.2611757              -7.1070
        76                         -0.2062420              -5.6121
        77                         -0.1980100              -5.3881
        78                         -0.1819379              -4.9508
        79                         -0.1732144              -4.7134
        80                         -0.1515622              -4.1242
        81                         -0.1438640              -3.9147
       ...                                ...                  ...
       144                          0.7496318              20.3985
      -------------------------------------------------------------
                  HL-Gap            0.0731583 Eh            1.9907 eV

Wiberg/Mayer (AO) data.
largest (>0.10) Wiberg bond orders for each atom

     #   Z sym  total        # sym  WBO       # sym  WBO       # sym  WBO
 ---------------------------------------------------------------------------
     1   6 C    3.985 --     2 C    1.032    28 H    0.982    27 H    0.963
                            29 H    0.962
     2   6 C    3.869 --     3 N    1.600    26 O    1.084     1 C    1.032
     3   7 N    2.981 --     2 C    1.600     4 N    1.204
     4   7 N    3.020 --     5 C    1.605     3 N    1.204
     5   6 C    3.877 --     4 N    1.605    26 O    1.066     6 C    0.992
     6   6 C    3.913 --     7 O    1.614     8 N    1.219     5 C    0.992
     7   8 O    1.927 --     6 C    1.614     8 N    0.170
     8   7 N    3.326 --     6 C    1.219     9 C    0.926    30 H    0.894
                             7 O    0.170
     9   6 C    3.933 --    10 C    0.989    11 C    0.978    12 C    0.977
                             8 N    0.926
    10   6 C    3.988 --     9 C    0.989    31 H    0.984    33 H    0.984
                            32 H    0.982
    11   6 C    3.985 --    35 H    0.984    36 H    0.981     9 C    0.978
                            34 H    0.975
    12   6 C    3.921 --    13 N    1.575    24 N    1.169     9 C    0.977
    13   7 N    3.027 --    12 C    1.575    14 C    1.163
    14   6 C    3.959 --    20 C    1.431    13 N    1.163    15 C    1.100
    15   6 C    3.800 --    16 O    1.825    14 C    1.100    17 O    0.737
    16   8 O    2.087 --    15 C    1.825
    17   8 O    2.481 --    18 C    0.816    19 C    0.808    15 C    0.737
    18   6 C    3.787 --    38 H    0.979    39 H    0.977    37 H    0.976
                            17 O    0.816
    19   6 C    3.785 --    41 H    0.980    40 H    0.976    42 H    0.976
                            17 O    0.808
    20   6 C    3.914 --    14 C    1.431    21 O    1.150    22 C    1.048
    21   8 O    2.127 --    20 C    1.150    43 H    0.778
    22   6 C    3.920 --    23 O    1.584    24 N    1.147    20 C    1.048
    23   8 O    1.927 --    22 C    1.584    24 N    0.143
    24   7 N    3.524 --    12 C    1.169    22 C    1.147    25 C    0.917
                            23 O    0.143
    25   6 C    3.905 --    45 H    0.976    46 H    0.972    44 H    0.972
                            24 N    0.917
    26   8 O    2.333 --     2 C    1.084     5 C    1.066
    27   1 H    0.996 --     1 C    0.963
    28   1 H    0.998 --     1 C    0.982
    29   1 H    0.996 --     1 C    0.962
    30   1 H    0.951 --     8 N    0.894
    31   1 H    1.006 --    10 C    0.984
    32   1 H    1.004 --    10 C    0.982
    33   1 H    1.008 --    10 C    0.984
    34   1 H    1.010 --    11 C    0.975
    35   1 H    1.000 --    11 C    0.984
    36   1 H    1.000 --    11 C    0.981
    37   1 H    0.995 --    18 C    0.976
    38   1 H    0.996 --    18 C    0.979
    39   1 H    0.993 --    18 C    0.977
    40   1 H    0.996 --    19 C    0.976
    41   1 H    0.991 --    19 C    0.980
    42   1 H    1.000 --    19 C    0.976
    43   1 H    0.822 --    21 O    0.778
    44   1 H    0.998 --    25 C    0.972
    45   1 H    1.008 --    25 C    0.976
    46   1 H    1.000 --    25 C    0.972
 ---------------------------------------------------------------------------

           -------------------------------------------------
          | TOTAL ENERGY              -86.304722752829 Eh   |
          | GRADIENT NORM               0.000968269440 Eh/α |
          | HOMO-LUMO GAP               1.990738142946 eV   |
           -------------------------------------------------

 * finished run on 2023/06/20 at 15:52:50.894
