   * xtb version 6.5.1 (579679a) compiled by 'ehlert@majestix' on 2022-07-11
          program call               : /lustre/hpc/kemi/ree/PhD/git/ReactivityQM/dep/xtb-6.5.1/bin/xtb --gfn 1 /lustre/hpc/kemi/ree/PhD/git/ReactivityQM/calculations/R01/reac02prodE03/conf05/R01_reac02prodE03_conf05_gfn1.xyz --opt --vfukui --chrg -1 --uhf 0 --alpb DMSO

   ID    Z sym.   atoms
    1    6 C      1, 3, 5, 6, 8-11, 14, 16
    2    8 O      2, 4, 15, 17
    3    7 N      7, 12, 13
    4    1 H      18-33

      * Solvation model:               ALPB
        Solvent                        DMSO
        Solvent mass                       7.8130E+01 g/mol
          :  Hamiltonian                  GFN1-xTB          :
 * total energy  :   -58.5252188 Eh     change       -0.6309619E-11 Eh
 * total energy  :   -58.5378264 Eh     change       -0.1260762E-01 Eh
 * total energy  :   -58.5415366 Eh     change       -0.3710183E-02 Eh
 * total energy  :   -58.5421997 Eh     change       -0.6631012E-03 Eh
 * total energy  :   -58.5426423 Eh     change       -0.4426696E-03 Eh
 * total energy  :   -58.5428196 Eh     change       -0.1772432E-03 Eh
 * total energy  :   -58.5429718 Eh     change       -0.1522131E-03 Eh
 * total energy  :   -58.5431258 Eh     change       -0.1540097E-03 Eh
 * total energy  :   -58.5432733 Eh     change       -0.1475101E-03 Eh
 * total energy  :   -58.5433921 Eh     change       -0.1187353E-03 Eh
 * total energy  :   -58.5487077 Eh     change       -0.1751715E-04 Eh
 * total energy  :   -58.5487259 Eh     change       -0.1829756E-04 Eh
 * total energy  :   -58.5487469 Eh     change       -0.2091183E-04 Eh
 * total energy  :   -58.5487725 Eh     change       -0.2559266E-04 Eh
 * total energy  :   -58.5487962 Eh     change       -0.2372815E-04 Eh
 * total energy  :   -58.5488227 Eh     change       -0.2652000E-04 Eh
 * total energy  :   -58.5488443 Eh     change       -0.2162695E-04 Eh
 * total energy  :   -58.5488498 Eh     change       -0.5444746E-05 Eh
 * total energy  :   -58.5488545 Eh     change       -0.4772591E-05 Eh
   *** GEOMETRY OPTIMIZATION CONVERGED AFTER 61 ITERATIONS ***

 final structure:
================
33
 xtb: 6.5.1 (579679a)
C           -2.41797432586021        2.20513839813852        1.26158486825186
O           -1.58284291469793        1.34726170468755        0.48986671125744
C           -2.21828871327456        0.42588567246444       -0.26577270408480
O           -3.43977004187796        0.34402456893618       -0.28684125276811
C           -1.29928784312484       -0.60759791400728       -0.90116052038877
C           -1.82257951431174       -1.01780591037564       -2.28465468701223
N            0.06352041083408       -0.11896966369144       -1.03791703112584
C            0.89863630722700       -0.35583909594093       -0.09610987727863
C            2.29733066098954        0.25047419782048       -0.19584751541707
C            2.35739064194397        1.46880236606501        0.73434107900952
C            2.58056540549213        0.67101375817611       -1.64208512631165
N            3.33291143884201       -0.69588231781722        0.21614596296859
N            0.61956341169763       -1.05811871608678        1.02990756727295
C           -0.54694915192747       -1.92411072697227        1.13369553986236
O           -0.52326262235197       -2.76724105425738        2.06546648925016
C           -1.46155119039364       -1.70603706672089        0.13858998200940
O           -2.66564944162053       -2.44041305900860        0.05689669964485
H           -3.10876957930519        2.75143211277598        0.61264490401556
H           -1.76474828784181        2.90605101974781        1.77883012306618
H           -2.99725023772713        1.62904656266970        1.98901677694491
H           -1.69147205067993       -0.19574326672473       -2.98785033033576
H           -2.87955953150911       -1.27376352427890       -2.22742297215732
H           -1.26461453802065       -1.88140858162998       -2.64538436672503
H            1.62433859294299        2.21357962479763        0.42326296515190
H            3.35110352036127        1.91476536516363        0.70397524404883
H            2.13852751621885        1.17033536143721        1.75983219401088
H            1.85647545761157        1.41828368768667       -1.96660907129538
H            2.50779446107432       -0.19205378807624       -2.30395174688579
H            3.58487300689800        1.08703527235631       -1.71422221167065
H            3.17854919487975       -1.60056215700703       -0.21002882784396
H            3.33761213731465       -0.80971903756550        1.22005833977679
H            1.37607765961157       -1.30326833536740        1.64688325007640
H           -3.42069883941441       -1.85459845738916        0.23443554468420

          :  Hamiltonian                  GFN1-xTB          :
         :: total energy             -58.548854546804 Eh    ::
         :: gradient norm              0.000980605433 Eh/a0 ::
         :: HOMO-LUMO gap              2.337582476138 eV    ::
         :: SCC energy               -59.090079918049 Eh    ::
         :: -> Gsolv                  -0.106451147727 Eh    ::
         :: repulsion energy           0.561220457101 Eh    ::

    * Orbital Energies and Occupations

         #    Occupation            Energy/Eh            Energy/eV
      -------------------------------------------------------------
         1        2.0000           -0.8053992             -21.9160
       ...           ...                  ...                  ...
        36        2.0000           -0.4764183             -12.9640
        37        2.0000           -0.4752285             -12.9316
        38        2.0000           -0.4711162             -12.8197
        39        2.0000           -0.4679643             -12.7340
        40        2.0000           -0.4590205             -12.4906
        41        2.0000           -0.4547489             -12.3743
        42        2.0000           -0.4514700             -12.2851
        43        2.0000           -0.4281643             -11.6509
        44        2.0000           -0.3999001             -10.8818
        45        2.0000           -0.3859962             -10.5035
        46        2.0000           -0.3791994             -10.3185
        47        2.0000           -0.3700003             -10.0682
        48        2.0000           -0.3140606              -8.5460 (HOMO)
        49                         -0.2281560              -6.2084 (LUMO)
        50                         -0.2112961              -5.7497
        51                         -0.1265627              -3.4439
        52                         -0.1250554              -3.4029
        53                         -0.1104782              -3.0063
        54                         -0.1087527              -2.9593
        55                         -0.0954877              -2.5984
        56                         -0.0923868              -2.5140
        57                         -0.0656450              -1.7863
        58                         -0.0613421              -1.6692
        59                         -0.0580566              -1.5798
       ...                                ...                  ...
       100                          0.7214176              19.6308
      -------------------------------------------------------------
                  HL-Gap            0.0859046 Eh            2.3376 eV

Wiberg/Mayer (AO) data.
largest (>0.10) Wiberg bond orders for each atom

     #   Z sym  total        # sym  WBO       # sym  WBO       # sym  WBO
 ---------------------------------------------------------------------------
     1   6 C    3.893 --    19 H    0.987    18 H    0.981    20 H    0.981
                             2 O    0.916
     2   8 O    2.166 --     3 C    1.067     1 C    0.916     4 O    0.109
     3   6 C    3.816 --     4 O    1.590     2 O    1.067     5 C    0.935
                            16 C    0.108
     4   8 O    1.887 --     3 C    1.590     2 O    0.109
     5   6 C    3.965 --     6 C    0.985     7 N    0.980     3 C    0.935
                            16 C    0.928
     6   6 C    3.997 --    21 H    0.988    23 H    0.987     5 C    0.985
                            22 H    0.985
     7   7 N    2.971 --     8 C    1.669     5 C    0.980    13 N    0.160
     8   6 C    3.945 --     7 N    1.669    13 N    1.191     9 C    0.960
     9   6 C    3.966 --    11 C    0.998    10 C    0.988    12 N    0.979
                             8 C    0.960
    10   6 C    3.996 --     9 C    0.988    24 H    0.986    25 H    0.986
                            26 H    0.985
    11   6 C    3.997 --     9 C    0.998    29 H    0.988    28 H    0.986
                            27 H    0.986
    12   7 N    2.952 --     9 C    0.979    30 H    0.946    31 H    0.944
    13   7 N    3.320 --     8 C    1.191    14 C    0.912    32 H    0.911
                             7 N    0.160
    14   6 C    3.916 --    16 C    1.485    15 O    1.396    13 N    0.912
    15   8 O    1.718 --    14 C    1.396    16 C    0.169
    16   6 C    3.782 --    14 C    1.485    17 O    0.949     5 C    0.928
                            15 O    0.169     3 C    0.108
    17   8 O    1.907 --    16 C    0.949    33 H    0.862
    18   1 H    1.013 --     1 C    0.981
    19   1 H    1.015 --     1 C    0.987
    20   1 H    1.012 --     1 C    0.981
    21   1 H    1.011 --     6 C    0.988
    22   1 H    1.017 --     6 C    0.985
    23   1 H    1.012 --     6 C    0.987
    24   1 H    1.007 --    10 C    0.986
    25   1 H    1.005 --    10 C    0.986
    26   1 H    1.005 --    10 C    0.985
    27   1 H    1.020 --    11 C    0.986
    28   1 H    1.011 --    11 C    0.986
    29   1 H    1.010 --    11 C    0.988
    30   1 H    0.963 --    12 N    0.946
    31   1 H    0.962 --    12 N    0.944
    32   1 H    0.964 --    13 N    0.911
    33   1 H    0.902 --    17 O    0.862
 ---------------------------------------------------------------------------

           -------------------------------------------------
          | TOTAL ENERGY              -58.548854546804 Eh   |
          | GRADIENT NORM               0.000980605433 Eh/α |
          | HOMO-LUMO GAP               2.337582476138 eV   |
           -------------------------------------------------

 * finished run on 2023/06/20 at 14:58:42.589
