   * xtb version 6.5.1 (579679a) compiled by 'ehlert@majestix' on 2022-07-11
          program call               : /lustre/hpc/kemi/ree/PhD/git/ReactivityQM/dep/xtb-6.5.1/bin/xtb --gfn 1 /lustre/hpc/kemi/ree/PhD/git/ReactivityQM/calculations/R02/reac01prodN13/conf10/R02_reac01prodN13_conf10_gfn1.xyz --opt --vfukui --chrg 1 --uhf 0 --alpb DMSO

   ID    Z sym.   atoms
    1    6 C      1, 3, 5, 7-10, 12, 14, 17-19, 22, 24
    2    8 O      2, 4, 13, 20, 23, 25
    3    7 N      6, 11, 15, 16, 21
    4    1 H      26-43

      * Solvation model:               ALPB
        Solvent                        DMSO
        Solvent mass                       7.8130E+01 g/mol
          :  Hamiltonian                  GFN1-xTB          :
 * total energy  :   -83.0938676 Eh     change       -0.8947580E-09 Eh
 * total energy  :   -83.1085019 Eh     change       -0.1463429E-01 Eh
 * total energy  :   -83.1139630 Eh     change       -0.5461084E-02 Eh
 * total energy  :   -83.1148795 Eh     change       -0.9165054E-03 Eh
 * total energy  :   -83.1155459 Eh     change       -0.6664630E-03 Eh
 * total energy  :   -83.1158184 Eh     change       -0.2724730E-03 Eh
 * total energy  :   -83.1160404 Eh     change       -0.2219562E-03 Eh
 * total energy  :   -83.1161721 Eh     change       -0.1317259E-03 Eh
 * total energy  :   -83.1162284 Eh     change       -0.5634395E-04 Eh
 * total energy  :   -83.1162580 Eh     change       -0.2952590E-04 Eh
 * total energy  :   -83.1163908 Eh     change       -0.1105045E-04 Eh
 * total energy  :   -83.1164011 Eh     change       -0.1030666E-04 Eh
 * total energy  :   -83.1164155 Eh     change       -0.1434042E-04 Eh
 * total energy  :   -83.1164242 Eh     change       -0.8742445E-05 Eh
 * total energy  :   -83.1164301 Eh     change       -0.5839482E-05 Eh
 * total energy  :   -83.1164430 Eh     change       -0.1297489E-04 Eh
 * total energy  :   -83.1164379 Eh     change        0.5097196E-05 Eh
 * total energy  :   -83.1164462 Eh     change       -0.8226416E-05 Eh
 * total energy  :   -83.1164505 Eh     change       -0.4333262E-05 Eh
   *** GEOMETRY OPTIMIZATION CONVERGED AFTER 26 ITERATIONS ***

 final structure:
================
43
 xtb: 6.5.1 (579679a)
C           -6.11588559195079        2.22388132300385        0.92367599630701
O           -4.95110991721197        1.45778697864215        0.59441697295630
C           -5.01438862467234        0.72790264502922       -0.51623339644313
O           -5.98211596560970        0.68877995228632       -1.23647668666463
C           -3.74864852776477       -0.03628104918010       -0.75213720651762
N           -2.72825987477970        0.19698450908424        0.12980465389500
C           -1.60620819113402       -0.42804530311934        0.00485539161787
C           -0.51385707102755       -0.20285771732728        1.02393824975688
C           -0.72031617866157        1.13130894909304        1.74737545285289
C           -0.53219788993913       -1.38374016016427        2.00787474468564
N            0.77182265085769       -0.16781622025607        0.30761311807514
C            1.95423030090953       -0.08840050795903        0.94148160371468
O            2.15633872332771       -0.07120894067485        2.13212430045055
C            3.08745011596525       -0.02756105899419       -0.05579729169214
N            2.93222810439897       -0.00144490206269       -1.41965895967203
N            4.08266021130768        0.05050375906706       -1.93634108652603
C            5.07887153689315        0.06011034596128       -0.91589778408715
C            5.96144978848638       -1.19238996731909       -1.00993503959579
C            5.89664863935454        1.35734904479527       -0.95676258235316
O            4.31258029444721        0.01127924439425        0.28537356398154
N           -1.38774601057889       -1.35018101486345       -0.97681073697951
C           -2.33058977061993       -1.66078535476777       -1.93436696483383
O           -2.12806316164124       -2.47397703751347       -2.81778510587569
C           -3.59082319976188       -0.93073310144011       -1.78302435195871
O           -4.53284459603180       -1.20341748123526       -2.67906086375649
H           -6.32715903268014        2.94292554593548        0.12877609868990
H           -6.97510500164463        1.56140398199501        1.05297510768226
H           -5.89214683398162        2.74142265614889        1.85408019368461
H           -1.70095043713999        1.13035064658545        2.22075744158810
H           -0.67005941434673        1.95121994620964        1.03314858344703
H            0.04772786492511        1.26544253116576        2.50602752035017
H           -1.52739731293694       -1.46703728337746        2.44184932216164
H            0.19094067726981       -1.22533214091788        2.80445735657070
H           -0.29267720147046       -2.30554719571198        1.48265484464854
H            0.76180395019202       -0.09676711984505       -0.69741919444470
H            6.49947227717963       -1.17170721684853       -1.95436722567950
H            6.66277095109116       -1.18862991333438       -0.17877385916202
H            5.33114271793433       -2.07752540980011       -0.95921637388662
H            6.44422509107700        1.39677208197008       -1.89507859266416
H            5.22330947496010        2.20843667808051       -0.88309673441877
H            6.58953560649920        1.36024425344117       -0.11855003660113
H           -0.51337418751305       -1.84685962127021       -1.02898082617020
H           -4.20328398397766       -1.86585635490401       -3.31334061713224

          :  Hamiltonian                  GFN1-xTB          :
         :: total energy             -83.116450490773 Eh    ::
         :: gradient norm              0.000477892132 Eh/a0 ::
         :: HOMO-LUMO gap              0.152076510556 eV    ::
         :: SCC energy               -83.906293145162 Eh    ::
         :: -> Gsolv                  -0.121854682058 Eh    ::
         :: repulsion energy           0.815619881358 Eh    ::

    * Orbital Energies and Occupations

         #    Occupation            Energy/Eh            Energy/eV
      -------------------------------------------------------------
         1        2.0000           -0.9362753             -25.4773
       ...           ...                  ...                  ...
        55        2.0000           -0.5340979             -14.5335
        56        2.0000           -0.5300099             -14.4223
        57        2.0000           -0.5226397             -14.2217
        58        2.0000           -0.5211325             -14.1807
        59        2.0000           -0.5162429             -14.0477
        60        2.0000           -0.5094822             -13.8637
        61        2.0000           -0.5027648             -13.6809
        62        2.0000           -0.5024107             -13.6713
        63        2.0000           -0.4990079             -13.5787
        64        2.0000           -0.4938634             -13.4387
        65        2.0000           -0.4797577             -13.0549
        66        2.0000           -0.4661362             -12.6842
        67        1.8997           -0.4492445             -12.2246 (HOMO)
        68        0.1003           -0.4436558             -12.0725 (LUMO)
        69                         -0.3626211              -9.8674
        70                         -0.3404839              -9.2650
        71                         -0.3053092              -8.3079
        72                         -0.2609139              -7.0998
        73                         -0.2545156              -6.9257
        74                         -0.1764160              -4.8005
        75                         -0.1624528              -4.4206
        76                         -0.1567739              -4.2660
        77                         -0.1503731              -4.0919
        78                         -0.1426408              -3.8815
       ...                                ...                  ...
       136                          0.7341483              19.9772
      -------------------------------------------------------------
                  HL-Gap            0.0055887 Eh            0.1521 eV

Wiberg/Mayer (AO) data.
largest (>0.10) Wiberg bond orders for each atom

     #   Z sym  total        # sym  WBO       # sym  WBO       # sym  WBO
 ---------------------------------------------------------------------------
     1   6 C    3.866 --    28 H    0.986    26 H    0.979    27 H    0.979
                             2 O    0.892
     2   8 O    2.205 --     3 C    1.121     1 C    0.892     4 O    0.139
     3   6 C    3.855 --     4 O    1.669     2 O    1.121     5 C    0.989
     4   8 O    1.931 --     3 C    1.669     2 O    0.139
     5   6 C    3.929 --    24 C    1.468     6 N    1.198     3 C    0.989
     6   7 N    3.005 --     7 C    1.569     5 C    1.198
     7   6 C    3.909 --     6 N    1.569    21 N    1.176     8 C    0.985
     8   6 C    3.909 --     7 C    0.985     9 C    0.980    10 C    0.966
                            11 N    0.908
     9   6 C    3.977 --    30 H    0.984    31 H    0.981     8 C    0.980
                            29 H    0.980
    10   6 C    3.974 --    34 H    0.984    32 H    0.982    33 H    0.976
                             8 C    0.966
    11   7 N    3.391 --    12 C    1.272     8 C    0.908    35 H    0.884
                            13 O    0.211
    12   6 C    3.924 --    13 O    1.629    11 N    1.272    14 C    0.942
    13   8 O    1.963 --    12 C    1.629    11 N    0.211
    14   6 C    3.746 --    20 O    1.344    15 N    1.205    12 C    0.942
    15   7 N    3.028 --    16 N    1.662    14 C    1.205
    16   7 N    2.922 --    15 N    1.662    17 C    1.054
    17   6 C    3.817 --    16 N    1.054    19 C    0.904    18 C    0.901
                            20 O    0.868
    18   6 C    3.937 --    38 H    0.979    36 H    0.977    37 H    0.976
                            17 C    0.901
    19   6 C    3.939 --    40 H    0.979    39 H    0.977    41 H    0.976
                            17 C    0.904
    20   8 O    2.382 --    14 C    1.344    17 C    0.868
    21   7 N    3.456 --     7 C    1.176    22 C    1.121    42 H    0.878
                            23 O    0.128
    22   6 C    3.899 --    23 O    1.601    21 N    1.121    24 C    1.052
    23   8 O    1.902 --    22 C    1.601    21 N    0.128
    24   6 C    3.875 --     5 C    1.468    25 O    1.137    22 C    1.052
    25   8 O    2.093 --    24 C    1.137    43 H    0.799
    26   1 H    1.006 --     1 C    0.979
    27   1 H    1.006 --     1 C    0.979
    28   1 H    1.010 --     1 C    0.986
    29   1 H    1.006 --     9 C    0.980
    30   1 H    1.000 --     9 C    0.984
    31   1 H    1.002 --     9 C    0.981
    32   1 H    0.998 --    10 C    0.982
    33   1 H    1.003 --    10 C    0.976
    34   1 H    0.997 --    10 C    0.984
    35   1 H    0.934 --    11 N    0.884
    36   1 H    0.991 --    18 C    0.977
    37   1 H    0.991 --    18 C    0.976
    38   1 H    0.991 --    18 C    0.979
    39   1 H    0.991 --    19 C    0.977
    40   1 H    0.991 --    19 C    0.979
    41   1 H    0.991 --    19 C    0.976
    42   1 H    0.919 --    21 N    0.878
    43   1 H    0.835 --    25 O    0.799
 ---------------------------------------------------------------------------

           -------------------------------------------------
          | TOTAL ENERGY              -83.116450490773 Eh   |
          | GRADIENT NORM               0.000477892132 Eh/α |
          | HOMO-LUMO GAP               0.152076510556 eV   |
           -------------------------------------------------

 * finished run on 2023/06/20 at 15:35:47.411
