   * xtb version 6.5.1 (579679a) compiled by 'ehlert@majestix' on 2022-07-11
          program call               : /lustre/hpc/kemi/ree/PhD/git/ReactivityQM/dep/xtb-6.5.1/bin/xtb --gfn 1 /lustre/hpc/kemi/ree/PhD/git/ReactivityQM/calculations/R02oxygendeprot/reac01prodE14/conf06/R02oxygendeprot_reac01prodE14_conf06_gfn1.xyz --opt --vfukui --chrg -2 --uhf 0 --alpb DMSO

   ID    Z sym.   atoms
    1    6 C      1, 3, 5, 7-10, 12, 14, 17, 18, 21, 23, 24
    2    8 O      2, 4, 13, 19, 22, 25
    3    7 N      6, 11, 15, 16, 20
    4    1 H      26-42

      * Solvation model:               ALPB
        Solvent                        DMSO
        Solvent mass                       7.8130E+01 g/mol
          :  Hamiltonian                  GFN1-xTB          :
 * total energy  :   -83.5872612 Eh     change       -0.1694701E-08 Eh
 * total energy  :   -83.6033596 Eh     change       -0.1609843E-01 Eh
 * total energy  :   -83.6103003 Eh     change       -0.6940646E-02 Eh
 * total energy  :   -83.6117135 Eh     change       -0.1413206E-02 Eh
 * total energy  :   -83.6124795 Eh     change       -0.7659919E-03 Eh
 * total energy  :   -83.6128132 Eh     change       -0.3336941E-03 Eh
 * total energy  :   -83.6130488 Eh     change       -0.2356026E-03 Eh
 * total energy  :   -83.6132162 Eh     change       -0.1674228E-03 Eh
 * total energy  :   -83.6133467 Eh     change       -0.1304693E-03 Eh
 * total energy  :   -83.6134771 Eh     change       -0.1303905E-03 Eh
 * total energy  :   -83.6147339 Eh     change       -0.8921308E-05 Eh
 * total energy  :   -83.6147452 Eh     change       -0.1121411E-04 Eh
 * total energy  :   -83.6147535 Eh     change       -0.8349099E-05 Eh
 * total energy  :   -83.6147601 Eh     change       -0.6598517E-05 Eh
 * total energy  :   -83.6147679 Eh     change       -0.7832398E-05 Eh
 * total energy  :   -83.6147782 Eh     change       -0.1025555E-04 Eh
 * total energy  :   -83.6147888 Eh     change       -0.1056915E-04 Eh
 * total energy  :   -83.6147956 Eh     change       -0.6822506E-05 Eh
 * total energy  :   -83.6148006 Eh     change       -0.4989543E-05 Eh
   *** GEOMETRY OPTIMIZATION CONVERGED AFTER 37 ITERATIONS ***

 final structure:
================
42
 xtb: 6.5.1 (579679a)
C           -3.19070091718487        0.58476857733911        3.84525032620754
O           -3.31285853443547        0.39125574670621        2.45449829003609
C           -2.09430906491171        0.22689881876728        1.76633266808783
O           -1.04006588446179        0.28348048497410        2.43979478796169
C           -2.20179679350818       -0.01913807498648        0.39085443932803
N           -0.97748064098255       -0.07987091405482       -0.24191439326300
C           -0.85563051090638       -0.33989180601614       -1.49106826171171
C            0.51333866224669       -0.32410762065655       -2.14992631247316
C            0.87296883128028       -1.70044302393898       -2.73275327230759
C            0.57327496224031        0.75227087847537       -3.24574344525150
N            1.45007822569753        0.00791995719943       -1.07674511572955
C            2.77395732861951        0.11965571681517       -1.20819207706163
O            3.40913336511774        0.00011871706053       -2.25226947787176
C            3.42290593133967        0.42312740765377        0.09671373918628
N            2.81853511091189        0.62868656013311        1.22909589665152
N            3.79027085943568        0.86692457409534        2.15794245065366
C            4.92315493516570        0.79127864005045        1.53503944226947
C            6.27762260873799        0.96558987738219        2.10515715313157
O            4.76466439402812        0.51593067528047        0.22997918473057
N           -1.95649494721528       -0.67233431741648       -2.30200072813656
C           -3.20355284302015       -0.82972072327312       -1.75255269424147
O           -4.04075396200619       -1.49878092896566       -2.37131319535515
C           -3.49822757275473        0.03809549730394       -0.47924684210639
C           -4.68446693559718       -0.67970005349250        0.25688187292424
O           -3.81193438316291        1.27005787043183       -0.91173849411312
H           -2.70493014811804       -0.27239958912074        4.33006331718837
H           -2.60779242837705        1.48549133752851        4.08037690873234
H           -4.19743699743016        0.69806642006556        4.25198775493598
H            0.17120163129608       -1.96441712959749       -3.52141423229697
H            1.87549129439325       -1.68305104318764       -3.15665308201259
H            0.83114990918880       -2.45949816566634       -1.95256369211524
H           -0.19101858952966        0.55046095954779       -3.99421734430781
H            0.39481569501063        1.73699225199042       -2.81361845633599
H            1.54758907334611        0.74962005538330       -3.73132765490677
H            1.01557967926414        0.11022296207702       -0.15246138742211
H            6.20251833697641        1.15572691538265        3.17265740759913
H            6.78405962970205        1.80051122449479        1.62237421482111
H            6.87227827302165        0.06867095492757        1.93652444722758
H           -1.78213762286071       -1.16795660622516       -3.15979050036475
H           -4.34464690368780       -1.56529132981665        0.79575140301789
H           -5.15396699954795        0.01274492398752        0.95310875176414
H           -5.43438405732612       -0.97796667863903       -0.47791879707225

          :  Hamiltonian                  GFN1-xTB          :
         :: total energy             -83.614800569299 Eh    ::
         :: gradient norm              0.000626604853 Eh/a0 ::
         :: HOMO-LUMO gap              0.197281626596 eV    ::
         :: SCC energy               -84.349574710960 Eh    ::
         :: -> Gsolv                  -0.303097982299 Eh    ::
         :: repulsion energy           0.760666595770 Eh    ::

    * Orbital Energies and Occupations

         #    Occupation            Energy/Eh            Energy/eV
      -------------------------------------------------------------
         1        2.0000           -0.8479646             -23.0743
       ...           ...                  ...                  ...
        56        2.0000           -0.4427052             -12.0466
        57        2.0000           -0.4365025             -11.8778
        58        2.0000           -0.4315726             -11.7437
        59        2.0000           -0.4247884             -11.5591
        60        2.0000           -0.4202320             -11.4351
        61        2.0000           -0.4150284             -11.2935
        62        2.0000           -0.3996181             -10.8742
        63        2.0000           -0.3925712             -10.6824
        64        2.0000           -0.3832480             -10.4287
        65        2.0000           -0.3725071             -10.1364
        66        2.0000           -0.3066906              -8.3455
        67        1.9961           -0.2992666              -8.1435
        68        1.9588           -0.2970147              -8.0822 (HOMO)
        69        0.0451           -0.2897647              -7.8849 (LUMO)
        70                         -0.2435029              -6.6261
        71                         -0.2125607              -5.7841
        72                         -0.1776982              -4.8354
        73                         -0.1719311              -4.6785
        74                         -0.1378665              -3.7515
        75                         -0.1137819              -3.0962
        76                         -0.1103748              -3.0035
        77                         -0.1048273              -2.8525
        78                         -0.1016107              -2.7650
        79                         -0.0749515              -2.0395
       ...                                ...                  ...
       134                          0.7266538              19.7733
      -------------------------------------------------------------
                  HL-Gap            0.0072500 Eh            0.1973 eV

Wiberg/Mayer (AO) data.
largest (>0.10) Wiberg bond orders for each atom

     #   Z sym  total        # sym  WBO       # sym  WBO       # sym  WBO
 ---------------------------------------------------------------------------
     1   6 C    3.923 --    28 H    0.987    26 H    0.980    27 H    0.980
                             2 O    0.955
     2   8 O    2.080 --     1 C    0.955     3 C    0.928
     3   6 C    3.850 --     4 O    1.438     5 C    1.344     2 O    0.928
     4   8 O    1.742 --     3 C    1.438     5 C    0.111
     5   6 C    3.834 --     3 C    1.344     6 N    1.175    23 C    0.919
                             4 O    0.111
     6   7 N    3.086 --     7 C    1.616     5 C    1.175
     7   6 C    3.901 --     6 N    1.616    20 N    1.013     8 C    0.974
     8   6 C    3.929 --     9 C    0.984    10 C    0.983     7 C    0.974
                            11 N    0.923
     9   6 C    3.990 --    31 H    0.987     8 C    0.984    29 H    0.984
                            30 H    0.982
    10   6 C    3.991 --    33 H    0.986    32 H    0.986     8 C    0.983
                            34 H    0.983
    11   7 N    3.380 --    12 C    1.301     8 C    0.923    35 H    0.868
                            13 O    0.185
    12   6 C    3.912 --    13 O    1.543    11 N    1.301    14 C    0.989
    13   8 O    1.859 --    12 C    1.543    11 N    0.185
    14   6 C    3.847 --    15 N    1.605    19 O    1.050    12 C    0.989
    15   7 N    2.987 --    14 C    1.605    16 N    1.189
    16   7 N    2.981 --    17 C    1.619    15 N    1.189
    17   6 C    3.870 --    16 N    1.619    19 O    1.077    18 C    1.029
    18   6 C    3.989 --    17 C    1.029    36 H    0.984    38 H    0.966
                            37 H    0.965
    19   8 O    2.307 --    17 C    1.077    14 C    1.050
    20   7 N    3.347 --    21 C    1.167     7 C    1.013    39 H    0.913
                            22 O    0.115
    21   6 C    3.814 --    22 O    1.562    20 N    1.167    23 C    0.881
    22   8 O    1.832 --    21 C    1.562    20 N    0.115
    23   6 C    3.964 --    25 O    1.123    24 C    0.945     5 C    0.919
                            21 C    0.881
    24   6 C    3.988 --    40 H    0.991    41 H    0.987    42 H    0.985
                            23 C    0.945
    25   8 O    1.424 --    23 C    1.123
    26   1 H    1.022 --     1 C    0.980
    27   1 H    1.023 --     1 C    0.980
    28   1 H    1.020 --     1 C    0.987
    29   1 H    1.005 --     9 C    0.984
    30   1 H    1.012 --     9 C    0.982
    31   1 H    1.008 --     9 C    0.987
    32   1 H    1.006 --    10 C    0.986
    33   1 H    1.008 --    10 C    0.986
    34   1 H    1.012 --    10 C    0.983
    35   1 H    0.992 --    11 N    0.868
    36   1 H    1.000 --    18 C    0.984
    37   1 H    0.998 --    18 C    0.965
    38   1 H    0.998 --    18 C    0.966
    39   1 H    0.968 --    20 N    0.913
    40   1 H    1.018 --    24 C    0.991
    41   1 H    1.034 --    24 C    0.987
    42   1 H    1.026 --    24 C    0.985
 ---------------------------------------------------------------------------

           -------------------------------------------------
          | TOTAL ENERGY              -83.614800569299 Eh   |
          | GRADIENT NORM               0.000626604853 Eh/α |
          | HOMO-LUMO GAP               0.197281626596 eV   |
           -------------------------------------------------

 * finished run on 2023/06/21 at 17:16:12.307
