   * xtb version 6.5.1 (579679a) compiled by 'ehlert@majestix' on 2022-07-11
          program call               : /lustre/hpc/kemi/ree/PhD/git/ReactivityQM/dep/xtb-6.5.1/bin/xtb --gfn 1 /lustre/hpc/kemi/ree/PhD/git/ReactivityQM/calculations/RaltegravirCLI/reac02prodN04/conf01/RaltegravirCLI_reac02prodN04_conf01_gfn1.xyz --opt --vfukui --chrg 1 --uhf 0 --alpb DMSO

   ID    Z sym.   atoms
    1    6 C      1, 3-6, 9-11, 14-18, 20-22, 24
    2    7 N      2, 7, 8, 13
    3    8 O      12, 23, 25
    4    9 F      19
    5    1 H      26-47

      * Solvation model:               ALPB
        Solvent                        DMSO
        Solvent mass                       7.8130E+01 g/mol
          :  Hamiltonian                  GFN1-xTB          :
 * total energy  :   -79.4937642 Eh     change       -0.3487344E-10 Eh
 * total energy  :   -79.5096170 Eh     change       -0.1585282E-01 Eh
 * total energy  :   -79.5149099 Eh     change       -0.5292852E-02 Eh
 * total energy  :   -79.5159729 Eh     change       -0.1063071E-02 Eh
 * total energy  :   -79.5165882 Eh     change       -0.6152495E-03 Eh
 * total energy  :   -79.5168389 Eh     change       -0.2506859E-03 Eh
 * total energy  :   -79.5170291 Eh     change       -0.1902518E-03 Eh
 * total energy  :   -79.5171677 Eh     change       -0.1385747E-03 Eh
 * total energy  :   -79.5172812 Eh     change       -0.1135636E-03 Eh
 * total energy  :   -79.5173876 Eh     change       -0.1063297E-03 Eh
 * total energy  :   -79.5194530 Eh     change       -0.3719929E-04 Eh
 * total energy  :   -79.5194572 Eh     change       -0.4200301E-05 Eh
 * total energy  :   -79.5194828 Eh     change       -0.2557095E-04 Eh
 * total energy  :   -79.5194874 Eh     change       -0.4608064E-05 Eh
 * total energy  :   -79.5194957 Eh     change       -0.8312103E-05 Eh
 * total energy  :   -79.5195012 Eh     change       -0.5431319E-05 Eh
 * total energy  :   -79.5195065 Eh     change       -0.5364786E-05 Eh
 * total energy  :   -79.5195118 Eh     change       -0.5256372E-05 Eh
 * total energy  :   -79.5195159 Eh     change       -0.4069681E-05 Eh
   *** GEOMETRY OPTIMIZATION CONVERGED AFTER 40 ITERATIONS ***

 final structure:
================
47
 xtb: 6.5.1 (579679a)
C           -3.70816929955605       -1.99831398340847       -0.98674857997840
N           -2.47944562997912       -1.36095514346437       -0.47918197772472
C           -2.41590167383622       -0.14807000760767        0.11027218398920
C           -3.53253146517181        0.86846621011715       -0.18255709436718
C           -3.57960678701020        1.00050467300534       -1.72095603887641
C           -3.34609012738584        2.29995578373320        0.34528367846286
N           -4.79864847906066        0.34329499902518        0.31420899467961
N           -1.28980703521521        0.15893791127701        0.76695611788678
C           -1.29447896943366        1.09771800276366        1.90495001476731
C           -0.09730324525429       -0.54451358910491        0.60073895092699
C            1.17952834852944        0.12555807100393        1.06315881167757
O            1.27856642694600        1.34361932342562        1.08297019346840
N            2.15988892665150       -0.71094892051606        1.40721249494413
C            3.47602063031407       -0.19247147045720        1.79157769291215
C            4.32770674889668        0.02361892033924        0.55982533349681
C            5.17442098352650       -0.98459347925540        0.10614567343077
C            5.93546379791680       -0.80348190479592       -1.04048527250391
C            5.82602882862282        0.39863466919562       -1.71604921817928
F            6.55499531318033        0.58164106025866       -2.82721344708302
C            4.99478058403412        1.42031057155873       -1.29273717035537
C            4.24177990524233        1.22285300093833       -0.14445557424118
C           -0.12691470769431       -1.70266749474521       -0.10593924013567
O            0.95993688462034       -2.43733285607136       -0.35736797768685
C           -1.38517212190450       -2.22581812580517       -0.60176086001043
O           -1.49091583898956       -3.32078978560957       -1.11644539672100
H           -3.61706202842989       -2.14353749551478       -2.06208034490256
H           -3.77772214198437       -2.97358179752554       -0.50366251510033
H           -4.57629065051968       -1.39903647402007       -0.73559925322428
H           -4.40640421713112        1.65806057965101       -1.98301908022250
H           -3.72810574021625        0.05085853487741       -2.22392263214747
H           -2.65130190100963        1.44487884857204       -2.07721564477056
H           -3.52172000606229        2.36864905331479        1.41475023185257
H           -4.09673652678089        2.92234550172807       -0.14166652849581
H           -2.36511459052643        2.69713280055138        0.09458367547620
H           -5.54209977046589        0.96717346942934        0.03039837213266
H           -4.77876762923597        0.32052017310836        1.32391678916402
H           -0.61249669752400        0.70262650835872        2.65418936578576
H           -0.95806139702764        2.08577997184324        1.59939077344283
H           -2.29105410833257        1.12870778913094        2.32902999570024
H            2.04504844652059       -1.70743305730103        1.34313546982225
H            3.32145107275526        0.74922339354475        2.32568310575001
H            3.93215203628983       -0.92254943904340        2.46231468290471
H            5.24117186545408       -1.91880195328041        0.65051577740326
H            6.59735788253708       -1.57828446932253       -1.40418265209747
H            4.93776512405509        2.34569317094137       -1.85110728969528
H            3.57786866865975        2.00438209248448        0.20473806465072
H            0.70598931098477       -3.25796463732415       -0.82028365621071

          :  Hamiltonian                  GFN1-xTB          :
         :: total energy             -79.519515854139 Eh    ::
         :: gradient norm              0.000584538713 Eh/a0 ::
         :: HOMO-LUMO gap              2.264402429630 eV    ::
         :: SCC energy               -80.419366018501 Eh    ::
         :: -> Gsolv                  -0.107984194973 Eh    ::
         :: repulsion energy           0.931224006441 Eh    ::

    * Orbital Energies and Occupations

         #    Occupation            Energy/Eh            Energy/eV
      -------------------------------------------------------------
         1        2.0000           -0.8794891             -23.9321
       ...           ...                  ...                  ...
        55        2.0000           -0.5184400             -14.1075
        56        2.0000           -0.5156690             -14.0321
        57        2.0000           -0.5140113             -13.9870
        58        2.0000           -0.5118521             -13.9282
        59        2.0000           -0.5063380             -13.7782
        60        2.0000           -0.5047675             -13.7354
        61        2.0000           -0.4807113             -13.0808
        62        2.0000           -0.4775406             -12.9945
        63        2.0000           -0.4713118             -12.8250
        64        2.0000           -0.4593966             -12.5008
        65        2.0000           -0.4570287             -12.4364
        66        2.0000           -0.4438346             -12.0774
        67        2.0000           -0.4392125             -11.9516 (HOMO)
        68                         -0.3559972              -9.6872 (LUMO)
        69                         -0.3512728              -9.5586
        70                         -0.2789518              -7.5907
        71                         -0.2744498              -7.4682
        72                         -0.2664072              -7.2493
        73                         -0.2099164              -5.7121
        74                         -0.1582596              -4.3065
        75                         -0.1524121              -4.1473
        76                         -0.1522264              -4.1423
        77                         -0.1424411              -3.8760
        78                         -0.1347634              -3.6671
       ...                                ...                  ...
       144                          0.6966268              18.9562
      -------------------------------------------------------------
                  HL-Gap            0.0832153 Eh            2.2644 eV

Wiberg/Mayer (AO) data.
largest (>0.10) Wiberg bond orders for each atom

     #   Z sym  total        # sym  WBO       # sym  WBO       # sym  WBO
 ---------------------------------------------------------------------------
     1   6 C    3.886 --    26 H    0.972    27 H    0.967    28 H    0.962
                             2 N    0.903
     2   7 N    3.538 --     3 C    1.298    24 C    1.072     1 C    0.903
                            25 O    0.116
     3   6 C    3.884 --     8 N    1.353     2 N    1.298     4 C    0.967
     4   6 C    3.953 --     6 C    0.994     7 N    0.986     5 C    0.968
                             3 C    0.967
     5   6 C    3.986 --    31 H    0.984    30 H    0.979    29 H    0.976
                             4 C    0.968
     6   6 C    3.989 --     4 C    0.994    34 H    0.980    32 H    0.977
                            33 H    0.976
     7   7 N    2.994 --     4 C    0.986    36 H    0.934    35 H    0.929
     8   7 N    3.555 --     3 C    1.353    10 C    1.091     9 C    0.900
     9   6 C    3.893 --    39 H    0.979    37 H    0.974    38 H    0.968
                             8 N    0.900
    10   6 C    3.920 --    22 C    1.540     8 N    1.091    11 C    0.962
    11   6 C    3.921 --    12 O    1.566    13 N    1.315    10 C    0.962
    12   8 O    1.912 --    11 C    1.566    13 N    0.184
    13   7 N    3.386 --    11 C    1.315    14 C    0.925    40 H    0.887
                            12 O    0.184
    14   6 C    3.933 --    15 C    0.993    42 H    0.976    41 H    0.971
                            13 N    0.925
    15   6 C    3.987 --    16 C    1.421    21 C    1.417    14 C    0.993
    16   6 C    3.993 --    17 C    1.442    15 C    1.421    43 H    0.971
                            20 C    0.110
    17   6 C    3.991 --    16 C    1.442    18 C    1.401    44 H    0.969
                            21 C    0.111
    18   6 C    3.861 --    17 C    1.401    20 C    1.399    19 F    0.928
    19   9 F    1.057 --    18 C    0.928
    20   6 C    3.992 --    21 C    1.446    18 C    1.399    45 H    0.969
                            16 C    0.110
    21   6 C    3.992 --    20 C    1.446    15 C    1.417    46 H    0.969
                            17 C    0.111
    22   6 C    3.927 --    10 C    1.540    23 O    1.106    24 C    1.065
    23   8 O    2.088 --    22 C    1.106    47 H    0.790
    24   6 C    3.909 --    25 O    1.623     2 N    1.072    22 C    1.065
    25   8 O    1.952 --    24 C    1.623     2 N    0.116
    26   1 H    1.001 --     1 C    0.972
    27   1 H    1.000 --     1 C    0.967
    28   1 H    1.021 --     1 C    0.962
    29   1 H    0.996 --     5 C    0.976
    30   1 H    1.000 --     5 C    0.979
    31   1 H    0.999 --     5 C    0.984
    32   1 H    1.002 --     6 C    0.977
    33   1 H    0.999 --     6 C    0.976
    34   1 H    0.997 --     6 C    0.980
    35   1 H    0.942 --     7 N    0.929
    36   1 H    0.948 --     7 N    0.934
    37   1 H    0.998 --     9 C    0.974
    38   1 H    1.010 --     9 C    0.968
    39   1 H    1.000 --     9 C    0.979
    40   1 H    0.936 --    13 N    0.887
    41   1 H    1.005 --    14 C    0.971
    42   1 H    1.000 --    14 C    0.976
    43   1 H    0.998 --    16 C    0.971
    44   1 H    0.997 --    17 C    0.969
    45   1 H    0.998 --    20 C    0.969
    46   1 H    1.009 --    21 C    0.969
    47   1 H    0.824 --    23 O    0.790
 ---------------------------------------------------------------------------

           -------------------------------------------------
          | TOTAL ENERGY              -79.519515854139 Eh   |
          | GRADIENT NORM               0.000584538713 Eh/α |
          | HOMO-LUMO GAP               2.264402429630 eV   |
           -------------------------------------------------

 * finished run on 2023/06/20 at 15:19:55.804
