   * xtb version 6.5.1 (579679a) compiled by 'ehlert@majestix' on 2022-07-11
          program call               : /lustre/hpc/kemi/ree/PhD/git/ReactivityQM/dep/xtb-6.5.1/bin/xtb --gfn 1 /lustre/hpc/kemi/ree/PhD/git/ReactivityQM/calculations/R02deprot/reac01prodE07/conf02/R02deprot_reac01prodE07_conf02_gfn1.xyz --opt --vfukui --chrg -2 --uhf 0 --alpb DMSO

   ID    Z sym.   atoms
    1    6 C      1, 3, 5, 7-10, 12, 14, 15, 18, 19, 22, 24
    2    8 O      2, 4, 13, 20, 23, 25
    3    7 N      6, 11, 16, 17, 21
    4    1 H      26-42

      * Solvation model:               ALPB
        Solvent                        DMSO
        Solvent mass                       7.8130E+01 g/mol
          :  Hamiltonian                  GFN1-xTB          :
 * total energy  :   -83.5656908 Eh     change       -0.2237527E-08 Eh
 * total energy  :   -83.5792724 Eh     change       -0.1358160E-01 Eh
 * total energy  :   -83.5848037 Eh     change       -0.5531308E-02 Eh
 * total energy  :   -83.5859104 Eh     change       -0.1106735E-02 Eh
 * total energy  :   -83.5869486 Eh     change       -0.1038157E-02 Eh
 * total energy  :   -83.5876378 Eh     change       -0.6892554E-03 Eh
 * total energy  :   -83.5885088 Eh     change       -0.8709931E-03 Eh
 * total energy  :   -83.5889586 Eh     change       -0.4498351E-03 Eh
 * total energy  :   -83.5892297 Eh     change       -0.2710798E-03 Eh
 * total energy  :   -83.5893616 Eh     change       -0.1318476E-03 Eh
 * total energy  :   -83.5977543 Eh     change       -0.5929799E-05 Eh
 * total energy  :   -83.5977608 Eh     change       -0.6526510E-05 Eh
 * total energy  :   -83.5977677 Eh     change       -0.6876397E-05 Eh
 * total energy  :   -83.5977739 Eh     change       -0.6205584E-05 Eh
 * total energy  :   -83.5977795 Eh     change       -0.5632664E-05 Eh
 * total energy  :   -83.5977850 Eh     change       -0.5476050E-05 Eh
 * total energy  :   -83.5977905 Eh     change       -0.5489430E-05 Eh
 * total energy  :   -83.5977955 Eh     change       -0.5072007E-05 Eh
 * total energy  :   -83.5978000 Eh     change       -0.4422696E-05 Eh
   *** GEOMETRY OPTIMIZATION CONVERGED AFTER 105 ITERATIONS ***

 final structure:
================
42
 xtb: 6.5.1 (579679a)
C            7.09383089850836        0.40702842708142        0.22125406636901
O            5.86709865275984       -0.17216409656185        0.66053950446641
C            4.75683589033884        0.21112319477404       -0.02775892297316
O            4.84253940682966        0.99119975286043       -0.95936434527276
C            3.50420729180343       -0.38191078613937        0.46692240551996
N            2.39607026113519        0.06288085763793       -0.20314845739578
C            1.22233421195107       -0.39214150905312        0.18573011388779
C           -0.01568076506713        0.10161195084895       -0.55495529974615
C            0.37042159451000        1.12461352950403       -1.62578807462665
C           -0.71221674797755       -1.11563627867495       -1.19176601354799
N           -0.88470673890424        0.75028257253842        0.45772500688488
C           -2.24696810794356        0.98188565924729        0.06002096818055
O           -2.49002255017270        2.26550538982617       -0.49453202642028
C           -3.24599410473606        2.26451475153955       -1.68832483775160
C           -3.23793877048952        0.19186413080544        0.57113137904786
N           -3.05054600090510       -0.98966035533648        1.21655863512468
N           -4.31322062277877       -1.47193819352533        1.49450801768143
C           -5.17268934679376       -0.63621982513117        1.03348263656750
C           -6.65614408346432       -0.73185647812344        1.09886087252117
O           -4.59539116878022        0.45773713651745        0.42490789956907
N            0.99265906529028       -1.24818749928919        1.17950802896642
C            2.03317200144791       -1.75334461686726        1.89202823538440
O            1.86574845171746       -2.56392894354655        2.82501476310834
C            3.37231865811560       -1.28591635847782        1.50057880841333
O            4.40126663083414       -1.80743344246825        2.22677896577192
H            7.30446257833378        0.11694870746540       -0.81169796015165
H            7.87600007782146        0.03403818067378        0.87852380761875
H            7.04339590612876        1.49775134365762        0.28299525996229
H            0.83582392146355        1.99317588155789       -1.15789027671821
H            1.07973181885374        0.68588783679034       -2.32761209989818
H           -0.50937659159329        1.45301596506726       -2.17708600547674
H           -1.59421024245620       -0.79737752490455       -1.74878949114636
H           -0.02999952689663       -1.62300145267966       -1.87401147783492
H           -1.02107105389667       -1.81372168537249       -0.41100769583214
H           -0.90041187581974        0.12040319008020        1.26977697219169
H           -3.18993269262171        3.26908724762712       -2.11604182484773
H           -2.85262062105940        1.54375000121448       -2.41972154065705
H           -4.30063664274751        2.02162497179286       -1.49790578078015
H           -6.93496050128348       -1.63097301152802        1.64516026418051
H           -7.07797491251903        0.13759835698101        1.60606447039200
H           -7.08866417926499       -0.77710787678143        0.09801356945276
H            5.26345853036261       -1.49101210164956        1.92285847984691

          :  Hamiltonian                  GFN1-xTB          :
         :: total energy             -83.597799961263 Eh    ::
         :: gradient norm              0.000391525875 Eh/a0 ::
         :: HOMO-LUMO gap              0.187562246339 eV    ::
         :: SCC energy               -84.322300874826 Eh    ::
         :: -> Gsolv                  -0.280635688885 Eh    ::
         :: repulsion energy           0.750473831735 Eh    ::

    * Orbital Energies and Occupations

         #    Occupation            Energy/Eh            Energy/eV
      -------------------------------------------------------------
         1        2.0000           -0.8102007             -22.0467
       ...           ...                  ...                  ...
        56        2.0000           -0.4379642             -11.9176
        57        2.0000           -0.4199161             -11.4265
        58        2.0000           -0.4140367             -11.2665
        59        2.0000           -0.4138188             -11.2606
        60        2.0000           -0.4018809             -10.9357
        61        2.0000           -0.3907279             -10.6322
        62        2.0000           -0.3829890             -10.4217
        63        2.0000           -0.3796033             -10.3295
        64        2.0000           -0.3644915              -9.9183
        65        2.0000           -0.3602912              -9.8040
        66        2.0000           -0.3541019              -9.6356
        67        2.0000           -0.3531297              -9.6091
        68        1.9482           -0.2745059              -7.4697 (HOMO)
        69        0.0518           -0.2676131              -7.2821 (LUMO)
        70                         -0.2082692              -5.6673
        71                         -0.1796608              -4.8888
        72                         -0.1770198              -4.8170
        73                         -0.1336852              -3.6378
        74                         -0.1240690              -3.3761
        75                         -0.1130087              -3.0751
        76                         -0.1026386              -2.7929
        77                         -0.0912347              -2.4826
        78                         -0.0872278              -2.3736
        79                         -0.0837695              -2.2795
       ...                                ...                  ...
       134                          0.7366768              20.0460
      -------------------------------------------------------------
                  HL-Gap            0.0068928 Eh            0.1876 eV

Wiberg/Mayer (AO) data.
largest (>0.10) Wiberg bond orders for each atom

     #   Z sym  total        # sym  WBO       # sym  WBO       # sym  WBO
 ---------------------------------------------------------------------------
     1   6 C    3.885 --    27 H    0.987    26 H    0.981    28 H    0.981
                             2 O    0.909
     2   8 O    2.166 --     3 C    1.037     1 C    0.909     4 O    0.113
     3   6 C    3.802 --     4 O    1.622     5 C    1.052     2 O    1.037
     4   8 O    1.877 --     3 C    1.622     2 O    0.113
     5   6 C    3.953 --    24 C    1.452     6 N    1.204     3 C    1.052
     6   7 N    2.983 --     7 C    1.452     5 C    1.204
     7   6 C    3.950 --     6 N    1.452    21 N    1.364     8 C    0.974
     8   6 C    3.967 --     9 C    1.001    10 C    0.981     7 C    0.974
                            11 N    0.945
     9   6 C    3.997 --     8 C    1.001    30 H    0.987    29 H    0.985
                            31 H    0.983
    10   6 C    3.996 --    33 H    0.987    32 H    0.983    34 H    0.983
                             8 C    0.981
    11   7 N    3.012 --    12 C    0.983     8 C    0.945    35 H    0.938
    12   6 C    3.691 --    15 C    1.485    11 N    0.983    13 O    0.910
                            16 N    0.132
    13   8 O    2.000 --    14 C    0.957    12 C    0.910
    14   6 C    3.932 --    36 H    0.985    38 H    0.979    37 H    0.977
                            13 O    0.957
    15   6 C    3.864 --    12 C    1.485    16 N    1.270    20 O    0.955
    16   7 N    2.793 --    15 C    1.270    17 N    1.154    12 C    0.132
                            18 C    0.118
    17   7 N    2.988 --    18 C    1.673    16 N    1.154
    18   6 C    3.873 --    17 N    1.673    19 C    1.018    20 O    0.990
                            16 N    0.118
    19   6 C    3.996 --    18 C    1.018    39 H    0.987    40 H    0.976
                            41 H    0.975
    20   8 O    2.173 --    18 C    0.990    15 C    0.955
    21   7 N    2.977 --     7 C    1.364    22 C    1.241    23 O    0.124
    22   6 C    3.929 --    23 O    1.476    21 N    1.241    24 C    1.081
    23   8 O    1.760 --    22 C    1.476    21 N    0.124
    24   6 C    3.871 --     5 C    1.452    22 C    1.081    25 O    1.044
    25   8 O    2.027 --    24 C    1.044    42 H    0.830
    26   1 H    1.011 --     1 C    0.981
    27   1 H    1.013 --     1 C    0.987
    28   1 H    1.012 --     1 C    0.981
    29   1 H    1.022 --     9 C    0.985
    30   1 H    1.018 --     9 C    0.987
    31   1 H    1.012 --     9 C    0.983
    32   1 H    1.020 --    10 C    0.983
    33   1 H    1.008 --    10 C    0.987
    34   1 H    1.030 --    10 C    0.983
    35   1 H    1.007 --    11 N    0.938
    36   1 H    1.022 --    14 C    0.985
    37   1 H    1.027 --    14 C    0.977
    38   1 H    1.029 --    14 C    0.979
    39   1 H    1.008 --    19 C    0.987
    40   1 H    1.007 --    19 C    0.976
    41   1 H    1.007 --    19 C    0.975
    42   1 H    0.882 --    25 O    0.830
 ---------------------------------------------------------------------------

           -------------------------------------------------
          | TOTAL ENERGY              -83.597799961263 Eh   |
          | GRADIENT NORM               0.000391525875 Eh/α |
          | HOMO-LUMO GAP               0.187562246339 eV   |
           -------------------------------------------------

 * finished run on 2023/06/20 at 17:49:32.157
