   * xtb version 6.5.1 (579679a) compiled by 'ehlert@majestix' on 2022-07-11
          program call               : /lustre/hpc/kemi/ree/PhD/git/ReactivityQM/dep/xtb-6.5.1/bin/xtb --gfn 1 /lustre/hpc/kemi/ree/PhD/git/ReactivityQM/calculations/R02oxygendeprot/reac01prodN01/conf07/R02oxygendeprot_reac01prodN01_conf07_gfn1.xyz --opt --vfukui --chrg 0 --uhf 0 --alpb DMSO

   ID    Z sym.   atoms
    1    6 C      1, 3, 5, 7-10, 12, 14, 17, 18, 20, 22, 24
    2    8 O      2, 4, 13, 19, 23, 25
    3    7 N      6, 11, 15, 16, 21
    4    1 H      26-42

      * Solvation model:               ALPB
        Solvent                        DMSO
        Solvent mass                       7.8130E+01 g/mol
          :  Hamiltonian                  GFN1-xTB          :
 * total energy  :   -82.8808160 Eh     change       -0.2049205E-10 Eh
 * total energy  :   -82.8972964 Eh     change       -0.1648040E-01 Eh
 * total energy  :   -82.9049722 Eh     change       -0.7675777E-02 Eh
 * total energy  :   -82.9073663 Eh     change       -0.2394134E-02 Eh
 * total energy  :   -82.9092699 Eh     change       -0.1903606E-02 Eh
 * total energy  :   -82.9103066 Eh     change       -0.1036699E-02 Eh
 * total energy  :   -82.9109951 Eh     change       -0.6884820E-03 Eh
 * total energy  :   -82.9114292 Eh     change       -0.4340741E-03 Eh
 * total energy  :   -82.9117051 Eh     change       -0.2759404E-03 Eh
 * total energy  :   -82.9118914 Eh     change       -0.1862244E-03 Eh
 * total energy  :   -82.9132693 Eh     change       -0.5978635E-04 Eh
 * total energy  :   -82.9133392 Eh     change       -0.6994691E-04 Eh
 * total energy  :   -82.9133693 Eh     change       -0.3003306E-04 Eh
 * total energy  :   -82.9134060 Eh     change       -0.3675313E-04 Eh
 * total energy  :   -82.9134343 Eh     change       -0.2831860E-04 Eh
 * total energy  :   -82.9134585 Eh     change       -0.2416476E-04 Eh
 * total energy  :   -82.9134762 Eh     change       -0.1768128E-04 Eh
 * total energy  :   -82.9134841 Eh     change       -0.7899496E-05 Eh
 * total energy  :   -82.9134888 Eh     change       -0.4693633E-05 Eh
   *** GEOMETRY OPTIMIZATION CONVERGED AFTER 34 ITERATIONS ***

 final structure:
================
42
 xtb: 6.5.1 (579679a)
C            6.14560218903091        1.01844565576515        1.73846763938578
O            4.97445392224623        0.61989463697787        1.03749132723387
C            5.03993700886664        0.71188760748453       -0.32509823857390
O            6.05641803629936        1.11157396646301       -0.86845858941778
C            3.80614396133472        0.29109970454682       -0.97139176697175
N            2.79439154248444       -0.10021965872895       -0.11533580124894
C            1.66886491632111       -0.49489161122372       -0.57671984054837
C            0.56187364871081       -0.93686503005736        0.35395106575622
C            0.90818723442235       -0.56415327473108        1.79617820664244
C            0.32378609260769       -2.44533406165024        0.20716576741619
N           -0.66085708680694       -0.20982590064456       -0.06104535703488
C           -1.85219755982238       -0.38349007384146        0.50641656131622
O           -2.13569635170397       -1.11762497840035        1.43602739081373
C           -2.89278759802779        0.46512287865470       -0.15936669744636
N           -2.76914965636579        1.29195753219409       -1.12703264678431
N           -3.99808780526790        1.81850757273401       -1.41798144648766
C           -4.86540077930069        1.31090277112496       -0.62969297196359
C           -6.31510941014859        1.54837947515718       -0.55893623118370
O           -4.22981628720196        0.41116610552780        0.23596129436705
C           -4.78749121636217       -0.39960585760493        1.31998071517250
N            1.41193452798539       -0.56135204307617       -1.93423563166951
C            2.32041381934691       -0.19350009793613       -2.89877861329601
O            2.01200817855080       -0.27299973877396       -4.08337108665458
C            3.66071570512856        0.28963656603003       -2.38552261924735
O            4.52136228322434        0.63921451388906       -3.20948522098897
H            6.37385542271929        2.07157464950329        1.54419201767530
H            7.00409200857236        0.40833456722732        1.43883922799060
H            5.94407990545153        0.87529149640436        2.79912800642724
H            1.02279960403460        0.51539604853747        1.88333407901931
H            1.84957207586670       -1.04006669495199        2.06863330268288
H            0.12642270530179       -0.89907247028012        2.47373924549301
H            1.25211923063149       -2.97544942082562        0.41705751271002
H           -0.44049371637137       -2.78115916309788        0.90422029661695
H            0.00238941798686       -2.67695696683765       -0.80650270506848
H           -0.58846456713471        0.45418160421825       -0.81862830484496
H           -6.86084222743100        0.61982838123968       -0.72925742032310
H           -6.59325158911206        1.93299826594348        0.42246914073359
H           -6.58611372566118        2.27486867786465       -1.32338904710660
H           -4.61160303185230       -1.44398149624561        1.06899270756802
H           -4.26920255505232       -0.11860236226380        2.23485145513727
H           -5.84646531506657       -0.16790920661269        1.36939639702947
H            0.52160904156798       -0.89720356970280       -2.25626412032500

          :  Hamiltonian                  GFN1-xTB          :
         :: total energy             -82.913488781376 Eh    ::
         :: gradient norm              0.000901128773 Eh/a0 ::
         :: HOMO-LUMO gap              0.320897632009 eV    ::
         :: SCC energy               -83.697834092661 Eh    ::
         :: -> Gsolv                  -0.135203508635 Eh    ::
         :: repulsion energy           0.810072206893 Eh    ::

    * Orbital Energies and Occupations

         #    Occupation            Energy/Eh            Energy/eV
      -------------------------------------------------------------
         1        2.0000           -0.9651314             -26.2626
       ...           ...                  ...                  ...
        55        2.0000           -0.5065282             -13.7833
        56        2.0000           -0.5037219             -13.7070
        57        2.0000           -0.4991608             -13.5829
        58        2.0000           -0.4902386             -13.3401
        59        2.0000           -0.4832377             -13.1496
        60        2.0000           -0.4699740             -12.7886
        61        2.0000           -0.4683931             -12.7456
        62        2.0000           -0.4625623             -12.5870
        63        2.0000           -0.4474262             -12.1751
        64        2.0000           -0.4418285             -12.0228
        65        2.0000           -0.4250723             -11.5668
        66        2.0000           -0.3838768             -10.4458
        67        1.9960           -0.3724426             -10.1347 (HOMO)
        68        0.0040           -0.3606498              -9.8138 (LUMO)
        69                         -0.3109116              -8.4603
        70                         -0.2759153              -7.5080
        71                         -0.2486595              -6.7664
        72                         -0.2398739              -6.5273
        73                         -0.2019867              -5.4963
        74                         -0.1877902              -5.1100
        75                         -0.1738037              -4.7294
        76                         -0.1282316              -3.4894
        77                         -0.1253558              -3.4111
        78                         -0.1240866              -3.3766
       ...                                ...                  ...
       134                          0.7642648              20.7967
      -------------------------------------------------------------
                  HL-Gap            0.0117928 Eh            0.3209 eV

Wiberg/Mayer (AO) data.
largest (>0.10) Wiberg bond orders for each atom

     #   Z sym  total        # sym  WBO       # sym  WBO       # sym  WBO
 ---------------------------------------------------------------------------
     1   6 C    3.897 --    28 H    0.987    26 H    0.981    27 H    0.980
                             2 O    0.924
     2   8 O    2.139 --     3 C    1.030     1 C    0.924     4 O    0.110
     3   6 C    3.850 --     4 O    1.598     5 C    1.112     2 O    1.030
     4   8 O    1.873 --     3 C    1.598     2 O    0.110
     5   6 C    3.912 --    24 C    1.262     6 N    1.159     3 C    1.112
                            25 O    0.129
     6   7 N    3.033 --     7 C    1.635     5 C    1.159
     7   6 C    3.933 --     6 N    1.635    21 N    1.086     8 C    0.979
     8   6 C    3.911 --     9 C    0.993    10 C    0.982     7 C    0.979
                            11 N    0.889
     9   6 C    3.990 --     8 C    0.993    29 H    0.985    31 H    0.983
                            30 H    0.982
    10   6 C    3.987 --    34 H    0.984    32 H    0.984     8 C    0.982
                            33 H    0.980
    11   7 N    3.396 --    12 C    1.318    35 H    0.890     8 C    0.889
                            13 O    0.197
    12   6 C    3.928 --    13 O    1.572    11 N    1.318    14 C    0.965
    13   8 O    1.934 --    12 C    1.572    11 N    0.197
    14   6 C    3.795 --    15 N    1.704    12 C    0.965    19 O    0.885
    15   7 N    3.041 --    14 C    1.704    16 N    1.145
    16   7 N    3.024 --    17 C    1.699    15 N    1.145
    17   6 C    3.802 --    16 N    1.699    18 C    1.043    19 O    0.875
    18   6 C    3.970 --    17 C    1.043    38 H    0.970    37 H    0.951
                            36 H    0.951
    19   8 O    2.654 --    14 C    0.885    17 C    0.875    20 C    0.747
    20   6 C    3.724 --    41 H    0.975    40 H    0.968    39 H    0.968
                            19 O    0.747
    21   7 N    3.416 --    22 C    1.150     7 C    1.086    42 H    0.898
                            23 O    0.134
    22   6 C    3.874 --    23 O    1.589    21 N    1.150    24 C    0.964
    23   8 O    1.866 --    22 C    1.589    21 N    0.134
    24   6 C    3.941 --    25 O    1.533     5 C    1.262    22 C    0.964
    25   8 O    1.836 --    24 C    1.533     5 C    0.129
    26   1 H    1.013 --     1 C    0.981
    27   1 H    1.014 --     1 C    0.980
    28   1 H    1.016 --     1 C    0.987
    29   1 H    1.007 --     9 C    0.985
    30   1 H    1.012 --     9 C    0.982
    31   1 H    1.007 --     9 C    0.983
    32   1 H    1.001 --    10 C    0.984
    33   1 H    1.006 --    10 C    0.980
    34   1 H    1.001 --    10 C    0.984
    35   1 H    0.942 --    11 N    0.890
    36   1 H    0.988 --    18 C    0.951
    37   1 H    0.988 --    18 C    0.951
    38   1 H    0.989 --    18 C    0.970
    39   1 H    0.999 --    20 C    0.968
    40   1 H    1.000 --    20 C    0.968
    41   1 H    0.991 --    20 C    0.975
    42   1 H    0.944 --    21 N    0.898
 ---------------------------------------------------------------------------

           -------------------------------------------------
          | TOTAL ENERGY              -82.913488781376 Eh   |
          | GRADIENT NORM               0.000901128773 Eh/α |
          | HOMO-LUMO GAP               0.320897632009 eV   |
           -------------------------------------------------

 * finished run on 2023/06/21 at 17:17:08.003
