   * xtb version 6.5.1 (579679a) compiled by 'ehlert@majestix' on 2022-07-11
          program call               : /lustre/hpc/kemi/ree/PhD/git/ReactivityQM/dep/xtb-6.5.1/bin/xtb --gfn 1 /lustre/hpc/kemi/ree/PhD/git/ReactivityQM/calculations/R03/reac02prodN07/conf15/R03_reac02prodN07_conf15_gfn1.xyz --opt --vfukui --chrg 1 --uhf 0 --alpb DMSO

   ID    Z sym.   atoms
    1    6 C      1, 3, 5, 7-10, 12, 14, 17-19, 22, 23, 25
    2    8 O      2, 4, 13, 20, 24, 26
    3    7 N      6, 11, 15, 16, 21
    4    1 H      27-46

      * Solvation model:               ALPB
        Solvent                        DMSO
        Solvent mass                       7.8130E+01 g/mol
          :  Hamiltonian                  GFN1-xTB          :
 * total energy  :   -86.3355307 Eh     change       -0.2425793E-10 Eh
 * total energy  :   -86.3528070 Eh     change       -0.1727627E-01 Eh
 * total energy  :   -86.3584776 Eh     change       -0.5670629E-02 Eh
 * total energy  :   -86.3595382 Eh     change       -0.1060534E-02 Eh
 * total energy  :   -86.3602016 Eh     change       -0.6634607E-03 Eh
 * total energy  :   -86.3605195 Eh     change       -0.3178604E-03 Eh
 * total energy  :   -86.3608029 Eh     change       -0.2833708E-03 Eh
 * total energy  :   -86.3609696 Eh     change       -0.1666887E-03 Eh
 * total energy  :   -86.3610594 Eh     change       -0.8986958E-04 Eh
 * total energy  :   -86.3611098 Eh     change       -0.5033588E-04 Eh
 * total energy  :   -86.3612303 Eh     change       -0.2942847E-04 Eh
 * total energy  :   -86.3612519 Eh     change       -0.2153892E-04 Eh
 * total energy  :   -86.3612456 Eh     change        0.6239354E-05 Eh
 * total energy  :   -86.3612625 Eh     change       -0.1693304E-04 Eh
 * total energy  :   -86.3612751 Eh     change       -0.1258618E-04 Eh
 * total energy  :   -86.3612831 Eh     change       -0.7925221E-05 Eh
 * total energy  :   -86.3612944 Eh     change       -0.1131286E-04 Eh
 * total energy  :   -86.3613019 Eh     change       -0.7534892E-05 Eh
 * total energy  :   -86.3613052 Eh     change       -0.3328601E-05 Eh
   *** GEOMETRY OPTIMIZATION CONVERGED AFTER 21 ITERATIONS ***

 final structure:
================
46
 xtb: 6.5.1 (579679a)
C           -5.54041490274985        2.57374790840293        1.63217386443265
O           -4.54372739199210        1.69604255089187        1.09864999809173
C           -4.73020313936936        1.27913345601223       -0.15474849141597
O           -5.68581188537480        1.59584274740510       -0.82315944433040
C           -3.62615092157059        0.38843345455845       -0.61790710760867
N           -2.61589217634122        0.15606036631743        0.27480464952649
C           -1.60399393159521       -0.59084456866045       -0.02053024068238
C           -0.58374117400659       -0.79427702298098        1.09148005518182
C           -0.64077846681659       -2.24325011445637        1.59422713150618
C           -0.88385429975433        0.17358837699874        2.24389113549411
N            0.75287611408400       -0.45846724182536        0.56178224832933
C            1.88539909668370       -0.65376227896070        1.25625163722295
O            2.00802007307086       -1.20090245603664        2.32834384963921
C            3.07375274681359       -0.10832749934019        0.50907481068917
N            3.08016492212599        0.51852209936766       -0.62961833175550
N            4.37550377636352        0.80120250426572       -0.86211602789473
C            4.76131095905427        1.51061324101824       -2.06540965286087
C            5.11844114466260        0.34615665702762        0.12736590599082
C            6.57639805250304        0.43278961648639        0.30523788559363
O            4.31895418773043       -0.22867892776596        1.00052618574894
N           -1.48904200532105       -1.20517717992179       -1.24262917361773
C           -0.39835558602257       -2.08688097614624       -1.66123270288825
C           -2.45821101189514       -1.03975597324928       -2.21823858999039
O           -2.37457090150047       -1.58210231832679       -3.31406147637969
C           -3.57989923702227       -0.18380306372753       -1.85920269553734
O           -4.51075989157477       -0.02466761837203       -2.80265123187711
H           -6.51187262341234        2.07365443570038        1.65100399359503
H           -5.22420825694954        2.82450586521749        2.64259916019675
H           -5.60953299903716        3.47726205697850        1.02096949176183
H           -1.68102464757869       -2.50713677664219        1.78396399571397
H           -0.22962381638206       -2.93324969490286        0.86164530050089
H           -0.07861843199230       -2.34322572280384        2.52088651997949
H           -1.87081776110852       -0.03727873930972        2.65209990523378
H           -0.86212765557254        1.20017426998284        1.88272848002639
H           -0.13684790837100        0.05144647955944        3.02566700063888
H            0.79721896133073        0.12501245907690       -0.25691962978787
H            3.86040870104834        1.69723742459543       -2.64362749744582
H            5.45918850119537        0.89470568408195       -2.63044109198451
H            5.23864819478261        2.44819878628309       -1.78473390174141
H            7.08398186909975        0.13949019695676       -0.61355274208137
H            6.85803198199735        1.46408764165119        0.52931277991862
H            6.88213299871726       -0.21084323698946        1.12817718813714
H           -0.09028181006428       -1.78426565960923       -2.66181541766974
H           -0.76781563764580       -3.11215738833167       -1.69783261814264
H            0.44164689584866       -2.01391377542955       -0.98358189412877
H           -4.24390270607321       -0.52493804503949       -3.59596921331157

          :  Hamiltonian                  GFN1-xTB          :
         :: total energy             -86.361305231571 Eh    ::
         :: gradient norm              0.000782838313 Eh/a0 ::
         :: HOMO-LUMO gap              2.003302901549 eV    ::
         :: SCC energy               -87.206415747359 Eh    ::
         :: -> Gsolv                  -0.128359242772 Eh    ::
         :: repulsion energy           0.873518831604 Eh    ::

    * Orbital Energies and Occupations

         #    Occupation            Energy/Eh            Energy/eV
      -------------------------------------------------------------
         1        2.0000           -0.9400337             -25.5796
       ...           ...                  ...                  ...
        58        2.0000           -0.5275133             -14.3544
        59        2.0000           -0.5228913             -14.2286
        60        2.0000           -0.5198370             -14.1455
        61        2.0000           -0.5173652             -14.0782
        62        2.0000           -0.5135471             -13.9743
        63        2.0000           -0.4998257             -13.6010
        64        2.0000           -0.4956005             -13.4860
        65        2.0000           -0.4891990             -13.3118
        66        2.0000           -0.4832665             -13.1504
        67        2.0000           -0.4790212             -13.0348
        68        2.0000           -0.4668751             -12.7043
        69        2.0000           -0.4540929             -12.3565
        70        2.0000           -0.4368287             -11.8867 (HOMO)
        71                         -0.3632087              -9.8834 (LUMO)
        72                         -0.3468435              -9.4381
        73                         -0.3295743              -8.9682
        74                         -0.2940619              -8.0018
        75                         -0.2465385              -6.7087
        76                         -0.2456190              -6.6836
        77                         -0.1855383              -5.0488
        78                         -0.1730343              -4.7085
        79                         -0.1641190              -4.4659
        80                         -0.1507728              -4.1027
        81                         -0.1404855              -3.8228
       ...                                ...                  ...
       144                          0.7374106              20.0660
      -------------------------------------------------------------
                  HL-Gap            0.0736200 Eh            2.0033 eV

Wiberg/Mayer (AO) data.
largest (>0.10) Wiberg bond orders for each atom

     #   Z sym  total        # sym  WBO       # sym  WBO       # sym  WBO
 ---------------------------------------------------------------------------
     1   6 C    3.871 --    28 H    0.986    29 H    0.979    27 H    0.979
                             2 O    0.897
     2   8 O    2.200 --     3 C    1.112     1 C    0.897     4 O    0.135
     3   6 C    3.852 --     4 O    1.663     2 O    1.112     5 C    0.998
     4   8 O    1.927 --     3 C    1.663     2 O    0.135
     5   6 C    3.962 --    25 C    1.490     6 N    1.186     3 C    0.998
     6   7 N    3.034 --     7 C    1.579     5 C    1.186
     7   6 C    3.934 --     6 N    1.579    21 N    1.166     8 C    0.976
     8   6 C    3.918 --    10 C    0.989     9 C    0.983     7 C    0.976
                            11 N    0.903
     9   6 C    3.986 --    30 H    0.983     8 C    0.983    31 H    0.981
                            32 H    0.977
    10   6 C    3.987 --     8 C    0.989    34 H    0.984    35 H    0.983
                            33 H    0.982
    11   7 N    3.373 --    12 C    1.275     8 C    0.903    36 H    0.893
                            13 O    0.195
    12   6 C    3.924 --    13 O    1.623    11 N    1.275    14 C    0.953
    13   8 O    1.950 --    12 C    1.623    11 N    0.195
    14   6 C    3.843 --    15 N    1.607    20 O    1.068    12 C    0.953
    15   7 N    2.993 --    14 C    1.607    16 N    1.152
    16   7 N    3.630 --    18 C    1.420    15 N    1.152    17 C    0.908
    17   6 C    3.883 --    37 H    0.978    39 H    0.968    38 H    0.968
                            16 N    0.908
    18   6 C    3.841 --    16 N    1.420    20 O    1.156    19 C    1.042
    19   6 C    3.960 --    18 C    1.042    42 H    0.971    40 H    0.953
                            41 H    0.937
    20   8 O    2.392 --    18 C    1.156    14 C    1.068
    21   7 N    3.507 --     7 C    1.166    23 C    1.127    22 C    0.927
                            24 O    0.135
    22   6 C    3.919 --    45 H    0.979    43 H    0.974    44 H    0.974
                            21 N    0.927
    23   6 C    3.913 --    24 O    1.563    21 N    1.127    25 C    1.073
    24   8 O    1.906 --    23 C    1.563    21 N    0.135
    25   6 C    3.922 --     5 C    1.490    26 O    1.115    23 C    1.073
    26   8 O    2.093 --    25 C    1.115    46 H    0.805
    27   1 H    1.007 --     1 C    0.979
    28   1 H    1.011 --     1 C    0.986
    29   1 H    1.007 --     1 C    0.979
    30   1 H    1.000 --     9 C    0.983
    31   1 H    1.000 --     9 C    0.981
    32   1 H    1.007 --     9 C    0.977
    33   1 H    1.009 --    10 C    0.982
    34   1 H    1.007 --    10 C    0.984
    35   1 H    1.003 --    10 C    0.983
    36   1 H    0.938 --    11 N    0.893
    37   1 H    0.992 --    17 C    0.978
    38   1 H    0.989 --    17 C    0.968
    39   1 H    0.989 --    17 C    0.968
    40   1 H    0.986 --    19 C    0.953
    41   1 H    0.985 --    19 C    0.937
    42   1 H    0.985 --    19 C    0.971
    43   1 H    1.004 --    22 C    0.974
    44   1 H    1.000 --    22 C    0.974
    45   1 H    1.007 --    22 C    0.979
    46   1 H    0.845 --    26 O    0.805
 ---------------------------------------------------------------------------

           -------------------------------------------------
          | TOTAL ENERGY              -86.361305231571 Eh   |
          | GRADIENT NORM               0.000782838313 Eh/α |
          | HOMO-LUMO GAP               2.003302901549 eV   |
           -------------------------------------------------

 * finished run on 2023/06/20 at 15:42:14.167
