   * xtb version 6.5.1 (579679a) compiled by 'ehlert@majestix' on 2022-07-11
          program call               : /lustre/hpc/kemi/ree/PhD/git/ReactivityQM/dep/xtb-6.5.1/bin/xtb --gfn 1 /lustre/hpc/kemi/ree/PhD/git/ReactivityQM/calculations/RaltegravirCLI/reac02prodN06/conf08/RaltegravirCLI_reac02prodN06_conf08_gfn1.xyz --opt --vfukui --chrg 1 --uhf 0 --alpb DMSO

   ID    Z sym.   atoms
    1    6 C      1, 3, 5, 7-9, 12-16, 18, 19, 21-24
    2    7 N      2, 11, 20, 25
    3    8 O      4, 6, 10
    4    9 F      17
    5    1 H      26-47

      * Solvation model:               ALPB
        Solvent                        DMSO
        Solvent mass                       7.8130E+01 g/mol
          :  Hamiltonian                  GFN1-xTB          :
 * total energy  :   -79.4639856 Eh     change       -0.3430827E-08 Eh
 * total energy  :   -79.4795032 Eh     change       -0.1551762E-01 Eh
 * total energy  :   -79.4855646 Eh     change       -0.6061340E-02 Eh
 * total energy  :   -79.4870448 Eh     change       -0.1480253E-02 Eh
 * total energy  :   -79.4883810 Eh     change       -0.1336183E-02 Eh
 * total energy  :   -79.4889003 Eh     change       -0.5193175E-03 Eh
 * total energy  :   -79.4893971 Eh     change       -0.4967905E-03 Eh
 * total energy  :   -79.4898751 Eh     change       -0.4779835E-03 Eh
 * total energy  :   -79.4902773 Eh     change       -0.4021838E-03 Eh
 * total energy  :   -79.4905502 Eh     change       -0.2729632E-03 Eh
 * total energy  :   -79.4927025 Eh     change       -0.6210785E-05 Eh
 * total energy  :   -79.4927147 Eh     change       -0.1217392E-04 Eh
 * total energy  :   -79.4927198 Eh     change       -0.5082015E-05 Eh
 * total energy  :   -79.4927277 Eh     change       -0.7929772E-05 Eh
 * total energy  :   -79.4927344 Eh     change       -0.6687708E-05 Eh
 * total energy  :   -79.4927428 Eh     change       -0.8343899E-05 Eh
 * total energy  :   -79.4927525 Eh     change       -0.9724957E-05 Eh
 * total energy  :   -79.4927597 Eh     change       -0.7208125E-05 Eh
 * total energy  :   -79.4927643 Eh     change       -0.4640102E-05 Eh
   *** GEOMETRY OPTIMIZATION CONVERGED AFTER 50 ITERATIONS ***

 final structure:
================
47
 xtb: 6.5.1 (579679a)
C           -3.67263036544818       -2.13293997892370       -0.78282628826702
N           -2.56842163067123       -1.46876053327731       -0.08064934538916
C           -1.72816042382228       -2.33425720082860        0.55904091354882
O           -1.87966342817596       -3.54362559395848        0.59679186820051
C           -0.58346765775024       -1.71143193421721        1.25066598032681
O            0.22639534805415       -2.49583676882408        1.88705959003956
C           -0.31211559160133       -0.32093493114583        1.07577158815027
C            0.50752702360194        0.43877557511533        2.10739306515485
C            0.66332419394694       -0.59574260515924       -0.29642607565154
O            0.19270398919487       -0.35749191431938       -1.36594031119963
N            1.85643339955361       -1.01801428068077        0.04497128177327
C            2.94470630798307       -1.08155095700471       -0.94310167179547
C            3.97677723760402       -0.01934845954834       -0.64641773697122
C            5.32173948340756       -0.36375787247780       -0.53820552815334
C            6.27682445060772        0.60794620326742       -0.27386561858593
C            5.85687142354773        1.91668099317737       -0.11641733586404
F            6.77108268712759        2.85885700722038        0.14416475027212
C            4.52763226725235        2.29057055055049       -0.21392887929763
C            3.58629080431271        1.30867039126833       -0.48375495114816
N           -1.38725652331261        0.43934406285938        0.59291336113200
C           -2.40507003853324       -0.09039646267723        0.01414789164842
C           -3.47388653288071        0.87707694703377       -0.47944385868624
C           -2.93570361717904        2.31346776603008       -0.38664827406921
C           -4.72216441235236        0.73870367636910        0.40348469158141
N           -3.82088001385721        0.57072744827446       -1.86278555158433
H           -3.27049033451125       -3.02015437953851       -1.27188572549314
H           -4.42438600239973       -2.43687242778080       -0.05469885061938
H           -4.09923530217385       -1.45392334714230       -1.51640911534012
H           -0.04412879565906       -3.43865501686563        1.81500737843287
H            1.00276251833906        1.28729270367457        1.64011059739362
H            1.24516676642725       -0.20869109920130        2.57404814600931
H           -0.17490106348657        0.80880428212617        2.87169614082820
H            2.08799192707325       -1.26916697748694        0.99185861835904
H            3.38052125206254       -2.08110848172767       -0.88443757045624
H            2.49847572563516       -0.93903916416426       -1.93110896757935
H            5.62696569497276       -1.39595966679794       -0.66058224570384
H            7.32508145097741        0.35374483482295       -0.18523859883857
H            4.23731890947398        3.32426005431523       -0.07909388638457
H            2.53890028110003        1.57503084075237       -0.55838797608754
H           -3.68226790267204        3.00099449487198       -0.78042825816153
H           -2.72013519487462        2.57433129849536        0.64821087109790
H           -2.02159782450954        2.40842673840190       -0.97059125405333
H           -4.46049912881431        0.90484392530859        1.44748055387745
H           -5.45866231475272        1.48213746559774        0.10175964746932
H           -5.16607339577025       -0.24907742441348        0.30323516969499
H           -4.60185874072538        1.15063662879410       -2.13794090407317
H           -3.03783490632378        0.79541258983362       -2.46347132553929

          :  Hamiltonian                  GFN1-xTB          :
         :: total energy             -79.492764334621 Eh    ::
         :: gradient norm              0.000414973915 Eh/a0 ::
         :: HOMO-LUMO gap              0.659776369967 eV    ::
         :: SCC energy               -80.394984793500 Eh    ::
         :: -> Gsolv                  -0.102007527706 Eh    ::
         :: repulsion energy           0.934059008623 Eh    ::

    * Orbital Energies and Occupations

         #    Occupation            Energy/Eh            Energy/eV
      -------------------------------------------------------------
         1        2.0000           -0.8955507             -24.3692
       ...           ...                  ...                  ...
        55        2.0000           -0.5195924             -14.1388
        56        2.0000           -0.5155745             -14.0295
        57        2.0000           -0.5141907             -13.9918
        58        2.0000           -0.5090320             -13.8515
        59        2.0000           -0.4973440             -13.5334
        60        2.0000           -0.4943349             -13.4515
        61        2.0000           -0.4927372             -13.4081
        62        2.0000           -0.4866913             -13.2435
        63        2.0000           -0.4799529             -13.0602
        64        2.0000           -0.4723463             -12.8532
        65        2.0000           -0.4651691             -12.6579
        66        2.0000           -0.4514958             -12.2858
        67        2.0000           -0.4269018             -11.6166 (HOMO)
        68        0.0000           -0.4026555             -10.9568 (LUMO)
        69                         -0.3201120              -8.7107
        70                         -0.2922824              -7.9534
        71                         -0.2870631              -7.8114
        72                         -0.2808131              -7.6413
        73                         -0.2535446              -6.8993
        74                         -0.1612880              -4.3889
        75                         -0.1589397              -4.3250
        76                         -0.1502502              -4.0885
        77                         -0.1457081              -3.9649
        78                         -0.1416552              -3.8546
       ...                                ...                  ...
       144                          0.7493523              20.3909
      -------------------------------------------------------------
                  HL-Gap            0.0242463 Eh            0.6598 eV

Wiberg/Mayer (AO) data.
largest (>0.10) Wiberg bond orders for each atom

     #   Z sym  total        # sym  WBO       # sym  WBO       # sym  WBO
 ---------------------------------------------------------------------------
     1   6 C    3.897 --    26 H    0.973    27 H    0.968    28 H    0.962
                             2 N    0.914
     2   7 N    3.533 --     3 C    1.192    21 C    1.106     1 C    0.914
                             4 O    0.164
     3   6 C    3.928 --     4 O    1.590     2 N    1.192     5 C    1.011
     4   8 O    1.943 --     3 C    1.590     2 N    0.164
     5   6 C    3.847 --     6 O    1.265     7 C    1.153     3 C    1.011
                             9 C    0.114
     6   8 O    2.219 --     5 C    1.265    29 H    0.756
     7   6 C    3.959 --     5 C    1.153    20 N    1.064     8 C    0.977
                             9 C    0.590
     8   6 C    3.977 --    31 H    0.980    30 H    0.980     7 C    0.977
                            32 H    0.968
     9   6 C    3.905 --    10 O    1.702    11 N    1.374     7 C    0.590
                             5 C    0.114
    10   8 O    2.084 --     9 C    1.702    11 N    0.183
    11   7 N    3.406 --     9 C    1.374    12 C    0.893    33 H    0.882
                            10 O    0.183
    12   6 C    3.906 --    13 C    0.996    34 H    0.967    35 H    0.964
                            11 N    0.893
    13   6 C    3.986 --    14 C    1.419    19 C    1.413    12 C    0.996
    14   6 C    3.992 --    15 C    1.442    13 C    1.419    36 H    0.969
                            18 C    0.109
    15   6 C    3.991 --    14 C    1.442    16 C    1.400    37 H    0.968
                            19 C    0.110
    16   6 C    3.864 --    15 C    1.400    18 C    1.395    17 F    0.935
    17   9 F    1.066 --    16 C    0.935
    18   6 C    3.991 --    19 C    1.449    16 C    1.395    38 H    0.968
                            14 C    0.109
    19   6 C    3.994 --    18 C    1.449    13 C    1.413    39 H    0.971
                            15 C    0.110
    20   7 N    3.032 --    21 C    1.655     7 C    1.064
    21   6 C    3.902 --    20 N    1.655     2 N    1.106    22 C    0.973
    22   6 C    3.961 --    23 C    0.991    25 N    0.983    24 C    0.979
                            21 C    0.973
    23   6 C    3.993 --    22 C    0.991    40 H    0.984    42 H    0.984
                            41 H    0.983
    24   6 C    3.991 --    43 H    0.985    45 H    0.982    44 H    0.981
                            22 C    0.979
    25   7 N    3.000 --    22 C    0.983    47 H    0.938    46 H    0.934
    26   1 H    1.001 --     1 C    0.973
    27   1 H    0.998 --     1 C    0.968
    28   1 H    1.025 --     1 C    0.962
    29   1 H    0.801 --     6 O    0.756
    30   1 H    1.000 --     8 C    0.980
    31   1 H    0.996 --     8 C    0.980
    32   1 H    0.996 --     8 C    0.968
    33   1 H    0.930 --    11 N    0.882
    34   1 H    0.997 --    12 C    0.967
    35   1 H    1.000 --    12 C    0.964
    36   1 H    0.997 --    14 C    0.969
    37   1 H    0.996 --    15 C    0.968
    38   1 H    0.996 --    18 C    0.968
    39   1 H    0.999 --    19 C    0.971
    40   1 H    1.002 --    23 C    0.984
    41   1 H    1.008 --    23 C    0.983
    42   1 H    1.007 --    23 C    0.984
    43   1 H    1.001 --    24 C    0.985
    44   1 H    0.998 --    24 C    0.981
    45   1 H    1.002 --    24 C    0.982
    46   1 H    0.948 --    25 N    0.934
    47   1 H    0.952 --    25 N    0.938
 ---------------------------------------------------------------------------

           -------------------------------------------------
          | TOTAL ENERGY              -79.492764334621 Eh   |
          | GRADIENT NORM               0.000414973915 Eh/α |
          | HOMO-LUMO GAP               0.659776369967 eV   |
           -------------------------------------------------

 * finished run on 2023/06/20 at 15:23:29.896
