   * xtb version 6.5.1 (579679a) compiled by 'ehlert@majestix' on 2022-07-11
          program call               : /lustre/hpc/kemi/ree/PhD/git/ReactivityQM/dep/xtb-6.5.1/bin/xtb --gfn 1 /lustre/hpc/kemi/ree/PhD/git/ReactivityQM/calculations/RaltegravirCLI/reac01prodN02/conf05/RaltegravirCLI_reac01prodN02_conf05_gfn1.xyz --opt --vfukui --chrg 1 --uhf 0 --alpb DMSO

   ID    Z sym.   atoms
    1    6 C      1, 2, 4, 5, 10
    2    8 O      3, 6
    3   17 Cl     7
    4    7 N      8, 9
    5    1 H      11-16

      * Solvation model:               ALPB
        Solvent                        DMSO
        Solvent mass                       7.8130E+01 g/mol
          :  Hamiltonian                  GFN1-xTB          :
 * total energy  :   -33.4328510 Eh     change       -0.1357137E-11 Eh
 * total energy  :   -33.4385575 Eh     change       -0.5706472E-02 Eh
 * total energy  :   -33.4401879 Eh     change       -0.1630405E-02 Eh
 * total energy  :   -33.4403151 Eh     change       -0.1271905E-03 Eh
 * total energy  :   -33.4403939 Eh     change       -0.7883808E-04 Eh
 * total energy  :   -33.4404013 Eh     change       -0.7419589E-05 Eh
 * total energy  :   -33.4404042 Eh     change       -0.2888784E-05 Eh
   *** GEOMETRY OPTIMIZATION CONVERGED AFTER 7 ITERATIONS ***

 final structure:
================
16
 xtb: 6.5.1 (579679a)
C           -1.91183616693036       -1.08949670745782        0.01075864322114
C           -0.54484910655615       -0.55154751197336        0.05253742572981
O            0.51948769700002       -1.30167933218835        0.22857732139821
C            1.57461800855924       -0.46474932610632        0.23044844938697
C            2.96132972603807       -0.99251531732514        0.41388470236400
O            3.18907101831167       -2.15059373286035        0.56919058051061
Cl           4.14947941550458        0.22752831540984        0.37256872508890
N            1.19224686974102        0.76619281045479        0.06078258425998
N           -0.14260648511030        0.70287671498326       -0.04941432246926
C           -0.91602702277277        1.91250218485708       -0.24777552590097
H           -2.50454224033994       -0.56006100565150       -0.73392349466570
H           -1.88008862914432       -2.15537820688158       -0.21080341113967
H           -2.38633231381556       -0.94574304805539        0.98476517204927
H           -1.61372324892567        2.02375544370184        0.58045124073718
H           -0.22255935072981        2.74873722626963       -0.28088558847161
H           -1.46367017082973        1.83017249282338       -1.18522350209883

          :  Hamiltonian                  GFN1-xTB          :
         :: total energy             -33.440404225636 Eh    ::
         :: gradient norm              0.000652421574 Eh/a0 ::
         :: HOMO-LUMO gap              3.238586714004 eV    ::
         :: SCC energy               -33.735839010709 Eh    ::
         :: -> Gsolv                  -0.089603996227 Eh    ::
         :: repulsion energy           0.302610901427 Eh    ::

    * Orbital Energies and Occupations

         #    Occupation            Energy/Eh            Energy/eV
      -------------------------------------------------------------
         1        2.0000           -0.9823456             -26.7310
       ...           ...                  ...                  ...
        15        2.0000           -0.6356205             -17.2961
        16        2.0000           -0.6321611             -17.2020
        17        2.0000           -0.6198046             -16.8657
        18        2.0000           -0.6152856             -16.7428
        19        2.0000           -0.5965265             -16.2323
        20        2.0000           -0.5830570             -15.8658
        21        2.0000           -0.5760052             -15.6739
        22        2.0000           -0.5715170             -15.5518
        23        2.0000           -0.5588281             -15.2065
        24        2.0000           -0.5324057             -14.4875
        25        2.0000           -0.5221753             -14.2091
        26        2.0000           -0.5181922             -14.1007
        27        2.0000           -0.5085861             -13.8393 (HOMO)
        28                         -0.3895703             -10.6007 (LUMO)
        29                         -0.3539718              -9.6321
        30                         -0.2838751              -7.7246
        31                         -0.2394065              -6.5146
        32                         -0.1880305              -5.1166
        33                         -0.1757971              -4.7837
        34                         -0.1262474              -3.4354
        35                         -0.1163289              -3.1655
        36                         -0.1090346              -2.9670
        37                         -0.1078875              -2.9358
        38                         -0.1075210              -2.9258
       ...                                ...                  ...
        57                          0.7210119              19.6197
      -------------------------------------------------------------
                  HL-Gap            0.1190159 Eh            3.2386 eV

Wiberg/Mayer (AO) data.
largest (>0.10) Wiberg bond orders for each atom

     #   Z sym  total        # sym  WBO       # sym  WBO       # sym  WBO
 ---------------------------------------------------------------------------
     1   6 C    3.957 --     2 C    1.045    12 H    0.966    11 H    0.958
                            13 H    0.929
     2   6 C    3.837 --     9 N    1.404     3 O    1.163     1 C    1.045
     3   8 O    2.397 --     2 C    1.163     4 C    1.062
     4   6 C    3.859 --     8 N    1.603     3 O    1.062     5 C    0.981
     5   6 C    3.901 --     6 O    1.795     7 Cl   1.083     4 C    0.981
     6   8 O    2.067 --     5 C    1.795     7 Cl   0.174
     7  17 Cl   1.313 --     5 C    1.083     6 O    0.174
     8   7 N    2.994 --     4 C    1.603     9 N    1.171
     9   7 N    3.632 --     2 C    1.404     8 N    1.171    10 C    0.905
    10   6 C    3.877 --    15 H    0.977    14 H    0.968    16 H    0.967
                             9 N    0.905
    11   1 H    0.985 --     1 C    0.958
    12   1 H    0.984 --     1 C    0.966
    13   1 H    0.982 --     1 C    0.929
    14   1 H    0.988 --    10 C    0.968
    15   1 H    0.991 --    10 C    0.977
    16   1 H    0.988 --    10 C    0.967
 ---------------------------------------------------------------------------

           -------------------------------------------------
          | TOTAL ENERGY              -33.440404225636 Eh   |
          | GRADIENT NORM               0.000652421574 Eh/α |
          | HOMO-LUMO GAP               3.238586714004 eV   |
           -------------------------------------------------

 * finished run on 2023/06/20 at 14:54:30.873
