   * xtb version 6.5.1 (579679a) compiled by 'ehlert@majestix' on 2022-07-11
          program call               : /lustre/hpc/kemi/ree/PhD/git/ReactivityQM/dep/xtb-6.5.1/bin/xtb --gfn 1 /lustre/hpc/kemi/ree/PhD/git/ReactivityQM/calculations/R01/reac02prodE05/conf16/R01_reac02prodE05_conf16_gfn1.xyz --opt --vfukui --chrg -1 --uhf 0 --alpb DMSO

   ID    Z sym.   atoms
    1    6 C      1, 3, 5, 6, 8, 11-15
    2    8 O      2, 4, 7, 9
    3    7 N      10, 16, 17
    4    1 H      18-33

      * Solvation model:               ALPB
        Solvent                        DMSO
        Solvent mass                       7.8130E+01 g/mol
          :  Hamiltonian                  GFN1-xTB          :
 * total energy  :   -58.5470401 Eh     change       -0.6608047E-11 Eh
 * total energy  :   -58.5547214 Eh     change       -0.7681335E-02 Eh
 * total energy  :   -58.5567591 Eh     change       -0.2037694E-02 Eh
 * total energy  :   -58.5570820 Eh     change       -0.3229155E-03 Eh
 * total energy  :   -58.5573079 Eh     change       -0.2258874E-03 Eh
 * total energy  :   -58.5573847 Eh     change       -0.7682740E-04 Eh
 * total energy  :   -58.5574453 Eh     change       -0.6052167E-04 Eh
 * total energy  :   -58.5574744 Eh     change       -0.2913092E-04 Eh
 * total energy  :   -58.5574938 Eh     change       -0.1935203E-04 Eh
 * total energy  :   -58.5575103 Eh     change       -0.1659472E-04 Eh
 * total energy  :   -58.5576123 Eh     change       -0.1281803E-04 Eh
 * total energy  :   -58.5576226 Eh     change       -0.1025576E-04 Eh
 * total energy  :   -58.5576341 Eh     change       -0.1153078E-04 Eh
 * total energy  :   -58.5576428 Eh     change       -0.8688591E-05 Eh
 * total energy  :   -58.5576507 Eh     change       -0.7935879E-05 Eh
 * total energy  :   -58.5576596 Eh     change       -0.8895705E-05 Eh
 * total energy  :   -58.5576668 Eh     change       -0.7155485E-05 Eh
 * total energy  :   -58.5576718 Eh     change       -0.5046812E-05 Eh
 * total energy  :   -58.5576759 Eh     change       -0.4024893E-05 Eh
   *** GEOMETRY OPTIMIZATION CONVERGED AFTER 27 ITERATIONS ***

 final structure:
================
33
 xtb: 6.5.1 (579679a)
C            4.91566783245299        1.02423820116504       -0.27082408402498
O            3.76291165789574        0.19266446429535       -0.21149653658271
C            2.57287976832198        0.81717425269979       -0.28658332396883
O            2.50653003255398        2.02880088071992       -0.39001948563522
C            1.39032376428114       -0.08757243014382       -0.21698659727549
C            1.47618884341890       -1.47910397532359       -0.29842345699341
O            2.65885299985190       -2.16409515505270       -0.59994127781405
C            0.33740302817616       -2.27812396693797       -0.01843295502097
O            0.34305070411809       -3.52566205860642        0.00101514862507
N           -0.80341011933112       -1.57335296811683        0.35760314403674
C           -0.98196822294115       -0.19965103943014       -0.11737383940621
C           -1.45942768780436       -0.22888087510861       -1.59120302918703
C           -2.00531797946025        0.50806617089074        0.83237177780093
C           -2.12656629301955        1.99784862018129        0.48478106838954
C           -3.39636826550028       -0.13337404958584        0.81299316125059
N           -1.48428959099677        0.40980956789764        2.19913178570560
N            0.24657758035198        0.56521708598470       -0.04636497060033
H            4.96737197777318        1.54062090666783       -1.23440246327210
H            5.78322479573252        0.37696778175606       -0.15014761422840
H            4.89372954170352        1.77053033846275        0.52929353485513
H            2.43321930566113       -3.10815825324757       -0.57109182215552
H           -1.64092230599251       -2.13584268215430        0.32232146030252
H           -1.60543253563162        0.78462827283764       -1.95986898914336
H           -2.39014617168552       -0.78438875473725       -1.68581765419799
H           -0.70122174628002       -0.71679144728211       -2.20395333639455
H           -2.67249583074837        2.13762290121134       -0.44777576503590
H           -2.66370085985181        2.51452200724590        1.28100516420083
H           -1.13482473748759        2.44170773947725        0.38271442682037
H           -3.34476125069126       -1.19794547332474        1.03735365161632
H           -4.02154855202683        0.34161325908417        1.57004735420152
H           -3.87441785493797       -0.00414958214441       -0.15690890332262
H           -1.46220844945812       -0.57116603144815        2.45918497186709
H           -0.51890337844784        0.73622429206695        2.18396345458686

          :  Hamiltonian                  GFN1-xTB          :
         :: total energy             -58.557675868819 Eh    ::
         :: gradient norm              0.000575675151 Eh/a0 ::
         :: HOMO-LUMO gap              1.383317006308 eV    ::
         :: SCC energy               -59.091652786071 Eh    ::
         :: -> Gsolv                  -0.096729669203 Eh    ::
         :: repulsion energy           0.553942112930 Eh    ::

    * Orbital Energies and Occupations

         #    Occupation            Energy/Eh            Energy/eV
      -------------------------------------------------------------
         1        2.0000           -0.8073646             -21.9695
       ...           ...                  ...                  ...
        36        2.0000           -0.4812615             -13.0958
        37        2.0000           -0.4736848             -12.8896
        38        2.0000           -0.4725040             -12.8575
        39        2.0000           -0.4651558             -12.6575
        40        2.0000           -0.4536736             -12.3451
        41        2.0000           -0.4502160             -12.2510
        42        2.0000           -0.4377879             -11.9128
        43        2.0000           -0.4232226             -11.5165
        44        2.0000           -0.4000260             -10.8853
        45        2.0000           -0.3913357             -10.6488
        46        2.0000           -0.3801849             -10.3454
        47        2.0000           -0.3702187             -10.0742
        48        2.0000           -0.3148717              -8.5681 (HOMO)
        49                         -0.2640357              -7.1848 (LUMO)
        50                         -0.1864540              -5.0737
        51                         -0.1259055              -3.4261
        52                         -0.1142994              -3.1102
        53                         -0.1080479              -2.9401
        54                         -0.1021665              -2.7801
        55                         -0.0968496              -2.6354
        56                         -0.0684831              -1.8635
        57                         -0.0634883              -1.7276
        58                         -0.0626352              -1.7044
        59                         -0.0599341              -1.6309
       ...                                ...                  ...
       100                          0.7377274              20.0746
      -------------------------------------------------------------
                  HL-Gap            0.0508360 Eh            1.3833 eV

Wiberg/Mayer (AO) data.
largest (>0.10) Wiberg bond orders for each atom

     #   Z sym  total        # sym  WBO       # sym  WBO       # sym  WBO
 ---------------------------------------------------------------------------
     1   6 C    3.894 --    19 H    0.987    18 H    0.980    20 H    0.980
                             2 O    0.918
     2   8 O    2.184 --     3 C    1.081     1 C    0.918     4 O    0.122
     3   6 C    3.818 --     4 O    1.636     2 O    1.081     5 C    1.006
     4   8 O    1.889 --     3 C    1.636     2 O    0.122
     5   6 C    3.971 --    17 N    1.421     6 C    1.329     3 C    1.006
     6   6 C    3.866 --     5 C    1.329     8 C    1.205     7 O    0.972
                            17 N    0.177
     7   8 O    1.945 --     6 C    0.972    21 H    0.850
     8   6 C    3.919 --     9 O    1.462     6 C    1.205    10 N    1.093
     9   8 O    1.793 --     8 C    1.462    10 N    0.101
    10   7 N    3.207 --     8 C    1.093    11 C    0.934    22 H    0.920
                             9 O    0.101
    11   6 C    3.940 --    17 N    1.000    12 C    0.971    13 C    0.945
                            10 N    0.934
    12   6 C    3.995 --    25 H    0.985    24 H    0.984    23 H    0.984
                            11 C    0.971
    13   6 C    3.964 --    15 C    1.002    14 C    1.000    16 N    0.983
                            11 C    0.945
    14   6 C    3.996 --    13 C    1.000    27 H    0.987    26 H    0.985
                            28 H    0.981
    15   6 C    3.996 --    13 C    1.002    30 H    0.985    31 H    0.984
                            29 H    0.982
    16   7 N    2.954 --    13 C    0.983    32 H    0.949    33 H    0.946
    17   7 N    2.936 --     5 C    1.421    11 C    1.000     6 C    0.177
    18   1 H    1.012 --     1 C    0.980
    19   1 H    1.015 --     1 C    0.987
    20   1 H    1.013 --     1 C    0.980
    21   1 H    0.891 --     7 O    0.850
    22   1 H    0.968 --    10 N    0.920
    23   1 H    1.012 --    12 C    0.984
    24   1 H    1.006 --    12 C    0.984
    25   1 H    1.008 --    12 C    0.985
    26   1 H    1.007 --    14 C    0.985
    27   1 H    1.012 --    14 C    0.987
    28   1 H    1.028 --    14 C    0.981
    29   1 H    1.004 --    15 C    0.982
    30   1 H    1.009 --    15 C    0.985
    31   1 H    1.007 --    15 C    0.984
    32   1 H    0.981 --    16 N    0.949
    33   1 H    0.985 --    16 N    0.946
 ---------------------------------------------------------------------------

           -------------------------------------------------
          | TOTAL ENERGY              -58.557675868819 Eh   |
          | GRADIENT NORM               0.000575675151 Eh/α |
          | HOMO-LUMO GAP               1.383317006308 eV   |
           -------------------------------------------------

 * finished run on 2023/06/20 at 15:00:30.251
