   * xtb version 6.5.1 (579679a) compiled by 'ehlert@majestix' on 2022-07-11
          program call               : /lustre/hpc/kemi/ree/PhD/git/ReactivityQM/dep/xtb-6.5.1/bin/xtb --gfn 1 /lustre/hpc/kemi/ree/PhD/git/ReactivityQM/calculations/R02deprot/reac01prodN16/conf03/R02deprot_reac01prodN16_conf03_gfn1.xyz --opt --vfukui --chrg 0 --uhf 0 --alpb DMSO

   ID    Z sym.   atoms
    1    6 C      1, 3, 5, 7-10, 12, 14, 17, 18, 21, 23, 24
    2    8 O      2, 4, 13, 19, 22, 25
    3    7 N      6, 11, 15, 16, 20
    4    1 H      26-42

      * Solvation model:               ALPB
        Solvent                        DMSO
        Solvent mass                       7.8130E+01 g/mol
          :  Hamiltonian                  GFN1-xTB          :
 * total energy  :   -82.9472040 Eh     change       -0.1600142E-10 Eh
 * total energy  :   -82.9598975 Eh     change       -0.1269353E-01 Eh
 * total energy  :   -82.9650907 Eh     change       -0.5193125E-02 Eh
 * total energy  :   -82.9661418 Eh     change       -0.1051154E-02 Eh
 * total energy  :   -82.9667439 Eh     change       -0.6020998E-03 Eh
 * total energy  :   -82.9671211 Eh     change       -0.3771896E-03 Eh
 * total energy  :   -82.9675307 Eh     change       -0.4095661E-03 Eh
 * total energy  :   -82.9679845 Eh     change       -0.4538352E-03 Eh
 * total energy  :   -82.9684062 Eh     change       -0.4217174E-03 Eh
 * total energy  :   -82.9687632 Eh     change       -0.3570016E-03 Eh
 * total energy  :   -82.9717043 Eh     change       -0.1100877E-04 Eh
 * total energy  :   -82.9717132 Eh     change       -0.8823179E-05 Eh
 * total energy  :   -82.9717219 Eh     change       -0.8756496E-05 Eh
 * total energy  :   -82.9717303 Eh     change       -0.8389408E-05 Eh
 * total energy  :   -82.9717372 Eh     change       -0.6893120E-05 Eh
 * total energy  :   -82.9717437 Eh     change       -0.6443905E-05 Eh
 * total energy  :   -82.9717504 Eh     change       -0.6794542E-05 Eh
 * total energy  :   -82.9717560 Eh     change       -0.5518321E-05 Eh
 * total energy  :   -82.9717606 Eh     change       -0.4679259E-05 Eh
   *** GEOMETRY OPTIMIZATION CONVERGED AFTER 60 ITERATIONS ***

 final structure:
================
42
 xtb: 6.5.1 (579679a)
C           -6.37890139083686       -0.13073888946669       -0.63124307588422
O           -5.00789368947375        0.29079408719287       -0.59897572015600
C           -4.12445826783224       -0.49935719450698       -1.17975673040869
O           -4.38188368358833       -1.53748606499208       -1.73180968841312
C           -2.71602253910900        0.04372418710737       -1.05345296654540
N           -1.78351638373070       -0.79016724875172       -0.79992159965214
C           -0.48545140991552       -0.28194964399911       -0.63440192121999
C            0.46302236207906       -1.23128275774176        0.04290254287655
C            0.61787720378294       -2.47764844114699       -0.84423524951836
C           -0.10939150082123       -1.60503148453920        1.41881119445625
N            1.74195311715422       -0.55008012257732        0.18973552783471
C            2.82214729772237       -1.11034541265383        0.76797367436000
O            2.87276830910950       -2.23829011631801        1.22701782296521
C            3.96982708657917       -0.16662968313564        0.77494561565960
N            3.97792406097277        1.03506737359027        0.28152816694580
N            5.22304444322112        1.54229512945681        0.50318665440779
C            5.89517755159915        0.61695486626171        1.11819344000221
C            7.29750092550980        0.67737185369256        1.58499549420772
O            5.15883920245969       -0.48639947772267        1.31729180653826
N           -0.09507131235778        0.85910362088528       -1.05958096336432
C           -1.02509023174650        1.70925885608193       -1.66936268162700
O           -0.72920897091475        2.53305683599807       -2.49407216697075
C           -2.45295309857217        1.53134292134978       -1.16286889164459
C           -2.55815263540542        2.13052045464455        0.26118313028097
O           -3.35635855758037        2.15116898223510       -2.02950232404091
H           -6.94851307915803        0.63610535206373       -0.11145194267558
H           -6.71375322798087       -0.22394712010595       -1.66683173750886
H           -6.48156517405093       -1.09312927402060       -0.12495106969052
H            1.05508408003389       -2.20015471979852       -1.80203257614237
H            1.26407314662430       -3.20051606155480       -0.35029428871823
H           -0.36067719437411       -2.92447520923273       -1.01104395949527
H           -1.10919561738164       -2.01676308786730        1.29291608138617
H           -0.16434179180913       -0.72001715467410        2.05011310416973
H            0.52763943950428       -2.34741203694276        1.89563944640817
H            1.80110566133903        0.39953748430018       -0.15880687729641
H            7.88451543981270       -0.10548697485558        1.10509254789717
H            7.72072314112898        1.64959448521254        1.34543017295122
H            7.33766057531527        0.51650442056357        2.66213479398312
H           -3.57135957046286        1.98676697599417        0.62907766047898
H           -1.85041750579912        1.64615468022885        0.92956103586717
H           -2.34372945098368        3.19541669397516        0.20506744883421
H           -2.88297576007660        2.78657391578720       -2.59089093154867

          :  Hamiltonian                  GFN1-xTB          :
         :: total energy             -82.971760645173 Eh    ::
         :: gradient norm              0.000745186936 Eh/a0 ::
         :: HOMO-LUMO gap              1.839079395021 eV    ::
         :: SCC energy               -83.748185773762 Eh    ::
         :: -> Gsolv                  -0.048770723311 Eh    ::
         :: repulsion energy           0.802453224246 Eh    ::

    * Orbital Energies and Occupations

         #    Occupation            Energy/Eh            Energy/eV
      -------------------------------------------------------------
         1        2.0000           -0.8647308             -23.5305
       ...           ...                  ...                  ...
        55        2.0000           -0.5093809             -13.8610
        56        2.0000           -0.5073066             -13.8045
        57        2.0000           -0.5068635             -13.7925
        58        2.0000           -0.5013541             -13.6425
        59        2.0000           -0.4979651             -13.5503
        60        2.0000           -0.4898292             -13.3289
        61        2.0000           -0.4837951             -13.1647
        62        2.0000           -0.4672445             -12.7144
        63        2.0000           -0.4626576             -12.5896
        64        2.0000           -0.4621874             -12.5768
        65        2.0000           -0.4535870             -12.3427
        66        2.0000           -0.4491211             -12.2212
        67        2.0000           -0.4391375             -11.9495 (HOMO)
        68                         -0.3715526             -10.1105 (LUMO)
        69                         -0.3117383              -8.4828
        70                         -0.3095557              -8.4234
        71                         -0.2579539              -7.0193
        72                         -0.2560429              -6.9673
        73                         -0.2419717              -6.5844
        74                         -0.1995603              -5.4303
        75                         -0.1443542              -3.9281
        76                         -0.1430331              -3.8921
        77                         -0.1352762              -3.6811
        78                         -0.1259971              -3.4286
       ...                                ...                  ...
       134                          0.7236131              19.6905
      -------------------------------------------------------------
                  HL-Gap            0.0675849 Eh            1.8391 eV

Wiberg/Mayer (AO) data.
largest (>0.10) Wiberg bond orders for each atom

     #   Z sym  total        # sym  WBO       # sym  WBO       # sym  WBO
 ---------------------------------------------------------------------------
     1   6 C    3.856 --    26 H    0.985    28 H    0.979    27 H    0.978
                             2 O    0.881
     2   8 O    2.234 --     3 C    1.147     1 C    0.881     4 O    0.148
     3   6 C    3.852 --     4 O    1.690     2 O    1.147     5 C    0.940
     4   8 O    1.953 --     3 C    1.690     2 O    0.148
     5   6 C    3.933 --     6 N    1.769    23 C    0.960     3 C    0.940
     6   7 N    3.050 --     5 C    1.769     7 C    1.060
     7   6 C    3.923 --    20 N    1.692     6 N    1.060     8 C    0.998
     8   6 C    3.940 --     7 C    0.998    10 C    0.968     9 C    0.963
                            11 N    0.938
     9   6 C    3.985 --    29 H    0.986    31 H    0.984    30 H    0.978
                             8 C    0.963
    10   6 C    3.985 --    33 H    0.985    32 H    0.983    34 H    0.978
                             8 C    0.968
    11   7 N    3.350 --    12 C    1.256     8 C    0.938    35 H    0.880
                            13 O    0.178
    12   6 C    3.917 --    13 O    1.591    11 N    1.256    14 C    0.989
    13   8 O    1.908 --    12 C    1.591    11 N    0.178
    14   6 C    3.875 --    15 N    1.611    19 O    1.064    12 C    0.989
    15   7 N    3.015 --    14 C    1.611    16 N    1.200
    16   7 N    2.981 --    17 C    1.605    15 N    1.200
    17   6 C    3.871 --    16 N    1.605    19 O    1.083    18 C    1.031
    18   6 C    3.986 --    17 C    1.031    37 H    0.983    38 H    0.963
                            36 H    0.963
    19   8 O    2.330 --    17 C    1.083    14 C    1.064
    20   7 N    3.088 --     7 C    1.692    21 C    1.063
    21   6 C    3.866 --    22 O    1.742    20 N    1.063    23 C    0.935
    22   8 O    1.994 --    21 C    1.742
    23   6 C    3.932 --    25 O    0.982     5 C    0.960    21 C    0.935
                            24 C    0.920
    24   6 C    3.983 --    40 H    0.986    39 H    0.980    41 H    0.979
                            23 C    0.920
    25   8 O    1.901 --    23 C    0.982    42 H    0.827
    26   1 H    1.008 --     1 C    0.985
    27   1 H    1.004 --     1 C    0.978
    28   1 H    1.004 --     1 C    0.979
    29   1 H    1.001 --     9 C    0.986
    30   1 H    1.008 --     9 C    0.978
    31   1 H    1.006 --     9 C    0.984
    32   1 H    1.006 --    10 C    0.983
    33   1 H    1.001 --    10 C    0.985
    34   1 H    1.007 --    10 C    0.978
    35   1 H    0.963 --    11 N    0.880
    36   1 H    0.997 --    18 C    0.963
    37   1 H    0.998 --    18 C    0.983
    38   1 H    0.997 --    18 C    0.963
    39   1 H    1.008 --    24 C    0.980
    40   1 H    1.000 --    24 C    0.986
    41   1 H    0.999 --    24 C    0.979
    42   1 H    0.858 --    25 O    0.827
 ---------------------------------------------------------------------------

           -------------------------------------------------
          | TOTAL ENERGY              -82.971760645173 Eh   |
          | GRADIENT NORM               0.000745186936 Eh/α |
          | HOMO-LUMO GAP               1.839079395021 eV   |
           -------------------------------------------------

 * finished run on 2023/06/20 at 18:27:07.114
