   * xtb version 6.5.1 (579679a) compiled by 'ehlert@majestix' on 2022-07-11
          program call               : /lustre/hpc/kemi/ree/PhD/git/ReactivityQM/dep/xtb-6.5.1/bin/xtb --gfn 1 /lustre/hpc/kemi/ree/PhD/git/ReactivityQM/calculations/R02oxygendeprot/reac01prodE04/conf10/R02oxygendeprot_reac01prodE04_conf10_gfn1.xyz --opt --vfukui --chrg -2 --uhf 0 --alpb DMSO

   ID    Z sym.   atoms
    1    6 C      1, 3, 5, 6, 8-11, 13, 15, 18, 19, 22, 24
    2    8 O      2, 4, 14, 20, 23, 25
    3    7 N      7, 12, 16, 17, 21
    4    1 H      26-42

      * Solvation model:               ALPB
        Solvent                        DMSO
        Solvent mass                       7.8130E+01 g/mol
          :  Hamiltonian                  GFN1-xTB          :
 * total energy  :   -83.5729128 Eh     change       -0.8526513E-11 Eh
 * total energy  :   -83.5941096 Eh     change       -0.2119685E-01 Eh
 * total energy  :   -83.6012477 Eh     change       -0.7138034E-02 Eh
 * total energy  :   -83.6029196 Eh     change       -0.1671922E-02 Eh
 * total energy  :   -83.6039115 Eh     change       -0.9919291E-03 Eh
 * total energy  :   -83.6042992 Eh     change       -0.3876545E-03 Eh
 * total energy  :   -83.6045432 Eh     change       -0.2439819E-03 Eh
 * total energy  :   -83.6048161 Eh     change       -0.2728986E-03 Eh
 * total energy  :   -83.6051138 Eh     change       -0.2977154E-03 Eh
 * total energy  :   -83.6054450 Eh     change       -0.3312648E-03 Eh
 * total energy  :   -83.6115033 Eh     change       -0.1004886E-04 Eh
 * total energy  :   -83.6115124 Eh     change       -0.9054243E-05 Eh
 * total energy  :   -83.6115225 Eh     change       -0.1015734E-04 Eh
 * total energy  :   -83.6115360 Eh     change       -0.1343587E-04 Eh
 * total energy  :   -83.6115495 Eh     change       -0.1352610E-04 Eh
 * total energy  :   -83.6115590 Eh     change       -0.9465547E-05 Eh
 * total energy  :   -83.6115670 Eh     change       -0.8024328E-05 Eh
 * total energy  :   -83.6115726 Eh     change       -0.5637578E-05 Eh
 * total energy  :   -83.6115764 Eh     change       -0.3756678E-05 Eh
   *** GEOMETRY OPTIMIZATION CONVERGED AFTER 57 ITERATIONS ***

 final structure:
================
42
 xtb: 6.5.1 (579679a)
C            6.02786579351148       -0.26189775616036        0.59191526215838
O            4.87162249722285       -0.85891320962475        0.02265000625476
C            3.67503896095802       -0.36937839552775        0.44937573485093
O            3.61415321612075        0.50926145481744        1.29994943281038
C            2.50202746262164       -0.92203918363790       -0.34213050515637
C            2.71796978845151       -2.37875262326121       -0.76091263765753
N            1.28724373468426       -0.81788620652142        0.44530952269450
C            0.69100502004730        0.32093506053018        0.48772302243242
C           -0.49090898369831        0.45127314565391        1.45591074009935
C           -0.19472712790403       -0.42806107327259        2.67773897857917
C           -0.71261939676793        1.89579214488440        1.92555639519303
N           -1.69561165895739       -0.09569659589712        0.82390185198632
C           -2.34584785715129        0.58226910835646       -0.21300094501067
O           -1.80587633552413        1.48838383706966       -0.87844876670305
C           -3.65636582761508        0.05583597577235       -0.43693478061236
N           -4.23774837515682       -0.93902551986614        0.24522268764168
N           -5.48329324363986       -1.10295455403236       -0.29703603531113
C           -5.60810863416397       -0.23562743676234       -1.24833883896679
C           -6.79408375082588       -0.03232916701763       -2.11760133712058
O           -4.50743952088349        0.53632863289819       -1.41319799155081
N            1.06362268610800        1.39169962296358       -0.25453058334622
C            1.88159933048593        1.26742494106836       -1.42410815221634
O            1.85625342900494        2.23422152358229       -2.23843129900446
C            2.57632160490344        0.04185200349990       -1.55874967358250
O            3.28672900675487       -0.30261822331759       -2.56453641285510
H            6.07014201284193        0.80834152933274        0.36346834222670
H            6.89293749499715       -0.76510331640019        0.16242281428649
H            6.03207064403605       -0.38947301168239        1.67900610757024
H            1.82333103102100       -2.74948689061313       -1.26203708254097
H            2.91217376169565       -3.00112574351003        0.11177612535741
H            3.56207379994835       -2.45182412457935       -1.44608061541563
H            0.71685211539053       -0.08526780849398        3.16643867940959
H           -0.05301017471502       -1.46339856578248        2.36779774116615
H           -1.01579186292312       -0.37830800913494        3.39117109511060
H           -1.49670441652700        1.91410091138387        2.68109301023447
H           -1.01485394013901        2.54470919182959        1.10560830884685
H            0.20519274051356        2.28394963244097        2.36578135872309
H           -2.32586895704340       -0.55374433491284        1.46689264479185
H           -7.57531698926171       -0.73248992024501       -1.83053448423947
H           -6.53502215789890       -0.19298039281088       -3.16487938867774
H           -7.16992752695377        0.98630855653674       -2.01601150005467
H            0.45290360643323        2.19569579045553       -0.26468983239633

          :  Hamiltonian                  GFN1-xTB          :
         :: total energy             -83.611576390676 Eh    ::
         :: gradient norm              0.000771405225 Eh/a0 ::
         :: HOMO-LUMO gap              0.035686563980 eV    ::
         :: SCC energy               -84.337367755560 Eh    ::
         :: -> Gsolv                  -0.289486982804 Eh    ::
         :: repulsion energy           0.752600956878 Eh    ::

    * Orbital Energies and Occupations

         #    Occupation            Energy/Eh            Energy/eV
      -------------------------------------------------------------
         1        2.0000           -0.8020658             -21.8253
       ...           ...                  ...                  ...
        56        2.0000           -0.4470016             -12.1635
        57        2.0000           -0.4415295             -12.0146
        58        2.0000           -0.4305647             -11.7163
        59        2.0000           -0.4228769             -11.5071
        60        2.0000           -0.4099484             -11.1553
        61        2.0000           -0.4050756             -11.0227
        62        2.0000           -0.4038505             -10.9893
        63        2.0000           -0.3981106             -10.8331
        64        2.0000           -0.3900235             -10.6131
        65        2.0000           -0.3769561             -10.2575
        66        2.0000           -0.3719126             -10.1203
        67        2.0000           -0.3433298              -9.3425
        68        1.3320           -0.2683025              -7.3009 (HOMO)
        69        0.6680           -0.2669910              -7.2652 (LUMO)
        70                         -0.2200368              -5.9875
        71                         -0.2110819              -5.7438
        72                         -0.1995472              -5.4300
        73                         -0.1405812              -3.8254
        74                         -0.1247713              -3.3952
        75                         -0.1220919              -3.3223
        76                         -0.1122755              -3.0552
        77                         -0.1030965              -2.8054
        78                         -0.0984490              -2.6789
        79                         -0.0897492              -2.4422
       ...                                ...                  ...
       134                          0.7130163              19.4022
      -------------------------------------------------------------
                  HL-Gap            0.0013115 Eh            0.0357 eV

Wiberg/Mayer (AO) data.
largest (>0.10) Wiberg bond orders for each atom

     #   Z sym  total        # sym  WBO       # sym  WBO       # sym  WBO
 ---------------------------------------------------------------------------
     1   6 C    3.898 --    27 H    0.987    28 H    0.981    26 H    0.981
                             2 O    0.923
     2   8 O    2.148 --     3 C    1.039     1 C    0.923     4 O    0.106
     3   6 C    3.772 --     4 O    1.588     2 O    1.039     5 C    0.944
     4   8 O    1.843 --     3 C    1.588     2 O    0.106
     5   6 C    3.960 --     6 C    0.991     7 N    0.984     3 C    0.944
                            24 C    0.876
     6   6 C    3.990 --     5 C    0.991    30 H    0.989    29 H    0.987
                            31 H    0.983
     7   7 N    2.937 --     8 C    1.646     5 C    0.984    21 N    0.149
     8   6 C    3.930 --     7 N    1.646    21 N    1.192     9 C    0.961
     9   6 C    3.951 --    10 C    0.998    11 C    0.992     8 C    0.961
                            12 N    0.938
    10   6 C    3.996 --     9 C    0.998    34 H    0.986    32 H    0.986
                            33 H    0.983
    11   6 C    3.992 --     9 C    0.992    37 H    0.987    35 H    0.985
                            36 H    0.977
    12   7 N    3.142 --    13 C    1.086     9 C    0.938    38 H    0.917
                            14 O    0.112
    13   6 C    3.757 --    14 O    1.455    15 C    1.148    12 N    1.086
    14   8 O    1.702 --    13 C    1.455    12 N    0.112
    15   6 C    3.689 --    16 N    1.392    13 C    1.148    20 O    0.978
    16   7 N    2.740 --    15 C    1.392    17 N    1.185
    17   7 N    2.980 --    18 C    1.628    16 N    1.185
    18   6 C    3.820 --    17 N    1.628    20 O    1.051    19 C    1.024
    19   6 C    3.994 --    18 C    1.024    39 H    0.986    41 H    0.971
                            40 H    0.971
    20   8 O    2.185 --    18 C    1.051    15 C    0.978
    21   7 N    3.341 --     8 C    1.192    22 C    0.968    42 H    0.904
                             7 N    0.149
    22   6 C    3.753 --    23 O    1.396    24 C    1.235    21 N    0.968
    23   8 O    1.609 --    22 C    1.396
    24   6 C    3.728 --    25 O    1.370    22 C    1.235     5 C    0.876
    25   8 O    1.574 --    24 C    1.370
    26   1 H    1.012 --     1 C    0.981
    27   1 H    1.016 --     1 C    0.987
    28   1 H    1.014 --     1 C    0.981
    29   1 H    1.013 --     6 C    0.987
    30   1 H    1.011 --     6 C    0.989
    31   1 H    1.028 --     6 C    0.983
    32   1 H    1.010 --    10 C    0.986
    33   1 H    1.025 --    10 C    0.983
    34   1 H    1.004 --    10 C    0.986
    35   1 H    1.005 --    11 C    0.985
    36   1 H    1.015 --    11 C    0.977
    37   1 H    1.005 --    11 C    0.987
    38   1 H    0.974 --    12 N    0.917
    39   1 H    1.004 --    19 C    0.986
    40   1 H    1.001 --    19 C    0.971
    41   1 H    1.001 --    19 C    0.971
    42   1 H    0.980 --    21 N    0.904
 ---------------------------------------------------------------------------

           -------------------------------------------------
          | TOTAL ENERGY              -83.611576390676 Eh   |
          | GRADIENT NORM               0.000771405225 Eh/α |
          | HOMO-LUMO GAP               0.035686563980 eV   |
           -------------------------------------------------

 * finished run on 2023/06/21 at 17:04:41.954
