   * xtb version 6.5.1 (579679a) compiled by 'ehlert@majestix' on 2022-07-11
          program call               : /lustre/hpc/kemi/ree/PhD/git/ReactivityQM/dep/xtb-6.5.1/bin/xtb --gfn 1 /lustre/hpc/kemi/ree/PhD/git/ReactivityQM/calculations/R02/reac01prodE11/conf19/R02_reac01prodE11_conf19_gfn1.xyz --opt --vfukui --chrg -1 --uhf 0 --alpb DMSO

   ID    Z sym.   atoms
    1    6 C      1, 3, 5, 7-10, 12, 14, 17-19, 22, 24
    2    8 O      2, 4, 13, 20, 23, 25
    3    7 N      6, 11, 15, 16, 21
    4    1 H      26-43

      * Solvation model:               ALPB
        Solvent                        DMSO
        Solvent mass                       7.8130E+01 g/mol
          :  Hamiltonian                  GFN1-xTB          :
 * total energy  :   -83.8714363 Eh     change       -0.5834977E-10 Eh
 * total energy  :   -83.8798462 Eh     change       -0.8409978E-02 Eh
 * total energy  :   -83.8826348 Eh     change       -0.2788509E-02 Eh
 * total energy  :   -83.8830399 Eh     change       -0.4051893E-03 Eh
 * total energy  :   -83.8833761 Eh     change       -0.3361080E-03 Eh
 * total energy  :   -83.8835434 Eh     change       -0.1673588E-03 Eh
 * total energy  :   -83.8837463 Eh     change       -0.2028691E-03 Eh
 * total energy  :   -83.8839101 Eh     change       -0.1637919E-03 Eh
 * total energy  :   -83.8840235 Eh     change       -0.1134178E-03 Eh
 * total energy  :   -83.8840918 Eh     change       -0.6833114E-04 Eh
 * total energy  :   -83.8842105 Eh     change       -0.2152471E-04 Eh
 * total energy  :   -83.8842340 Eh     change       -0.2346255E-04 Eh
 * total energy  :   -83.8842617 Eh     change       -0.2768770E-04 Eh
 * total energy  :   -83.8842828 Eh     change       -0.2118897E-04 Eh
 * total energy  :   -83.8843232 Eh     change       -0.4034925E-04 Eh
 * total energy  :   -83.8843413 Eh     change       -0.1807865E-04 Eh
 * total energy  :   -83.8843513 Eh     change       -0.1000862E-04 Eh
 * total energy  :   -83.8843590 Eh     change       -0.7769804E-05 Eh
 * total energy  :   -83.8843620 Eh     change       -0.2965677E-05 Eh
   *** GEOMETRY OPTIMIZATION CONVERGED AFTER 22 ITERATIONS ***

 final structure:
================
43
 xtb: 6.5.1 (579679a)
C           -2.05013461965245        3.71475999505674        1.18259220334128
O           -1.97660825419266        2.34259792170681        0.79032753703647
C           -2.97650102286358        1.56267843478850        1.19439026515490
O           -3.90984436998631        1.98493030322996        1.86463673028979
C           -2.87392805087440        0.16168172496012        0.75129636842547
N           -1.76032340651869       -0.19912292971008        0.03441667715020
C           -1.65624440631304       -1.41033232333848       -0.39856776557081
C           -0.46011318861930       -1.82970412406749       -1.23370022627103
C           -0.92770979840655       -1.93029956961890       -2.69668022487858
C            0.09362225386341       -3.18026124751972       -0.74524764099857
N            0.53851688746882       -0.78096059706771       -1.09553831873899
C            1.81689651703801       -0.93233930081171       -1.64972505252332
O            2.03313280714888       -1.69658604023075       -2.61156584563642
C            2.79991566760544       -0.10749898955564       -1.05092724372995
N            4.07797364379251       -0.01667855058205       -1.39294821589433
N            4.71619289467543        0.79065508429574       -0.60279982284634
C            3.75978058855793        1.29173584246178        0.39426163641967
C            4.19895354497131        0.84886751074827        1.79912887202334
C            3.66429471488061        2.82182174500752        0.30304593654699
O            2.50986445999258        0.69798760852439        0.06136079359971
N           -2.63221260400818       -2.34087085804441       -0.17103319637219
C           -3.78862601935387       -2.10836790458008        0.55278876382413
O           -4.60638182396806       -3.00173276731738        0.72452326398117
C           -3.88224207462863       -0.73605093647339        1.03666746939372
O           -4.98102181248961       -0.42663576069748        1.73800146625169
H           -1.22194145419022        4.22671885104069        0.69651774766190
H           -1.96335628898871        3.79960831336236        2.26825937539589
H           -3.00170043979684        4.14671336459275        0.86424757557532
H           -1.24383220831737       -0.94926268315958       -3.04995115062806
H           -0.11373976227309       -2.29067414266979       -3.32338215557886
H           -1.76513595558943       -2.62178967495152       -2.77169537529757
H            0.98687803964883       -3.43399826639234       -1.31429334158500
H           -0.63962419976150       -3.97076246562786       -0.89026033912483
H            0.34731056865931       -3.12071124498965        0.31198207040244
H            0.52520469517389       -0.32708850976951       -0.18899066059292
H            3.46540987986437        1.16430852913207        2.53865536572197
H            4.28486371094568       -0.23628744638911        1.82351223082455
H            5.16540193008555        1.28814641051184        2.03785974812667
H            4.64086628845723        3.26100437574760        0.49672458611664
H            3.33819721972543        3.10484271506305       -0.69658778109805
H            2.94911931421406        3.19859653481651        1.03173136104631
H           -2.53117337599604       -3.27946985002192       -0.52659980087966
H           -4.94999948998629        0.51983191853659        2.01202511393547

          :  Hamiltonian                  GFN1-xTB          :
         :: total energy             -83.884362013272 Eh    ::
         :: gradient norm              0.000388554388 Eh/a0 ::
         :: HOMO-LUMO gap              0.150690419362 eV    ::
         :: SCC energy               -84.639002709895 Eh    ::
         :: -> Gsolv                  -0.111809872516 Eh    ::
         :: repulsion energy           0.780854419264 Eh    ::

    * Orbital Energies and Occupations

         #    Occupation            Energy/Eh            Energy/eV
      -------------------------------------------------------------
         1        2.0000           -0.8326091             -22.6564
       ...           ...                  ...                  ...
        56        2.0000           -0.4764597             -12.9651
        57        2.0000           -0.4738080             -12.8930
        58        2.0000           -0.4729962             -12.8709
        59        2.0000           -0.4520319             -12.3004
        60        2.0000           -0.4474156             -12.1748
        61        2.0000           -0.4405321             -11.9875
        62        2.0000           -0.4339555             -11.8085
        63        2.0000           -0.4199134             -11.4264
        64        2.0000           -0.4173863             -11.3577
        65        2.0000           -0.4105365             -11.1713
        66        2.0000           -0.3988813             -10.8541
        67        2.0000           -0.3756887             -10.2230
        68        1.8971           -0.3213645              -8.7448 (HOMO)
        69        0.1029           -0.3158267              -8.5941 (LUMO)
        70                         -0.2689246              -7.3178
        71                         -0.2433868              -6.6229
        72                         -0.2307466              -6.2789
        73                         -0.1466758              -3.9913
        74                         -0.1326580              -3.6098
        75                         -0.1323957              -3.6027
        76                         -0.1272755              -3.4633
        77                         -0.1108048              -3.0152
        78                         -0.1063437              -2.8938
        79                         -0.1003992              -2.7320
       ...                                ...                  ...
       136                          0.7186979              19.5568
      -------------------------------------------------------------
                  HL-Gap            0.0055378 Eh            0.1507 eV

Wiberg/Mayer (AO) data.
largest (>0.10) Wiberg bond orders for each atom

     #   Z sym  total        # sym  WBO       # sym  WBO       # sym  WBO
 ---------------------------------------------------------------------------
     1   6 C    3.873 --    26 H    0.986    28 H    0.979    27 H    0.979
                             2 O    0.899
     2   8 O    2.201 --     3 C    1.119     1 C    0.899     4 O    0.123
     3   6 C    3.820 --     4 O    1.580     2 O    1.119     5 C    1.041
     4   8 O    1.912 --     3 C    1.580     2 O    0.123
     5   6 C    3.936 --    24 C    1.454     6 N    1.175     3 C    1.041
     6   7 N    3.024 --     7 C    1.588     5 C    1.175
     7   6 C    3.915 --     6 N    1.588    21 N    1.160     8 C    0.981
     8   6 C    3.959 --     7 C    0.981    10 C    0.980     9 C    0.975
                            11 N    0.963
     9   6 C    3.990 --    31 H    0.987    29 H    0.986    30 H    0.976
                             8 C    0.975
    10   6 C    3.991 --    34 H    0.986    33 H    0.982     8 C    0.980
                            32 H    0.978
    11   7 N    3.189 --    12 C    1.082     8 C    0.963    35 H    0.909
                            13 O    0.106
    12   6 C    3.912 --    13 O    1.458    14 C    1.208    11 N    1.082
    13   8 O    1.787 --    12 C    1.458    11 N    0.106
    14   6 C    3.798 --    15 N    1.393    12 C    1.208    20 O    0.937
                            16 N    0.135
    15   7 N    3.023 --    16 N    1.473    14 C    1.393
    16   7 N    2.828 --    15 N    1.473    17 C    0.983    14 C    0.135
    17   6 C    3.895 --    16 N    0.983    19 C    0.978    18 C    0.977
                            20 O    0.918
    18   6 C    3.987 --    38 H    0.987    36 H    0.986    37 H    0.985
                            17 C    0.977
    19   6 C    3.988 --    39 H    0.987    41 H    0.987    40 H    0.985
                            17 C    0.978
    20   8 O    2.051 --    14 C    0.937    17 C    0.918
    21   7 N    3.433 --     7 C    1.160    22 C    1.113    42 H    0.888
                            23 O    0.130
    22   6 C    3.892 --    23 O    1.575    21 N    1.113    24 C    1.079
    23   8 O    1.865 --    22 C    1.575    21 N    0.130
    24   6 C    3.881 --     5 C    1.454    25 O    1.110    22 C    1.079
    25   8 O    2.068 --    24 C    1.110    43 H    0.779
    26   1 H    1.011 --     1 C    0.986
    27   1 H    1.007 --     1 C    0.979
    28   1 H    1.008 --     1 C    0.979
    29   1 H    1.007 --     9 C    0.986
    30   1 H    1.021 --     9 C    0.976
    31   1 H    1.003 --     9 C    0.987
    32   1 H    1.012 --    10 C    0.978
    33   1 H    1.001 --    10 C    0.982
    34   1 H    1.003 --    10 C    0.986
    35   1 H    0.975 --    11 N    0.909
    36   1 H    1.007 --    18 C    0.986
    37   1 H    1.013 --    18 C    0.985
    38   1 H    1.009 --    18 C    0.987
    39   1 H    1.009 --    19 C    0.987
    40   1 H    1.013 --    19 C    0.985
    41   1 H    1.007 --    19 C    0.987
    42   1 H    0.939 --    21 N    0.888
    43   1 H    0.858 --    25 O    0.779
 ---------------------------------------------------------------------------

           -------------------------------------------------
          | TOTAL ENERGY              -83.884362013272 Eh   |
          | GRADIENT NORM               0.000388554388 Eh/α |
          | HOMO-LUMO GAP               0.150690419362 eV   |
           -------------------------------------------------

 * finished run on 2023/06/20 at 15:13:32.753
