   * xtb version 6.5.1 (579679a) compiled by 'ehlert@majestix' on 2022-07-11
          program call               : /lustre/hpc/kemi/ree/PhD/git/ReactivityQM/dep/xtb-6.5.1/bin/xtb --gfn 1 /lustre/hpc/kemi/ree/PhD/git/ReactivityQM/calculations/RaltegravirCLI/reac02prodN03/conf07/RaltegravirCLI_reac02prodN03_conf07_gfn1.xyz --opt --vfukui --chrg 1 --uhf 0 --alpb DMSO

   ID    Z sym.   atoms
    1    6 C      1, 3-5, 8-12, 14, 15, 17-20, 23, 24
    2    8 O      2, 6, 25
    3    7 N      7, 16, 21, 22
    4    9 F      13
    5    1 H      26-47

      * Solvation model:               ALPB
        Solvent                        DMSO
        Solvent mass                       7.8130E+01 g/mol
          :  Hamiltonian                  GFN1-xTB          :
 * total energy  :   -79.4804809 Eh     change       -0.4291678E-11 Eh
 * total energy  :   -79.4950809 Eh     change       -0.1459998E-01 Eh
 * total energy  :   -79.5025860 Eh     change       -0.7505072E-02 Eh
 * total energy  :   -79.5070518 Eh     change       -0.4465762E-02 Eh
 * total energy  :   -79.5122556 Eh     change       -0.5203881E-02 Eh
 * total energy  :   -79.5158539 Eh     change       -0.3598245E-02 Eh
 * total energy  :   -79.5214648 Eh     change       -0.5610896E-02 Eh
 * total energy  :   -79.5246467 Eh     change       -0.3181868E-02 Eh
 * total energy  :   -79.5273883 Eh     change       -0.2741659E-02 Eh
 * total energy  :   -79.5297142 Eh     change       -0.2325894E-02 Eh
 * total energy  :   -79.5372809 Eh     change       -0.7826663E-04 Eh
 * total energy  :   -79.5373270 Eh     change       -0.4609060E-04 Eh
 * total energy  :   -79.5373511 Eh     change       -0.2405926E-04 Eh
 * total energy  :   -79.5373717 Eh     change       -0.2061780E-04 Eh
 * total energy  :   -79.5373856 Eh     change       -0.1388727E-04 Eh
 * total energy  :   -79.5373959 Eh     change       -0.1037018E-04 Eh
 * total energy  :   -79.5373799 Eh     change        0.1603930E-04 Eh
 * total energy  :   -79.5373973 Eh     change       -0.1736133E-04 Eh
 * total energy  :   -79.5374017 Eh     change       -0.4478164E-05 Eh
   *** GEOMETRY OPTIMIZATION CONVERGED AFTER 43 ITERATIONS ***

 final structure:
================
47
 xtb: 6.5.1 (579679a)
C           -0.75491160709827       -4.49467289441257       -1.39604968277263
O           -0.22468976502735       -3.35221352292317       -0.69913685219623
C           -0.89115011843274       -2.19575353867109       -0.59031881717656
C           -0.30951341103540       -1.16046300882259        0.10745459341741
C            1.00237798666373       -1.22013121461002        0.72911493154881
O            1.76893592818397       -2.27591010354210        0.69370104669707
N            1.43112371955641       -0.15990149842298        1.35498430176838
C            2.72577533843865       -0.05551953112635        2.02796536446263
C            3.73709553380663        0.60090768224979        1.11265908301474
C            4.09027373579142        1.93472285005849        1.29870038672958
C            5.02343757979096        2.53647268053439        0.46574575298562
C            5.58234441028775        1.78037063200616       -0.54905543334825
F            6.48473610294855        2.35334375366547       -1.35466577823780
C            5.24568033405493        0.45502333784794       -0.76510490757883
C            4.31368407270090       -0.13242003753588        0.07733019840457
N           -0.94829861165582        0.03137348831388        0.28378941090348
C           -2.12467378876223        0.24246638303807       -0.22916174124527
C           -2.76914775387560        1.57971251286378        0.10926448159045
C           -1.73387704041421        2.48574577609779        0.79434870563186
C           -3.94532607245257        1.34213618496517        1.06860043832105
N           -3.25306141665706        2.22499617045055       -1.10710392837682
N           -2.74835911347530       -0.71951044212557       -0.96892424322401
C           -4.06039725061327       -0.54523703907866       -1.60696090483352
C           -2.21105355418706       -1.98605802767220       -1.18049790245270
O           -2.83735292954771       -2.81761988063977       -1.82075107850450
H           -0.91537306237202       -4.25903992709362       -2.44936916434855
H           -1.68812847704145       -4.82279330504080       -0.93564927204036
H            0.00458087198969       -5.26871588166284       -1.29638368586170
H            1.34466086306950       -3.03556471135796        0.24066156339493
H            0.81799207761352        0.64899984970140        1.34676914094047
H            3.04201258384875       -1.06405525210276        2.30293762245002
H            2.57085694497777        0.53980784337915        2.92966492675345
H            3.63802066637194        2.50736426651732        2.09917626593844
H            5.31085343671796        3.57115689197751        0.60036630294433
H            5.70269841150080       -0.10250080936128       -1.57237945952287
H            4.03271136446543       -1.16788112526914       -0.06898739520281
H           -1.40397319659406        2.04617052918792        1.73402383231464
H           -2.18322645128040        3.45698223166628        0.99475780849376
H           -0.86893204504810        2.62259074727483        0.14813281866179
H           -3.59963972761577        0.81202957622355        1.95525443001839
H           -4.36064938240565        2.30217542526481        1.37193243853252
H           -4.73044717157615        0.75858922709416        0.59240340849312
H           -3.72237537199421        3.08382975702166       -0.85224065968859
H           -2.46342331451033        2.46512328147631       -1.69094192886607
H           -4.31518575812207        0.50917248246016       -1.64669228514585
H           -4.00117940427120       -0.95011256882522       -2.61759102216755
H           -4.80550516671012       -1.10518924104406       -1.04177511161757

          :  Hamiltonian                  GFN1-xTB          :
         :: total energy             -79.537401745242 Eh    ::
         :: gradient norm              0.000461146602 Eh/a0 ::
         :: HOMO-LUMO gap              1.671091964420 eV    ::
         :: SCC energy               -80.432058857829 Eh    ::
         :: -> Gsolv                  -0.097774512826 Eh    ::
         :: repulsion energy           0.924625879278 Eh    ::

    * Orbital Energies and Occupations

         #    Occupation            Energy/Eh            Energy/eV
      -------------------------------------------------------------
         1        2.0000           -0.8770344             -23.8653
       ...           ...                  ...                  ...
        55        2.0000           -0.5202804             -14.1575
        56        2.0000           -0.5106543             -13.8956
        57        2.0000           -0.5069825             -13.7957
        58        2.0000           -0.5046896             -13.7333
        59        2.0000           -0.4955931             -13.4858
        60        2.0000           -0.4871967             -13.2573
        61        2.0000           -0.4843792             -13.1806
        62        2.0000           -0.4743555             -12.9079
        63        2.0000           -0.4701595             -12.7937
        64        2.0000           -0.4655638             -12.6686
        65        2.0000           -0.4532627             -12.3339
        66        2.0000           -0.4457510             -12.1295
        67        2.0000           -0.4235648             -11.5258 (HOMO)
        68                         -0.3621533              -9.8547 (LUMO)
        69                         -0.3037366              -8.2651
        70                         -0.2874036              -7.8206
        71                         -0.2837560              -7.7214
        72                         -0.2759684              -7.5095
        73                         -0.1860609              -5.0630
        74                         -0.1613075              -4.3894
        75                         -0.1465119              -3.9868
        76                         -0.1423075              -3.8724
        77                         -0.1414178              -3.8482
        78                         -0.1386150              -3.7719
       ...                                ...                  ...
       144                          0.6735623              18.3286
      -------------------------------------------------------------
                  HL-Gap            0.0614115 Eh            1.6711 eV

Wiberg/Mayer (AO) data.
largest (>0.10) Wiberg bond orders for each atom

     #   Z sym  total        # sym  WBO       # sym  WBO       # sym  WBO
 ---------------------------------------------------------------------------
     1   6 C    3.843 --    28 H    0.983    26 H    0.977    27 H    0.977
                             2 O    0.867
     2   8 O    2.215 --     3 C    1.098     1 C    0.867
     3   6 C    3.909 --     4 C    1.436     2 O    1.098    24 C    1.071
     4   6 C    3.962 --     3 C    1.436    16 N    1.188     5 C    1.092
     5   6 C    3.877 --     7 N    1.475     6 O    1.189     4 C    1.092
     6   8 O    2.155 --     5 C    1.189    29 H    0.762     7 N    0.102
     7   7 N    3.491 --     5 C    1.475     8 C    0.914    30 H    0.871
                             6 O    0.102
     8   6 C    3.914 --     9 C    0.986    32 H    0.971    31 H    0.968
                             7 N    0.914
     9   6 C    3.981 --    10 C    1.422    15 C    1.415     8 C    0.986
    10   6 C    3.993 --    11 C    1.442     9 C    1.422    33 H    0.970
                            14 C    0.109
    11   6 C    3.990 --    10 C    1.442    12 C    1.401    34 H    0.968
                            15 C    0.111
    12   6 C    3.864 --    11 C    1.401    14 C    1.395    13 F    0.935
    13   9 F    1.066 --    12 C    0.935
    14   6 C    3.991 --    15 C    1.448    12 C    1.395    35 H    0.968
                            10 C    0.109
    15   6 C    3.993 --    14 C    1.448     9 C    1.415    36 H    0.970
                            11 C    0.111
    16   7 N    3.047 --    17 C    1.532     4 C    1.188
    17   6 C    3.912 --    16 N    1.532    22 N    1.199    18 C    0.976
    18   6 C    3.964 --    19 C    0.991    21 N    0.983    20 C    0.980
                            17 C    0.976
    19   6 C    3.994 --    18 C    0.991    39 H    0.984    38 H    0.984
                            37 H    0.983
    20   6 C    3.992 --    40 H    0.985    42 H    0.982    41 H    0.981
                            18 C    0.980
    21   7 N    2.994 --    18 C    0.983    44 H    0.939    43 H    0.935
    22   7 N    3.527 --    17 C    1.199    24 C    1.122    23 C    0.920
                            25 O    0.137
    23   6 C    3.907 --    46 H    0.974    47 H    0.974    45 H    0.966
                            22 N    0.920
    24   6 C    3.918 --    25 O    1.578    22 N    1.122     3 C    1.071
    25   8 O    1.919 --    24 C    1.578    22 N    0.137
    26   1 H    1.010 --     1 C    0.977
    27   1 H    1.010 --     1 C    0.977
    28   1 H    1.007 --     1 C    0.983
    29   1 H    0.824 --     6 O    0.762
    30   1 H    0.947 --     7 N    0.871
    31   1 H    1.000 --     8 C    0.968
    32   1 H    0.996 --     8 C    0.971
    33   1 H    0.997 --    10 C    0.970
    34   1 H    0.996 --    11 C    0.968
    35   1 H    0.996 --    14 C    0.968
    36   1 H    1.003 --    15 C    0.970
    37   1 H    1.009 --    19 C    0.983
    38   1 H    1.001 --    19 C    0.984
    39   1 H    1.008 --    19 C    0.984
    40   1 H    1.001 --    20 C    0.985
    41   1 H    0.998 --    20 C    0.981
    42   1 H    1.002 --    20 C    0.982
    43   1 H    0.950 --    21 N    0.935
    44   1 H    0.953 --    21 N    0.939
    45   1 H    1.026 --    23 C    0.966
    46   1 H    1.005 --    23 C    0.974
    47   1 H    1.001 --    23 C    0.974
 ---------------------------------------------------------------------------

           -------------------------------------------------
          | TOTAL ENERGY              -79.537401745242 Eh   |
          | GRADIENT NORM               0.000461146602 Eh/α |
          | HOMO-LUMO GAP               1.671091964420 eV   |
           -------------------------------------------------

 * finished run on 2023/06/20 at 15:19:53.702
