   * xtb version 6.5.1 (579679a) compiled by 'ehlert@majestix' on 2022-07-11
          program call               : /lustre/hpc/kemi/ree/PhD/git/ReactivityQM/dep/xtb-6.5.1/bin/xtb --gfn 1 /lustre/hpc/kemi/ree/PhD/git/ReactivityQM/calculations/RaltegravirCLI/reac02prodE02/conf06/RaltegravirCLI_reac02prodE02_conf06_gfn1.xyz --opt --vfukui --chrg -1 --uhf 0 --alpb DMSO

   ID    Z sym.   atoms
    1    6 C      1, 3, 5, 7, 8, 11-15, 17, 18, 20-24
    2    7 N      2, 10, 19, 25
    3    8 O      4, 6, 9
    4    9 F      16
    5    1 H      26-47

      * Solvation model:               ALPB
        Solvent                        DMSO
        Solvent mass                       7.8130E+01 g/mol
          :  Hamiltonian                  GFN1-xTB          :
 * total energy  :   -80.2090560 Eh     change       -0.1533351E-10 Eh
 * total energy  :   -80.2167905 Eh     change       -0.7734484E-02 Eh
 * total energy  :   -80.2187712 Eh     change       -0.1980696E-02 Eh
 * total energy  :   -80.2191338 Eh     change       -0.3626156E-03 Eh
 * total energy  :   -80.2194176 Eh     change       -0.2837584E-03 Eh
 * total energy  :   -80.2195575 Eh     change       -0.1398951E-03 Eh
 * total energy  :   -80.2196888 Eh     change       -0.1313092E-03 Eh
 * total energy  :   -80.2197726 Eh     change       -0.8383083E-04 Eh
 * total energy  :   -80.2198254 Eh     change       -0.5271366E-04 Eh
 * total energy  :   -80.2198704 Eh     change       -0.4509541E-04 Eh
 * total energy  :   -80.2203444 Eh     change       -0.1997774E-04 Eh
 * total energy  :   -80.2203796 Eh     change       -0.3520244E-04 Eh
 * total energy  :   -80.2204069 Eh     change       -0.2731771E-04 Eh
 * total energy  :   -80.2203139 Eh     change        0.9299266E-04 Eh
 * total energy  :   -80.2204383 Eh     change       -0.1243619E-03 Eh
 * total energy  :   -80.2204506 Eh     change       -0.1231233E-04 Eh
 * total energy  :   -80.2204572 Eh     change       -0.6632677E-05 Eh
 * total energy  :   -80.2204635 Eh     change       -0.6230570E-05 Eh
 * total energy  :   -80.2204673 Eh     change       -0.3822835E-05 Eh
   *** GEOMETRY OPTIMIZATION CONVERGED AFTER 42 ITERATIONS ***

 final structure:
================
47
 xtb: 6.5.1 (579679a)
C           -3.66370311500442       -1.86947240348202        1.20996897882197
N           -2.33089042659969       -1.66514764024939        0.64346548223181
C           -1.55541019176175       -2.82797849718947        0.50755282014146
O           -1.92128072703629       -3.88876152524574        1.05234759791237
C           -0.31856169727369       -2.66235636812425       -0.18698478119800
O            0.49556376445763       -3.79202885401401       -0.30259778482365
C            0.07398954908467       -1.39928724019694       -0.61433391667443
C            1.44569664065618       -1.15278667595586       -1.12968848940108
O            2.32220628661826       -2.01971140414929       -1.23990062404467
N            1.66017097843407        0.12526278707062       -1.51567459803609
C            2.97916340230174        0.59738422668791       -1.89630401586807
C            3.77902161186791        0.99065020918976       -0.67103656722819
C            4.42725356983324        0.01267749588421        0.08173522809752
C            5.13850159126691        0.35506919049788        1.22267652120181
C            5.18520747736852        1.68803764847676        1.59045600884589
F            5.87605507980565        2.02963512146555        2.69403959044204
C            4.55581597329071        2.68472348704545        0.86796773322519
C            3.84754006669083        2.32256989000224       -0.27045038126300
N           -0.70471109172570       -0.32388757059610       -0.55400006133695
C           -2.11393613063123       -0.51065718205875       -0.25055204039563
C           -2.84953960057768       -0.74004410115178       -1.60019360565615
C           -2.54342600665892        0.86001755204496        0.38999006327417
C           -4.04315562957222        1.09605909605773        0.61659286583101
C           -1.78081303935959        1.05456355024802        1.71238644133451
N           -2.13084930377853        1.88594919114819       -0.57663719147983
H           -3.80581552307797       -2.93500262446625        1.40910075011885
H           -3.77324084858028       -1.33405658176886        2.15620870912788
H           -4.44709511420337       -1.54637511508636        0.52271414569562
H            1.35117014112545       -3.50402605407716       -0.67583374125745
H            0.95029707151739        0.80915443801651       -1.28177949090283
H            2.85941572538867        1.45315483587149       -2.56511141394105
H            3.48647301267215       -0.21032203743042       -2.43499252103431
H            4.37745557731757       -1.02532467291996       -0.23007321922335
H            5.65132173602339       -0.39252694578758        1.81451071318561
H            4.61972429945480        3.71659824368844        1.18769196671453
H            3.34895008809198        3.08940602078735       -0.85212876770312
H           -2.72732116429007        0.14497077626346       -2.22268650984969
H           -2.40567948659401       -1.59514964757059       -2.11052387107425
H           -3.91228174659883       -0.92989032447439       -1.46162125987695
H           -4.42103954863547        0.56845642034837        1.48889472844893
H           -4.62669387582737        0.81074772891835       -0.25774524258528
H           -4.20192310709401        2.16191888851424        0.78853029455035
H           -1.98648733914859        2.04198137112514        2.12438117705999
H           -0.70897007518617        0.96579630093132        1.53164417793208
H           -2.07669674653388        0.30153551522903        2.44357788741043
H           -1.14054993276523        1.75763996254894       -0.77566523595963
H           -2.24092817475586        2.80083151793783       -0.16075455079419

          :  Hamiltonian                  GFN1-xTB          :
         :: total energy             -80.220467302646 Eh    ::
         :: gradient norm              0.000535978734 Eh/a0 ::
         :: HOMO-LUMO gap              1.218436672117 eV    ::
         :: SCC energy               -81.071001887129 Eh    ::
         :: -> Gsolv                  -0.102725392386 Eh    ::
         :: repulsion energy           0.882822772275 Eh    ::

    * Orbital Energies and Occupations

         #    Occupation            Energy/Eh            Energy/eV
      -------------------------------------------------------------
         1        2.0000           -0.8566884             -23.3117
       ...           ...                  ...                  ...
        56        2.0000           -0.4622609             -12.5788
        57        2.0000           -0.4531835             -12.3318
        58        2.0000           -0.4425094             -12.0413
        59        2.0000           -0.4407483             -11.9934
        60        2.0000           -0.4306060             -11.7174
        61        2.0000           -0.4219529             -11.4819
        62        2.0000           -0.4199499             -11.4274
        63        2.0000           -0.4056691             -11.0388
        64        2.0000           -0.3909971             -10.6396
        65        2.0000           -0.3821721             -10.3994
        66        2.0000           -0.3750026             -10.2043
        67        2.0000           -0.3640611              -9.9066
        68        2.0000           -0.3092566              -8.4153 (HOMO)
        69                         -0.2644799              -7.1969 (LUMO)
        70                         -0.2589824              -7.0473
        71                         -0.2522537              -6.8642
        72                         -0.1779766              -4.8430
        73                         -0.1366001              -3.7171
        74                         -0.1168514              -3.1797
        75                         -0.1100366              -2.9942
        76                         -0.1083952              -2.9496
        77                         -0.0980070              -2.6669
        78                         -0.0962522              -2.6192
        79                         -0.0943572              -2.5676
       ...                                ...                  ...
       144                          0.7296158              19.8539
      -------------------------------------------------------------
                  HL-Gap            0.0447767 Eh            1.2184 eV

Wiberg/Mayer (AO) data.
largest (>0.10) Wiberg bond orders for each atom

     #   Z sym  total        # sym  WBO       # sym  WBO       # sym  WBO
 ---------------------------------------------------------------------------
     1   6 C    3.967 --    27 H    0.981    28 H    0.981    26 H    0.973
                             2 N    0.964
     2   7 N    3.251 --     3 C    1.098     1 C    0.964    20 C    0.921
                             4 O    0.113
     3   6 C    3.917 --     4 O    1.470     5 C    1.184     2 N    1.098
     4   8 O    1.795 --     3 C    1.470     2 N    0.113
     5   6 C    3.872 --     7 C    1.352     3 C    1.184     6 O    0.981
                            19 N    0.172
     6   8 O    1.947 --     5 C    0.981    29 H    0.828
     7   6 C    3.973 --    19 N    1.390     5 C    1.352     8 C    1.017
     8   6 C    3.882 --     9 O    1.519    10 N    1.248     7 C    1.017
     9   8 O    1.882 --     8 C    1.519    10 N    0.147
    10   7 N    3.330 --     8 C    1.248    11 C    0.951    30 H    0.892
                             9 O    0.147
    11   6 C    3.960 --    12 C    0.992    31 H    0.978    32 H    0.971
                            10 N    0.951
    12   6 C    3.987 --    18 C    1.422    13 C    1.415    11 C    0.992
    13   6 C    3.992 --    14 C    1.446    12 C    1.415    33 H    0.968
                            17 C    0.111
    14   6 C    3.992 --    13 C    1.446    15 C    1.400    34 H    0.970
                            18 C    0.110
    15   6 C    3.858 --    17 C    1.405    14 C    1.400    16 F    0.918
    16   9 F    1.044 --    15 C    0.918
    17   6 C    3.992 --    18 C    1.439    15 C    1.405    35 H    0.970
                            13 C    0.111
    18   6 C    3.994 --    17 C    1.439    12 C    1.422    36 H    0.972
                            14 C    0.110
    19   7 N    2.958 --     7 C    1.390    20 C    0.996     5 C    0.172
    20   6 C    3.940 --    19 N    0.996    21 C    0.971    22 C    0.951
                             2 N    0.921
    21   6 C    3.996 --    38 H    0.986    37 H    0.984    39 H    0.981
                            20 C    0.971
    22   6 C    3.962 --    23 C    1.000    24 C    0.992    25 N    0.983
                            20 C    0.951
    23   6 C    3.995 --    22 C    1.000    42 H    0.983    41 H    0.982
                            40 H    0.982
    24   6 C    3.996 --    22 C    0.992    43 H    0.987    45 H    0.983
                            44 H    0.982
    25   7 N    2.969 --    22 C    0.983    47 H    0.953    46 H    0.936
    26   1 H    1.022 --     1 C    0.973
    27   1 H    1.019 --     1 C    0.981
    28   1 H    1.010 --     1 C    0.981
    29   1 H    0.897 --     6 O    0.828
    30   1 H    0.980 --    10 N    0.892
    31   1 H    1.006 --    11 C    0.978
    32   1 H    1.013 --    11 C    0.971
    33   1 H    1.014 --    13 C    0.968
    34   1 H    0.999 --    14 C    0.970
    35   1 H    0.999 --    17 C    0.970
    36   1 H    1.000 --    18 C    0.972
    37   1 H    1.024 --    21 C    0.984
    38   1 H    1.010 --    21 C    0.986
    39   1 H    1.008 --    21 C    0.981
    40   1 H    1.010 --    23 C    0.982
    41   1 H    1.010 --    23 C    0.982
    42   1 H    1.006 --    23 C    0.983
    43   1 H    1.007 --    24 C    0.987
    44   1 H    1.023 --    24 C    0.982
    45   1 H    1.009 --    24 C    0.983
    46   1 H    0.997 --    25 N    0.936
    47   1 H    0.970 --    25 N    0.953
 ---------------------------------------------------------------------------

           -------------------------------------------------
          | TOTAL ENERGY              -80.220467302646 Eh   |
          | GRADIENT NORM               0.000535978734 Eh/α |
          | HOMO-LUMO GAP               1.218436672117 eV   |
           -------------------------------------------------

 * finished run on 2023/06/20 at 14:56:30.731
