   * xtb version 6.5.1 (579679a) compiled by 'ehlert@majestix' on 2022-07-11
          program call               : /lustre/hpc/kemi/ree/PhD/git/ReactivityQM/dep/xtb-6.5.1/bin/xtb --gfn 1 /lustre/hpc/kemi/ree/PhD/git/ReactivityQM/calculations/R01/reac01prodE03/conf10/R01_reac01prodE03_conf10_gfn1.xyz --opt --vfukui --chrg -1 --uhf 0 --alpb DMSO

   ID    Z sym.   atoms
    1    6 C      1, 3, 5, 6, 9, 10
    2    8 O      2, 4, 11
    3    7 N      7, 8
    4    1 H      12-20

      * Solvation model:               ALPB
        Solvent                        DMSO
        Solvent mass                       7.8130E+01 g/mol
          :  Hamiltonian                  GFN1-xTB          :
 * total energy  :   -38.3108216 Eh     change       -0.2604139E-10 Eh
 * total energy  :   -38.3217348 Eh     change       -0.1091325E-01 Eh
 * total energy  :   -38.3253940 Eh     change       -0.3659168E-02 Eh
 * total energy  :   -38.3259854 Eh     change       -0.5914117E-03 Eh
 * total energy  :   -38.3265323 Eh     change       -0.5468865E-03 Eh
 * total energy  :   -38.3268411 Eh     change       -0.3088059E-03 Eh
 * total energy  :   -38.3272834 Eh     change       -0.4423116E-03 Eh
 * total energy  :   -38.3276432 Eh     change       -0.3597968E-03 Eh
 * total energy  :   -38.3279425 Eh     change       -0.2992458E-03 Eh
 * total energy  :   -38.3276720 Eh     change        0.2704840E-03 Eh
 * total energy  :   -38.3289792 Eh     change       -0.2925582E-04 Eh
 * total energy  :   -38.3290023 Eh     change       -0.2313958E-04 Eh
 * total energy  :   -38.3290352 Eh     change       -0.3286039E-04 Eh
 * total energy  :   -38.3290677 Eh     change       -0.3254074E-04 Eh
 * total energy  :   -38.3290875 Eh     change       -0.1980313E-04 Eh
 * total energy  :   -38.3291066 Eh     change       -0.1907188E-04 Eh
 * total energy  :   -38.3291151 Eh     change       -0.8463096E-05 Eh
 * total energy  :   -38.3291209 Eh     change       -0.5847297E-05 Eh
 * total energy  :   -38.3291244 Eh     change       -0.3470166E-05 Eh
   *** GEOMETRY OPTIMIZATION CONVERGED AFTER 54 ITERATIONS ***

 final structure:
================
20
 xtb: 6.5.1 (579679a)
C            2.57709597001842       -1.58958011158398       -0.08422249643000
O            1.36680649537786       -0.91283281076418        0.22615166377080
C            1.35281387915977        0.42381324380362       -0.02416985121921
O            2.35197648289963        1.00941366679054       -0.43617990763785
C           -0.04562636530980        1.03291510854010       -0.00632949600429
C           -0.04339293276086        2.51703065182756        0.36528585190419
N           -0.33546469335871        0.77161081249632       -1.41565352092623
N           -1.32368815682539       -0.18022725253584       -1.40493899578564
C           -1.67716548803200       -0.43834149485483       -0.20375345332631
C           -2.73886735580629       -1.37699984767981        0.25110793353225
O           -0.97457517970704        0.29186863103461        0.76506392149663
H            3.41317575535819       -1.16673611856106        0.48238238432784
H            2.44060253388544       -2.63485212541595        0.19091782376248
H            2.80358346733638       -1.51522165425840       -1.15346135347504
H            0.74523511884753        3.02432208625474       -0.18730787441229
H            0.12671713369356        2.63794632223075        1.43364298090069
H           -1.00529442810046        2.95383031134251        0.10495284644546
H           -3.26546129508302       -1.77092215224214       -0.61666111623812
H           -2.31500635008332       -2.21132716741345        0.81471085038195
H           -3.45346259151016       -0.86571109901095        0.89846080893220

          :  Hamiltonian                  GFN1-xTB          :
         :: total energy             -38.329124381675 Eh    ::
         :: gradient norm              0.000733375511 Eh/a0 ::
         :: HOMO-LUMO gap              2.069966474779 eV    ::
         :: SCC energy               -38.635669777841 Eh    ::
         :: -> Gsolv                  -0.104129454267 Eh    ::
         :: repulsion energy           0.315426052249 Eh    ::

    * Orbital Energies and Occupations

         #    Occupation            Energy/Eh            Energy/eV
      -------------------------------------------------------------
         1        2.0000           -0.7919824             -21.5509
       ...           ...                  ...                  ...
        19        2.0000           -0.5037688             -13.7082
        20        2.0000           -0.4985450             -13.5661
        21        2.0000           -0.4935404             -13.4299
        22        2.0000           -0.4883550             -13.2888
        23        2.0000           -0.4755570             -12.9406
        24        2.0000           -0.4682327             -12.7413
        25        2.0000           -0.4606886             -12.5360
        26        2.0000           -0.4579125             -12.4604
        27        2.0000           -0.4194586             -11.4140
        28        2.0000           -0.4135283             -11.2527
        29        2.0000           -0.3892006             -10.5907
        30        2.0000           -0.3627764              -9.8716
        31        2.0000           -0.2896181              -7.8809 (HOMO)
        32                         -0.2135482              -5.8109 (LUMO)
        33                         -0.1708721              -4.6497
        34                         -0.1206253              -3.2824
        35                         -0.1132255              -3.0810
        36                         -0.0980628              -2.6684
        37                         -0.0584399              -1.5902
        38                         -0.0571007              -1.5538
        39                         -0.0469441              -1.2774
        40                         -0.0455069              -1.2383
        41                         -0.0392638              -1.0684
        42                         -0.0342794              -0.9328
       ...                                ...                  ...
        62                          0.6686363              18.1945
      -------------------------------------------------------------
                  HL-Gap            0.0760699 Eh            2.0700 eV

Wiberg/Mayer (AO) data.
largest (>0.10) Wiberg bond orders for each atom

     #   Z sym  total        # sym  WBO       # sym  WBO       # sym  WBO
 ---------------------------------------------------------------------------
     1   6 C    3.903 --    13 H    0.987    12 H    0.981    14 H    0.981
                             2 O    0.926
     2   8 O    2.151 --     3 C    1.043     1 C    0.926     4 O    0.104
     3   6 C    3.815 --     4 O    1.569     2 O    1.043     5 C    0.921
                             7 N    0.179
     4   8 O    1.854 --     3 C    1.569     2 O    0.104
     5   6 C    3.901 --     6 C    0.980     7 N    0.967    11 O    0.928
                             3 C    0.921
     6   6 C    3.996 --    16 H    0.987    17 H    0.986    15 H    0.986
                             5 C    0.980
     7   7 N    2.660 --     8 N    1.161     5 C    0.967     3 C    0.179
                             9 C    0.162
     8   7 N    3.013 --     9 C    1.688     7 N    1.161
     9   6 C    3.879 --     8 N    1.688    10 C    1.018    11 O    0.939
                             7 N    0.162
    10   6 C    3.996 --     9 C    1.018    18 H    0.987    20 H    0.977
                            19 H    0.975
    11   8 O    2.067 --     9 C    0.939     5 C    0.928
    12   1 H    1.016 --     1 C    0.981
    13   1 H    1.017 --     1 C    0.987
    14   1 H    1.013 --     1 C    0.981
    15   1 H    1.017 --     6 C    0.986
    16   1 H    1.009 --     6 C    0.987
    17   1 H    1.018 --     6 C    0.986
    18   1 H    1.009 --    10 C    0.987
    19   1 H    1.008 --    10 C    0.975
    20   1 H    1.007 --    10 C    0.977
 ---------------------------------------------------------------------------

           -------------------------------------------------
          | TOTAL ENERGY              -38.329124381675 Eh   |
          | GRADIENT NORM               0.000733375511 Eh/α |
          | HOMO-LUMO GAP               2.069966474779 eV   |
           -------------------------------------------------

 * finished run on 2023/06/20 at 14:53:20.353
