   * xtb version 6.5.1 (579679a) compiled by 'ehlert@majestix' on 2022-07-11
          program call               : /lustre/hpc/kemi/ree/PhD/git/ReactivityQM/dep/xtb-6.5.1/bin/xtb --gfn 1 /lustre/hpc/kemi/ree/PhD/git/ReactivityQM/calculations/RaltegravirCLI/reac02prodE09/conf02/RaltegravirCLI_reac02prodE09_conf02_gfn1.xyz --opt --vfukui --chrg -1 --uhf 0 --alpb DMSO

   ID    Z sym.   atoms
    1    6 C      1, 3-6, 9, 10, 13-18, 20-22, 24
    2    7 N      2, 7, 8, 12
    3    8 O      11, 23, 25
    4    9 F      19
    5    1 H      26-47

      * Solvation model:               ALPB
        Solvent                        DMSO
        Solvent mass                       7.8130E+01 g/mol
          :  Hamiltonian                  GFN1-xTB          :
 * total energy  :   -80.1940823 Eh     change       -0.9094947E-12 Eh
 * total energy  :   -80.2030228 Eh     change       -0.8940496E-02 Eh
 * total energy  :   -80.2066951 Eh     change       -0.3672370E-02 Eh
 * total energy  :   -80.2077703 Eh     change       -0.1075140E-02 Eh
 * total energy  :   -80.2089742 Eh     change       -0.1203957E-02 Eh
 * total energy  :   -80.2099905 Eh     change       -0.1016268E-02 Eh
 * total energy  :   -80.2115700 Eh     change       -0.1579448E-02 Eh
 * total energy  :   -80.2140139 Eh     change       -0.2443906E-02 Eh
 * total energy  :   -80.2165459 Eh     change       -0.2532037E-02 Eh
 * total energy  :   -80.2184938 Eh     change       -0.1947904E-02 Eh
 * total energy  :   -80.2366261 Eh     change       -0.9968059E-05 Eh
 * total energy  :   -80.2366266 Eh     change       -0.4530588E-06 Eh
 * total energy  :   -80.2366376 Eh     change       -0.1102301E-04 Eh
 * total energy  :   -80.2366439 Eh     change       -0.6285098E-05 Eh
 * total energy  :   -80.2366495 Eh     change       -0.5570436E-05 Eh
 * total energy  :   -80.2366548 Eh     change       -0.5348943E-05 Eh
 * total energy  :   -80.2366614 Eh     change       -0.6627895E-05 Eh
 * total energy  :   -80.2366683 Eh     change       -0.6860371E-05 Eh
 * total energy  :   -80.2366731 Eh     change       -0.4752049E-05 Eh
   *** GEOMETRY OPTIMIZATION CONVERGED AFTER 74 ITERATIONS ***

 final structure:
================
47
 xtb: 6.5.1 (579679a)
C           -4.25086729473179        0.16720380916470       -2.79299654784773
N           -3.04168051692570        0.58679061506618       -2.07996412565774
C           -2.66007580059628        0.08932532020421       -0.86269709569873
C           -3.47989958763944       -0.94922201514253       -0.10356424300906
C           -2.67457890561565       -1.44671817064005        1.10746190993516
C           -4.78256914465920       -0.30648295607231        0.39241461463393
N           -3.80056477223962       -2.08242388224875       -0.96958183429476
N           -1.59253925752177        0.52062039777260       -0.26245400366764
C           -0.81733163830827        1.49058142359954       -0.82979911360982
C            0.38111508013357        1.93719569658178       -0.07630442555904
O            1.14877790469700        2.79596936128122       -0.52681573201241
N            0.54785555272987        1.34966675781009        1.11279944432635
C            1.66602357374177        1.68301937244685        1.99160925509188
C            2.85480509413168        0.79188386823417        1.70260484990083
C            3.75097029445777        1.12192970719464        0.68881668249506
C            4.82842986366339        0.29587982079608        0.40867837016830
C            5.03592201739943       -0.88045316219328        1.13005350638592
C            6.18440354268970       -1.78587830116403        0.80395762247297
F            5.29766669253974       -3.64354651801662       -1.43078190148395
C            4.13428003198204       -1.20507884766416        2.14325577271370
C            3.05577996204468       -0.37950441583015        2.42662458322940
C           -1.13793824867113        2.04087574779698       -2.04238467125532
O           -0.41144530995082        2.99984446951037       -2.63288691369992
C           -2.33538832627057        1.59506286483931       -2.73932640762865
O           -2.73493943779266        2.03536727984788       -3.81162676263947
H           -5.03913852253869        0.90216398797216       -2.62706322134320
H           -4.56732877193541       -0.81302804426815       -2.45137528232689
H           -4.02454356075032        0.12678792749543       -3.85935865155170
H           -2.48603119027013       -0.62946598303586        1.80150449721824
H           -1.72017513623496       -1.85928149613390        0.78308540202893
H           -3.24015071358506       -2.22320699202974        1.61920379267870
H           -5.42190315397073       -0.01634772815777       -0.43863589497413
H           -4.55808093786290        0.57653430330085        0.98962362126520
H           -5.32494227774392       -1.01919310790513        1.01181333347310
H           -4.47349619236616       -2.66887997054933       -0.49781978355446
H           -2.96794854242627       -2.63591443503211       -1.12594992716843
H           -0.12736663629001        0.66501048617394        1.41710363689283
H            1.92227152483619        2.73376102403481        1.82160472234999
H            1.32661679803079        1.55814471744139        3.02202239029644
H            3.60346347811529        2.03454254081797        0.12089325615795
H            5.52341246600278        0.57589090149425       -0.37710244743383
H            7.03847952514992       -1.21600845962867        0.43715844037737
H            5.88208093164191       -2.49420870318307        0.01442645088323
H            6.48977526759515       -2.35989022330616        1.67875722059769
H            4.27739571435914       -2.10893691012073        2.72659098917657
H            2.36928480754176       -0.64405239911601        3.22315823063176
H            0.35211475346795        3.21995132052736       -2.03673560899526

          :  Hamiltonian                  GFN1-xTB          :
         :: total energy             -80.236673054563 Eh    ::
         :: gradient norm              0.000367519823 Eh/a0 ::
         :: HOMO-LUMO gap              0.668743652056 eV    ::
         :: SCC energy               -81.126830686580 Eh    ::
         :: -> Gsolv                  -0.157610343167 Eh    ::
         :: repulsion energy           0.919725954622 Eh    ::

    * Orbital Energies and Occupations

         #    Occupation            Energy/Eh            Energy/eV
      -------------------------------------------------------------
         1        2.0000           -0.8201795             -22.3182
       ...           ...                  ...                  ...
        56        2.0000           -0.4631024             -12.6017
        57        2.0000           -0.4594281             -12.5017
        58        2.0000           -0.4494773             -12.2309
        59        2.0000           -0.4478960             -12.1879
        60        2.0000           -0.4325099             -11.7692
        61        2.0000           -0.4276652             -11.6374
        62        2.0000           -0.4239491             -11.5362
        63        2.0000           -0.4146571             -11.2834
        64        2.0000           -0.4111673             -11.1884
        65        2.0000           -0.4094369             -11.1413
        66        2.0000           -0.3322799              -9.0418
        67        2.0000           -0.3322771              -9.0417
        68        2.0000           -0.3317424              -9.0272 (HOMO)
        69        0.0000           -0.3071666              -8.3584 (LUMO)
        70                         -0.2718476              -7.3973
        71                         -0.2456192              -6.6836
        72                         -0.2444926              -6.6530
        73                         -0.2234935              -6.0816
        74                         -0.1439883              -3.9181
        75                         -0.1330622              -3.6208
        76                         -0.1238847              -3.3711
        77                         -0.1220544              -3.3213
        78                         -0.1181569              -3.2152
        79                         -0.1123030              -3.0559
       ...                                ...                  ...
       144                          0.7146833              19.4475
      -------------------------------------------------------------
                  HL-Gap            0.0245759 Eh            0.6687 eV

Wiberg/Mayer (AO) data.
largest (>0.10) Wiberg bond orders for each atom

     #   Z sym  total        # sym  WBO       # sym  WBO       # sym  WBO
 ---------------------------------------------------------------------------
     1   6 C    3.923 --    26 H    0.977    28 H    0.977    27 H    0.968
                             2 N    0.931
     2   7 N    3.508 --     3 C    1.185    24 C    1.110     1 C    0.931
                            25 O    0.133
     3   6 C    3.923 --     8 N    1.549     2 N    1.185     4 C    0.975
     4   6 C    3.965 --     5 C    0.992     6 C    0.985     7 N    0.980
                             3 C    0.975
     5   6 C    3.995 --     4 C    0.992    31 H    0.985    30 H    0.984
                            29 H    0.983
     6   6 C    3.993 --    33 H    0.985     4 C    0.985    34 H    0.983
                            32 H    0.982
     7   7 N    2.994 --     4 C    0.980    36 H    0.940    35 H    0.940
     8   7 N    3.045 --     3 C    1.549     9 C    1.193
     9   6 C    3.963 --    22 C    1.482     8 N    1.193    10 C    1.015
    10   6 C    3.908 --    11 O    1.509    12 N    1.301     9 C    1.015
    11   8 O    1.903 --    10 C    1.509    12 N    0.165
    12   7 N    3.377 --    10 C    1.301    13 C    0.931    37 H    0.897
                            11 O    0.165
    13   6 C    3.941 --    14 C    0.991    39 H    0.977    38 H    0.972
                            12 N    0.931
    14   6 C    3.983 --    21 C    1.418    15 C    1.412    13 C    0.991
                            17 C    0.106
    15   6 C    3.995 --    16 C    1.455    14 C    1.412    40 H    0.971
                            20 C    0.108
    16   6 C    3.995 --    15 C    1.455    17 C    1.402    41 H    0.973
                            21 C    0.107
    17   6 C    3.985 --    20 C    1.406    16 C    1.402    18 C    1.033
                            14 C    0.106
    18   6 C    3.989 --    17 C    1.033    44 H    0.984    42 H    0.983
                            43 H    0.926
    19   9 F    0.101
    20   6 C    3.995 --    21 C    1.450    17 C    1.406    45 H    0.973
                            15 C    0.108
    21   6 C    3.995 --    20 C    1.450    14 C    1.418    46 H    0.973
                            16 C    0.107
    22   6 C    3.923 --     9 C    1.482    23 O    1.108    24 C    1.084
    23   8 O    2.068 --    22 C    1.108    47 H    0.769
    24   6 C    3.913 --    25 O    1.565     2 N    1.110    22 C    1.084
    25   8 O    1.879 --    24 C    1.565     2 N    0.133
    26   1 H    1.005 --     1 C    0.977
    27   1 H    1.029 --     1 C    0.968
    28   1 H    1.010 --     1 C    0.977
    29   1 H    1.012 --     5 C    0.983
    30   1 H    1.009 --     5 C    0.984
    31   1 H    1.003 --     5 C    0.985
    32   1 H    1.003 --     6 C    0.982
    33   1 H    1.003 --     6 C    0.985
    34   1 H    1.000 --     6 C    0.983
    35   1 H    0.954 --     7 N    0.940
    36   1 H    0.956 --     7 N    0.940
    37   1 H    0.961 --    12 N    0.897
    38   1 H    1.009 --    13 C    0.972
    39   1 H    1.004 --    13 C    0.977
    40   1 H    1.011 --    15 C    0.971
    41   1 H    1.003 --    16 C    0.973
    42   1 H    1.006 --    18 C    0.983
    43   1 H    1.038 --    18 C    0.926
    44   1 H    1.006 --    18 C    0.984
    45   1 H    1.003 --    20 C    0.973
    46   1 H    1.002 --    21 C    0.973
    47   1 H    0.861 --    23 O    0.769
 ---------------------------------------------------------------------------

           -------------------------------------------------
          | TOTAL ENERGY              -80.236673054563 Eh   |
          | GRADIENT NORM               0.000367519823 Eh/α |
          | HOMO-LUMO GAP               0.668743652056 eV   |
           -------------------------------------------------

 * finished run on 2023/06/20 at 15:10:13.006
