   * xtb version 6.5.1 (579679a) compiled by 'ehlert@majestix' on 2022-07-11
          program call               : /lustre/hpc/kemi/ree/PhD/git/ReactivityQM/dep/xtb-6.5.1/bin/xtb --gfn 1 /lustre/hpc/kemi/ree/PhD/git/ReactivityQM/calculations/R01/reac01prodN04/conf12/R01_reac01prodN04_conf12_gfn1.xyz --opt --vfukui --chrg 1 --uhf 0 --alpb DMSO

   ID    Z sym.   atoms
    1    6 C      1, 3, 5, 8-10
    2    8 O      2, 4, 11
    3    7 N      6, 7
    4    1 H      12-20

      * Solvation model:               ALPB
        Solvent                        DMSO
        Solvent mass                       7.8130E+01 g/mol
          :  Hamiltonian                  GFN1-xTB          :
 * total energy  :   -37.6285268 Eh     change       -0.7830181E-11 Eh
 * total energy  :   -37.6405109 Eh     change       -0.1198405E-01 Eh
 * total energy  :   -37.6440129 Eh     change       -0.3502087E-02 Eh
 * total energy  :   -37.6446406 Eh     change       -0.6276996E-03 Eh
 * total energy  :   -37.6450760 Eh     change       -0.4353172E-03 Eh
 * total energy  :   -37.6452269 Eh     change       -0.1509696E-03 Eh
 * total energy  :   -37.6453741 Eh     change       -0.1471585E-03 Eh
 * total energy  :   -37.6454979 Eh     change       -0.1238431E-03 Eh
 * total energy  :   -37.6455612 Eh     change       -0.6325972E-04 Eh
 * total energy  :   -37.6455977 Eh     change       -0.3646596E-04 Eh
 * total energy  :   -37.6456085 Eh     change       -0.1082407E-04 Eh
 * total energy  :   -37.6456133 Eh     change       -0.4788146E-05 Eh
   *** GEOMETRY OPTIMIZATION CONVERGED AFTER 12 ITERATIONS ***

 final structure:
================
20
 xtb: 6.5.1 (579679a)
C            4.05488034991101        0.75126042595012       -0.14218549631761
O            2.61616691020027        0.68388936878400       -0.16888698307783
C            2.07419930543261       -0.49262335000318       -0.35838357875428
O            2.64488711321740       -1.53469870392323       -0.52103599584562
C            0.56899025575744       -0.40298935215060       -0.34780859241583
N           -0.26805404657821       -1.38183916901782       -0.51031994112747
N           -1.48297308070667       -0.81793564409953       -0.41134955565238
C           -2.67546334338154       -1.63260528162507       -0.54307484797819
C           -1.36256589453179        0.47740878114372       -0.19367069525657
C           -2.41001532071781        1.49159361164224       -0.00449121996089
O           -0.07773704301457        0.76016826549078       -0.15000096944233
H            4.30364354567860        1.80435357080373       -0.03814370725657
H            4.45795449718078        0.34466866830047       -1.07096707040177
H            4.42899802564170        0.17803211072014        0.70739496544255
H           -3.24236430907195       -1.29109115036248       -1.40748611823401
H           -3.27498264538783       -1.52833410351632        0.35908165570600
H           -2.36022602310673       -2.66420538365446       -0.67678752729148
H           -3.35970341343479        1.13967692162932       -0.40038819317394
H           -2.11154342646977        2.41914792046098       -0.49362159319354
H           -2.52409245661808        1.69612049342718        1.06308746423182

          :  Hamiltonian                  GFN1-xTB          :
         :: total energy             -37.645613263993 Eh    ::
         :: gradient norm              0.000479358349 Eh/a0 ::
         :: HOMO-LUMO gap              4.079570229326 eV    ::
         :: SCC energy               -38.000612036343 Eh    ::
         :: -> Gsolv                  -0.086203635291 Eh    ::
         :: repulsion energy           0.363025989116 Eh    ::

    * Orbital Energies and Occupations

         #    Occupation            Energy/Eh            Energy/eV
      -------------------------------------------------------------
         1        2.0000           -0.9449263             -25.7128
       ...           ...                  ...                  ...
        18        2.0000           -0.6256271             -17.0242
        19        2.0000           -0.6139956             -16.7077
        20        2.0000           -0.6008739             -16.3506
        21        2.0000           -0.5946025             -16.1800
        22        2.0000           -0.5920845             -16.1114
        23        2.0000           -0.5816956             -15.8287
        24        2.0000           -0.5741429             -15.6232
        25        2.0000           -0.5676275             -15.4459
        26        2.0000           -0.5532576             -15.0549
        27        2.0000           -0.5396716             -14.6852
        28        2.0000           -0.5288937             -14.3919
        29        2.0000           -0.5251189             -14.2892
        30        2.0000           -0.5224824             -14.2175 (HOMO)
        31                         -0.3725610             -10.1379 (LUMO)
        32                         -0.3502919              -9.5319
        33                         -0.2566331              -6.9833
        34                         -0.1871464              -5.0925
        35                         -0.1755676              -4.7774
        36                         -0.1533042              -4.1716
        37                         -0.1215262              -3.3069
        38                         -0.1157818              -3.1506
        39                         -0.1055137              -2.8712
        40                         -0.0945615              -2.5731
        41                         -0.0891783              -2.4267
       ...                                ...                  ...
        62                          0.7349298              19.9985
      -------------------------------------------------------------
                  HL-Gap            0.1499214 Eh            4.0796 eV

Wiberg/Mayer (AO) data.
largest (>0.10) Wiberg bond orders for each atom

     #   Z sym  total        # sym  WBO       # sym  WBO       # sym  WBO
 ---------------------------------------------------------------------------
     1   6 C    3.837 --    12 H    0.984    13 H    0.977    14 H    0.976
                             2 O    0.865
     2   8 O    2.245 --     3 C    1.175     1 C    0.865     4 O    0.158
     3   6 C    3.878 --     4 O    1.692     2 O    1.175     5 C    0.946
     4   8 O    1.970 --     3 C    1.692     2 O    0.158
     5   6 C    3.854 --     6 N    1.618    11 O    1.064     3 C    0.946
     6   7 N    2.993 --     5 C    1.618     7 N    1.161
     7   7 N    3.630 --     9 C    1.415     6 N    1.161     8 C    0.906
     8   6 C    3.880 --    17 H    0.978    16 H    0.970    15 H    0.967
                             7 N    0.906
     9   6 C    3.839 --     7 N    1.415    11 O    1.156    10 C    1.044
    10   6 C    3.959 --     9 C    1.044    18 H    0.971    19 H    0.955
                            20 H    0.930
    11   8 O    2.388 --     9 C    1.156     5 C    1.064
    12   1 H    1.005 --     1 C    0.984
    13   1 H    1.000 --     1 C    0.977
    14   1 H    1.000 --     1 C    0.976
    15   1 H    0.989 --     8 C    0.967
    16   1 H    0.989 --     8 C    0.970
    17   1 H    0.992 --     8 C    0.978
    18   1 H    0.987 --    10 C    0.971
    19   1 H    0.984 --    10 C    0.955
    20   1 H    0.983 --    10 C    0.930
 ---------------------------------------------------------------------------

           -------------------------------------------------
          | TOTAL ENERGY              -37.645613263993 Eh   |
          | GRADIENT NORM               0.000479358349 Eh/α |
          | HOMO-LUMO GAP               4.079570229326 eV   |
           -------------------------------------------------

 * finished run on 2023/06/20 at 14:55:34.911
