   * xtb version 6.5.1 (579679a) compiled by 'ehlert@majestix' on 2022-07-11
          program call               : /lustre/hpc/kemi/ree/PhD/git/ReactivityQM/dep/xtb-6.5.1/bin/xtb --gfn 1 /lustre/hpc/kemi/ree/PhD/git/ReactivityQM/calculations/RaltegravirCLI/reac01prodE01/conf04/RaltegravirCLI_reac01prodE01_conf04_gfn1.xyz --opt --vfukui --chrg -1 --uhf 0 --alpb DMSO

   ID    Z sym.   atoms
    1    6 C      1, 2, 5-7
    2    7 N      3, 4
    3    8 O      8, 10
    4   17 Cl     9
    5    1 H      11-16

      * Solvation model:               ALPB
        Solvent                        DMSO
        Solvent mass                       7.8130E+01 g/mol
          :  Hamiltonian                  GFN1-xTB          :
 * total energy  :   -34.1555206 Eh     change       -0.5158540E-11 Eh
 * total energy  :   -34.1680650 Eh     change       -0.1254435E-01 Eh
 * total energy  :   -34.1781534 Eh     change       -0.1008845E-01 Eh
 * total energy  :   -34.1812041 Eh     change       -0.3050644E-02 Eh
 * total energy  :   -34.1866378 Eh     change       -0.5433754E-02 Eh
 * total energy  :   -34.1908727 Eh     change       -0.4234860E-02 Eh
 * total energy  :   -34.1946260 Eh     change       -0.3753271E-02 Eh
 * total energy  :   -34.1964640 Eh     change       -0.1838054E-02 Eh
 * total energy  :   -34.1987665 Eh     change       -0.2302481E-02 Eh
 * total energy  :   -34.2001042 Eh     change       -0.1337726E-02 Eh
 * total energy  :   -34.2081765 Eh     change       -0.2022293E-04 Eh
 * total energy  :   -34.2081956 Eh     change       -0.1904111E-04 Eh
 * total energy  :   -34.2082107 Eh     change       -0.1512322E-04 Eh
 * total energy  :   -34.2082235 Eh     change       -0.1281014E-04 Eh
 * total energy  :   -34.2082338 Eh     change       -0.1024525E-04 Eh
 * total energy  :   -34.2082493 Eh     change       -0.1551410E-04 Eh
 * total energy  :   -34.2082660 Eh     change       -0.1676149E-04 Eh
 * total energy  :   -34.2082730 Eh     change       -0.6960169E-05 Eh
 * total energy  :   -34.2082772 Eh     change       -0.4240426E-05 Eh
   *** GEOMETRY OPTIMIZATION CONVERGED AFTER 48 ITERATIONS ***

 final structure:
================
16
 xtb: 6.5.1 (579679a)
C            3.23426697461401       -0.24496954614755       -0.55376559583112
C            1.75647059103171       -0.28961874696896       -0.55080830395299
N            0.99241838386382       -1.21344019888318       -1.05432103559249
N           -0.28688692533364       -0.82607890361716       -0.82460842390040
C           -0.23378318275506        0.31009031215086       -0.19246033703939
C           -1.37966653786481        1.12389752707641        0.27342226584467
C           -2.71680537743942        0.55740147105690       -0.09500689771384
O           -1.22505623947884        2.15285748240342        0.89102130570861
Cl          -2.88906815201244       -2.80786675317858        1.36720537592728
O            1.04652477933827        0.69585532134344        0.00694423027767
H            3.60943944287703       -0.19471616730628        0.46794243557725
H            3.57714219730352        0.64456817123192       -1.08116564913536
H            3.62685909880791       -1.13172600116018       -1.04455741583453
H           -3.51015839790474        1.20173022644245        0.27394044834238
H           -2.81637302596003       -0.44378820518024        0.33049640341081
H           -2.78532162908273        0.46580501074055       -1.17752680609410

          :  Hamiltonian                  GFN1-xTB          :
         :: total energy             -34.208277241310 Eh    ::
         :: gradient norm              0.000300226391 Eh/a0 ::
         :: HOMO-LUMO gap              3.354667478847 eV    ::
         :: SCC energy               -34.493016413567 Eh    ::
         :: -> Gsolv                  -0.111140996979 Eh    ::
         :: repulsion energy           0.291503169362 Eh    ::

    * Orbital Energies and Occupations

         #    Occupation            Energy/Eh            Energy/eV
      -------------------------------------------------------------
         1        2.0000           -0.8610659             -23.4308
       ...           ...                  ...                  ...
        16        2.0000           -0.5456375             -14.8476
        17        2.0000           -0.5415280             -14.7357
        18        2.0000           -0.5322835             -14.4842
        19        2.0000           -0.5215739             -14.1927
        20        2.0000           -0.5163497             -14.0506
        21        2.0000           -0.5034116             -13.6985
        22        2.0000           -0.4795695             -13.0498
        23        2.0000           -0.4741598             -12.9025
        24        2.0000           -0.4741483             -12.9022
        25        2.0000           -0.4721851             -12.8488
        26        2.0000           -0.4587310             -12.4827
        27        2.0000           -0.4540492             -12.3553
        28        2.0000           -0.4474255             -12.1751 (HOMO)
        29                         -0.3241437              -8.8204 (LUMO)
        30                         -0.2554629              -6.9515
        31                         -0.2097474              -5.7075
        32                         -0.1427181              -3.8836
        33                         -0.1228776              -3.3437
        34                         -0.0746837              -2.0322
        35                         -0.0743222              -2.0224
        36                         -0.0636849              -1.7330
        37                         -0.0468101              -1.2738
        38                          0.0347023               0.9443
        39                          0.0357162               0.9719
       ...                                ...                  ...
        57                          0.7113222              19.3561
      -------------------------------------------------------------
                  HL-Gap            0.1232818 Eh            3.3547 eV

Wiberg/Mayer (AO) data.
largest (>0.10) Wiberg bond orders for each atom

     #   Z sym  total        # sym  WBO       # sym  WBO       # sym  WBO
 ---------------------------------------------------------------------------
     1   6 C    3.987 --     2 C    1.032    13 H    0.983    11 H    0.963
                            12 H    0.963
     2   6 C    3.874 --     3 N    1.586    10 O    1.097     1 C    1.032
     3   7 N    2.983 --     2 C    1.586     4 N    1.220
     4   7 N    3.010 --     5 C    1.597     3 N    1.220
     5   6 C    3.871 --     4 N    1.597    10 O    1.048     6 C    1.012
     6   6 C    3.865 --     8 O    1.746     7 C    1.013     5 C    1.012
     7   6 C    3.990 --     6 C    1.013    14 H    0.983    16 H    0.959
                            15 H    0.943
     8   8 O    1.970 --     6 C    1.746
     9  17 Cl   0.040
    10   8 O    2.329 --     2 C    1.097     5 C    1.048
    11   1 H    0.997 --     1 C    0.963
    12   1 H    0.997 --     1 C    0.963
    13   1 H    0.999 --     1 C    0.983
    14   1 H    1.001 --     7 C    0.983
    15   1 H    1.018 --     7 C    0.943
    16   1 H    1.002 --     7 C    0.959
 ---------------------------------------------------------------------------

           -------------------------------------------------
          | TOTAL ENERGY              -34.208277241310 Eh   |
          | GRADIENT NORM               0.000300226391 Eh/α |
          | HOMO-LUMO GAP               3.354667478847 eV   |
           -------------------------------------------------

 * finished run on 2023/06/20 at 14:52:06.139
