   * xtb version 6.5.1 (579679a) compiled by 'ehlert@majestix' on 2022-07-11
          program call               : /lustre/hpc/kemi/ree/PhD/git/ReactivityQM/dep/xtb-6.5.1/bin/xtb --gfn 1 /lustre/hpc/kemi/ree/PhD/git/ReactivityQM/calculations/R02/reac01prodN01/conf19/R02_reac01prodN01_conf19_gfn1.xyz --opt --vfukui --chrg 1 --uhf 0 --alpb DMSO

   ID    Z sym.   atoms
    1    6 C      1, 3, 5, 7-10, 12, 14, 17, 18, 20, 22, 24
    2    8 O      2, 4, 13, 19, 23, 25
    3    7 N      6, 11, 15, 16, 21
    4    1 H      26-43

      * Solvation model:               ALPB
        Solvent                        DMSO
        Solvent mass                       7.8130E+01 g/mol
          :  Hamiltonian                  GFN1-xTB          :
 * total energy  :   -83.0831671 Eh     change       -0.3154810E-11 Eh
 * total energy  :   -83.1013759 Eh     change       -0.1820880E-01 Eh
 * total energy  :   -83.1096876 Eh     change       -0.8311659E-02 Eh
 * total energy  :   -83.1122377 Eh     change       -0.2550182E-02 Eh
 * total energy  :   -83.1139037 Eh     change       -0.1665951E-02 Eh
 * total energy  :   -83.1146789 Eh     change       -0.7751829E-03 Eh
 * total energy  :   -83.1151662 Eh     change       -0.4873530E-03 Eh
 * total energy  :   -83.1154522 Eh     change       -0.2859210E-03 Eh
 * total energy  :   -83.1156150 Eh     change       -0.1628684E-03 Eh
 * total energy  :   -83.1157467 Eh     change       -0.1316324E-03 Eh
 * total energy  :   -83.1168107 Eh     change       -0.4027734E-04 Eh
 * total energy  :   -83.1169193 Eh     change       -0.1085778E-03 Eh
 * total energy  :   -83.1169656 Eh     change       -0.4623812E-04 Eh
 * total energy  :   -83.1170176 Eh     change       -0.5209085E-04 Eh
 * total energy  :   -83.1170519 Eh     change       -0.3429339E-04 Eh
 * total energy  :   -83.1170704 Eh     change       -0.1850211E-04 Eh
 * total energy  :   -83.1170841 Eh     change       -0.1366249E-04 Eh
 * total energy  :   -83.1170936 Eh     change       -0.9532128E-05 Eh
 * total energy  :   -83.1170980 Eh     change       -0.4403237E-05 Eh
   *** GEOMETRY OPTIMIZATION CONVERGED AFTER 41 ITERATIONS ***

 final structure:
================
43
 xtb: 6.5.1 (579679a)
C            6.00142792715182       -2.28232718458327       -0.83870747176848
O            4.86323923289471       -1.49199981803481       -0.48057973244929
C            5.03155727931704       -0.16928606662284       -0.49280597552593
O            6.07455762836904        0.36338060944245       -0.79019812456102
C            3.78756681915108        0.55514030653573       -0.09617281197259
N            2.69553080452771       -0.23103972793444        0.19113398658119
C            1.58690646829659        0.31507722851038        0.54552438238561
C            0.39742768932002       -0.54680075572180        0.90656896576893
C            0.23263611536435       -0.53311242229462        2.43247215413391
C            0.58371846741535       -1.96889304163647        0.37378072289559
N           -0.78715898983652        0.06119881156022        0.26859240073256
C           -2.03069176402645       -0.39274739537312        0.45895020483995
O           -2.38241304903039       -1.29450929605652        1.19372474754806
C           -3.01456586412797        0.36878258233470       -0.37163514321891
N           -2.80733588542111        1.29635897993159       -1.22718240226781
N           -4.00626738697514        1.68542192273037       -1.75548060047820
C           -4.94022939691120        0.99402040010409       -1.22211216912620
C           -6.38978814555103        1.04248158466194       -1.46514031074233
O           -4.38154650720867        0.10124636602148       -0.29914899970764
C           -5.03418573701627       -0.89425722337226        0.55494543819725
N            1.44053185939313        1.67018840300044        0.66773820114305
C            2.45582846031272        2.55827096049850        0.39525137830202
O            2.31880437639126        3.76693736470785        0.49091111253236
C            3.70675213396284        1.91927996550777       -0.01199737856213
O            4.71907677152289        2.74672461139001       -0.27822994254845
H            6.82206654637979       -2.09585778031480       -0.14124738634340
H            6.32509843801235       -2.03731216635780       -1.85345735423084
H            5.68680461427597       -3.32227889626613       -0.78314975066173
H           -0.58212957662340       -1.18817827483862        2.73153435356605
H            1.15535985590383       -0.88213606601227        2.89408375302506
H            0.02098993395968        0.47770735940261        2.77492899523060
H           -0.26153182198809       -2.58812442174479        0.66566988157612
H            1.49956700778146       -2.38899156639854        0.78714830756785
H            0.65955566110243       -1.95197549893702       -0.71212343845405
H           -0.64360799229041        0.77477196601531       -0.42914631249032
H           -6.75146208889108        0.07319581520683       -1.80984755448138
H           -6.92223063339938        1.29945224242340       -0.54895350613165
H           -6.58892465811266        1.79663556495203       -2.22501714519965
H           -4.78433794203541       -0.64976064290328        1.58521465948054
H           -4.64402917737548       -1.86969749030693        0.27156405815710
H           -6.10063443749756       -0.81450541472538        0.36813663175553
H            0.56389221326518        2.06135448518310        0.97095720927898
H            4.42417275024929        3.66616362031210       -0.14861603377645

          :  Hamiltonian                  GFN1-xTB          :
         :: total energy             -83.117098034554 Eh    ::
         :: gradient norm              0.000642301269 Eh/a0 ::
         :: HOMO-LUMO gap              1.997143659671 eV    ::
         :: SCC energy               -83.923007190011 Eh    ::
         :: -> Gsolv                  -0.132877000663 Eh    ::
         :: repulsion energy           0.832044324824 Eh    ::

    * Orbital Energies and Occupations

         #    Occupation            Energy/Eh            Energy/eV
      -------------------------------------------------------------
         1        2.0000           -0.9698302             -26.3904
       ...           ...                  ...                  ...
        55        2.0000           -0.5222916             -14.2123
        56        2.0000           -0.5179270             -14.0935
        57        2.0000           -0.5170055             -14.0684
        58        2.0000           -0.5159653             -14.0401
        59        2.0000           -0.5117437             -13.9253
        60        2.0000           -0.5020067             -13.6603
        61        2.0000           -0.4972369             -13.5305
        62        2.0000           -0.4963364             -13.5060
        63        2.0000           -0.4915870             -13.3768
        64        2.0000           -0.4835001             -13.1567
        65        2.0000           -0.4706475             -12.8070
        66        2.0000           -0.4582680             -12.4701
        67        2.0000           -0.4412003             -12.0057 (HOMO)
        68                         -0.3678066             -10.0085 (LUMO)
        69                         -0.3322882              -9.0420
        70                         -0.3156379              -8.5889
        71                         -0.2955403              -8.0421
        72                         -0.2485819              -6.7643
        73                         -0.2472534              -6.7281
        74                         -0.1906938              -5.1890
        75                         -0.1760541              -4.7907
        76                         -0.1669152              -4.5420
        77                         -0.1430506              -3.8926
        78                         -0.1407749              -3.8307
       ...                                ...                  ...
       136                          0.7376916              20.0736
      -------------------------------------------------------------
                  HL-Gap            0.0733937 Eh            1.9971 eV

Wiberg/Mayer (AO) data.
largest (>0.10) Wiberg bond orders for each atom

     #   Z sym  total        # sym  WBO       # sym  WBO       # sym  WBO
 ---------------------------------------------------------------------------
     1   6 C    3.870 --    28 H    0.986    27 H    0.979    26 H    0.979
                             2 O    0.896
     2   8 O    2.200 --     3 C    1.113     1 C    0.896     4 O    0.136
     3   6 C    3.854 --     4 O    1.663     2 O    1.113     5 C    0.998
     4   8 O    1.928 --     3 C    1.663     2 O    0.136
     5   6 C    3.962 --    24 C    1.505     6 N    1.171     3 C    0.998
     6   7 N    3.030 --     7 C    1.607     5 C    1.171
     7   6 C    3.934 --     6 N    1.607    21 N    1.157     8 C    0.981
     8   6 C    3.917 --    10 C    0.990     7 C    0.981     9 C    0.977
                            11 N    0.902
     9   6 C    3.984 --    31 H    0.984    30 H    0.983    29 H    0.977
                             8 C    0.977
    10   6 C    3.986 --     8 C    0.990    34 H    0.984    32 H    0.982
                            33 H    0.981
    11   7 N    3.378 --    12 C    1.295     8 C    0.902    35 H    0.888
                            13 O    0.192
    12   6 C    3.926 --    13 O    1.590    11 N    1.295    14 C    0.969
    13   8 O    1.947 --    12 C    1.590    11 N    0.192
    14   6 C    3.803 --    15 N    1.704    12 C    0.969    19 O    0.888
    15   7 N    3.046 --    14 C    1.704    16 N    1.149
    16   7 N    3.024 --    17 C    1.694    15 N    1.149
    17   6 C    3.802 --    16 N    1.694    18 C    1.044    19 O    0.877
    18   6 C    3.968 --    17 C    1.044    38 H    0.969    36 H    0.950
                            37 H    0.950
    19   8 O    2.656 --    14 C    0.888    17 C    0.877    20 C    0.744
    20   6 C    3.721 --    41 H    0.974    39 H    0.967    40 H    0.967
                            19 O    0.744
    21   7 N    3.460 --     7 C    1.157    22 C    1.132    42 H    0.882
                            23 O    0.134
    22   6 C    3.908 --    23 O    1.587    21 N    1.132    24 C    1.058
    23   8 O    1.911 --    22 C    1.587    21 N    0.134
    24   6 C    3.921 --     5 C    1.505    25 O    1.118    22 C    1.058
    25   8 O    2.096 --    24 C    1.118    43 H    0.805
    26   1 H    1.007 --     1 C    0.979
    27   1 H    1.007 --     1 C    0.979
    28   1 H    1.011 --     1 C    0.986
    29   1 H    1.005 --     9 C    0.977
    30   1 H    0.999 --     9 C    0.983
    31   1 H    0.999 --     9 C    0.984
    32   1 H    1.003 --    10 C    0.982
    33   1 H    1.008 --    10 C    0.981
    34   1 H    1.003 --    10 C    0.984
    35   1 H    0.936 --    11 N    0.888
    36   1 H    0.988 --    18 C    0.950
    37   1 H    0.988 --    18 C    0.950
    38   1 H    0.989 --    18 C    0.969
    39   1 H    0.998 --    20 C    0.967
    40   1 H    0.999 --    20 C    0.967
    41   1 H    0.990 --    20 C    0.974
    42   1 H    0.924 --    21 N    0.882
    43   1 H    0.843 --    25 O    0.805
 ---------------------------------------------------------------------------

           -------------------------------------------------
          | TOTAL ENERGY              -83.117098034554 Eh   |
          | GRADIENT NORM               0.000642301269 Eh/α |
          | HOMO-LUMO GAP               1.997143659671 eV   |
           -------------------------------------------------

 * finished run on 2023/06/20 at 15:18:19.611
