   * xtb version 6.5.1 (579679a) compiled by 'ehlert@majestix' on 2022-07-11
          program call               : /lustre/hpc/kemi/ree/PhD/git/ReactivityQM/dep/xtb-6.5.1/bin/xtb --gfn 1 /lustre/hpc/kemi/ree/PhD/git/ReactivityQM/calculations/R02deprot/reac01prodE04/conf19/R02deprot_reac01prodE04_conf19_gfn1.xyz --opt --vfukui --chrg -2 --uhf 0 --alpb DMSO

   ID    Z sym.   atoms
    1    6 C      1, 3, 5, 6, 8-11, 13, 15, 18, 19, 22, 24
    2    8 O      2, 4, 14, 20, 23, 25
    3    7 N      7, 12, 16, 17, 21
    4    1 H      26-42

      * Solvation model:               ALPB
        Solvent                        DMSO
        Solvent mass                       7.8130E+01 g/mol
          :  Hamiltonian                  GFN1-xTB          :
 * total energy  :   -83.5704190 Eh     change       -0.4730751E-08 Eh
 * total energy  :   -83.5878605 Eh     change       -0.1744146E-01 Eh
 * total energy  :   -83.5943516 Eh     change       -0.6491090E-02 Eh
 * total energy  :   -83.5956187 Eh     change       -0.1267171E-02 Eh
 * total energy  :   -83.5962291 Eh     change       -0.6103427E-03 Eh
 * total energy  :   -83.5964197 Eh     change       -0.1905992E-03 Eh
 * total energy  :   -83.5965011 Eh     change       -0.8144835E-04 Eh
 * total energy  :   -83.5965531 Eh     change       -0.5192817E-04 Eh
 * total energy  :   -83.5966006 Eh     change       -0.4755664E-04 Eh
 * total energy  :   -83.5966594 Eh     change       -0.5874296E-04 Eh
 * total energy  :   -83.6022329 Eh     change       -0.9798525E-05 Eh
 * total energy  :   -83.6022426 Eh     change       -0.9725148E-05 Eh
 * total energy  :   -83.6022520 Eh     change       -0.9384714E-05 Eh
 * total energy  :   -83.6022609 Eh     change       -0.8982732E-05 Eh
 * total energy  :   -83.6022697 Eh     change       -0.8753458E-05 Eh
 * total energy  :   -83.6022780 Eh     change       -0.8260152E-05 Eh
 * total energy  :   -83.6022851 Eh     change       -0.7126494E-05 Eh
 * total energy  :   -83.6022908 Eh     change       -0.5752259E-05 Eh
 * total energy  :   -83.6022956 Eh     change       -0.4779445E-05 Eh
   *** GEOMETRY OPTIMIZATION CONVERGED AFTER 121 ITERATIONS ***

 final structure:
================
42
 xtb: 6.5.1 (579679a)
C           -5.82397395137821       -1.47664243389475       -0.82728989867462
O           -5.04505632258447       -0.38844461709449       -0.35038104408008
C           -3.72050351225995       -0.40507538087727       -0.66980052347957
O           -3.25526998743654       -1.29142599405748       -1.37059391135120
C           -2.91827640993870        0.66421618274513        0.09091291493423
C           -3.73986767410953        1.95620232074826        0.26704405439377
N           -1.69288488645555        0.96539384345525       -0.62540127244094
C           -0.58936404956358        0.39042560870994       -0.20636614160417
C            0.63488693657071        0.71672678324326       -1.08363714222123
C            0.41638648036635        0.12809739004909       -2.48568334024126
C            0.80496507738122        2.24102562990908       -1.16539194258656
N            1.80132838319726        0.10973935047386       -0.45580954204486
C            3.07032770779463        0.21706225541830       -0.89031484108806
O            3.41982853729899        0.80492295963185       -1.92427896691411
C            4.01661455391572       -0.45374993035207        0.00906277544388
N            3.72371635173048       -1.10492432689980        1.11322173336495
N            4.90807485295756       -1.54792405589427        1.63418545844159
C            5.84283593897809       -1.14910735199842        0.83388785415089
C            7.30128012104008       -1.37302200595571        0.97231580449838
O            5.36301905193340       -0.45355214643420       -0.21643119667249
N           -0.35862035198102       -0.39756389379551        0.83195588223195
C           -1.42494121522975       -0.61580524478334        1.71616348288563
O           -1.24885630991121       -1.25223517818469        2.80620949465151
C           -2.65475201503790       -0.05727414318284        1.37644260453982
O           -3.73768058912143       -0.20416373425807        2.27265977317164
H           -5.73354105418529       -1.57169570769199       -1.91422800288962
H           -6.86033412929177       -1.26912893952828       -0.56418778792372
H           -5.50759436786337       -2.41656719957354       -0.36310813835456
H           -3.13236867496218        2.69575355940474        0.78844909099366
H           -4.64049233965535        1.76433698181428        0.84850888597821
H           -4.02089322920451        2.35781390356698       -0.70636855440391
H           -0.52978641724805        0.50105028391657       -2.87908500498390
H            0.37183424414402       -0.96044067012478       -2.43318557682283
H            1.22206412089020        0.41604046020069       -3.16049970512861
H            1.60261690922070        2.51147949329761       -1.85638466195248
H            1.03887824046604        2.64510676203154       -0.17999666348918
H           -0.13063035660486        2.68090865868141       -1.51174940502276
H            1.59559204556109       -0.38556610056084        0.41741922193523
H            7.82350495738639       -0.41918949353173        1.04517196866840
H            7.49698028608167       -1.95933086717922        1.86647844012659
H            7.68726426694463       -1.90134715888729        0.10090437882670
H           -3.37630821984375       -0.71212485254345        3.01986944511760

          :  Hamiltonian                  GFN1-xTB          :
         :: total energy             -83.602295615064 Eh    ::
         :: gradient norm              0.000240166745 Eh/a0 ::
         :: HOMO-LUMO gap              0.095844482240 eV    ::
         :: SCC energy               -84.327434571074 Eh    ::
         :: -> Gsolv                  -0.280231929945 Eh    ::
         :: repulsion energy           0.751289538813 Eh    ::

    * Orbital Energies and Occupations

         #    Occupation            Energy/Eh            Energy/eV
      -------------------------------------------------------------
         1        2.0000           -0.8251869             -22.4545
       ...           ...                  ...                  ...
        56        2.0000           -0.4385270             -11.9329
        57        2.0000           -0.4316367             -11.7454
        58        2.0000           -0.4236223             -11.5273
        59        2.0000           -0.4231647             -11.5149
        60        2.0000           -0.4183153             -11.3829
        61        2.0000           -0.4082197             -11.1082
        62        2.0000           -0.4030707             -10.9681
        63        2.0000           -0.3927749             -10.6879
        64        2.0000           -0.3827340             -10.4147
        65        2.0000           -0.3488576              -9.4929
        66        2.0000           -0.3245187              -8.8306
        67        2.0000           -0.3223495              -8.7716
        68        1.7291           -0.2766271              -7.5274 (HOMO)
        69        0.2709           -0.2731049              -7.4316 (LUMO)
        70                         -0.2270491              -6.1783
        71                         -0.2116559              -5.7595
        72                         -0.1686979              -4.5905
        73                         -0.1546686              -4.2087
        74                         -0.1313776              -3.5750
        75                         -0.1198245              -3.2606
        76                         -0.0947659              -2.5787
        77                         -0.0895457              -2.4367
        78                         -0.0879285              -2.3927
        79                         -0.0790880              -2.1521
       ...                                ...                  ...
       134                          0.7102346              19.3265
      -------------------------------------------------------------
                  HL-Gap            0.0035222 Eh            0.0958 eV

Wiberg/Mayer (AO) data.
largest (>0.10) Wiberg bond orders for each atom

     #   Z sym  total        # sym  WBO       # sym  WBO       # sym  WBO
 ---------------------------------------------------------------------------
     1   6 C    3.901 --    27 H    0.987    26 H    0.981    28 H    0.981
                             2 O    0.924
     2   8 O    2.150 --     3 C    1.038     1 C    0.924     4 O    0.107
     3   6 C    3.769 --     4 O    1.610     2 O    1.038     5 C    0.912
                            24 C    0.104
     4   8 O    1.865 --     3 C    1.610     2 O    0.107
     5   6 C    3.973 --     7 N    0.995     6 C    0.975    24 C    0.964
                             3 C    0.912
     6   6 C    3.983 --    31 H    0.988    29 H    0.987    30 H    0.986
                             5 C    0.975
     7   7 N    2.863 --     8 C    1.492     5 C    0.995    21 N    0.174
     8   6 C    3.958 --     7 N    1.492    21 N    1.398     9 C    0.951
     9   6 C    3.925 --    11 C    0.987    10 C    0.985     8 C    0.951
                            12 N    0.928
    10   6 C    3.994 --    33 H    0.987     9 C    0.985    32 H    0.985
                            34 H    0.985
    11   6 C    3.994 --    36 H    0.987     9 C    0.987    35 H    0.985
                            37 H    0.984
    12   7 N    3.318 --    13 C    1.257     9 C    0.928    38 H    0.872
                            14 O    0.165
    13   6 C    3.856 --    14 O    1.488    12 N    1.257    15 C    1.039
    14   8 O    1.775 --    13 C    1.488    12 N    0.165
    15   6 C    3.754 --    16 N    1.518    13 C    1.039    20 O    1.016
    16   7 N    2.874 --    15 C    1.518    17 N    1.185
    17   7 N    2.980 --    18 C    1.625    16 N    1.185
    18   6 C    3.846 --    17 N    1.625    20 O    1.065    19 C    1.026
    19   6 C    3.992 --    18 C    1.026    40 H    0.985    41 H    0.969
                            39 H    0.968
    20   8 O    2.247 --    18 C    1.065    15 C    1.016
    21   7 N    2.903 --     8 C    1.398    22 C    1.082     7 N    0.174
    22   6 C    3.913 --    23 O    1.355    24 C    1.353    21 N    1.082
    23   8 O    1.652 --    22 C    1.355    24 C    0.106
    24   6 C    3.615 --    22 C    1.353     5 C    0.964    25 O    0.951
                            23 O    0.106     3 C    0.104
    25   8 O    1.896 --    24 C    0.951    42 H    0.854
    26   1 H    1.016 --     1 C    0.981
    27   1 H    1.016 --     1 C    0.987
    28   1 H    1.012 --     1 C    0.981
    29   1 H    1.018 --     6 C    0.987
    30   1 H    1.018 --     6 C    0.986
    31   1 H    1.013 --     6 C    0.988
    32   1 H    1.024 --    10 C    0.985
    33   1 H    1.010 --    10 C    0.987
    34   1 H    1.016 --    10 C    0.985
    35   1 H    1.017 --    11 C    0.985
    36   1 H    1.009 --    11 C    0.987
    37   1 H    1.028 --    11 C    0.984
    38   1 H    1.001 --    12 N    0.872
    39   1 H    1.000 --    19 C    0.968
    40   1 H    1.002 --    19 C    0.985
    41   1 H    1.000 --    19 C    0.969
    42   1 H    0.906 --    25 O    0.854
 ---------------------------------------------------------------------------

           -------------------------------------------------
          | TOTAL ENERGY              -83.602295615064 Eh   |
          | GRADIENT NORM               0.000240166745 Eh/α |
          | HOMO-LUMO GAP               0.095844482240 eV   |
           -------------------------------------------------

 * finished run on 2023/06/20 at 17:37:35.865
