   * xtb version 6.5.1 (579679a) compiled by 'ehlert@majestix' on 2022-07-11
          program call               : /lustre/hpc/kemi/ree/PhD/git/ReactivityQM/dep/xtb-6.5.1/bin/xtb --gfn 1 /lustre/hpc/kemi/ree/PhD/git/ReactivityQM/calculations/R01/reac01prodE06/conf07/R01_reac01prodE06_conf07_gfn1.xyz --opt --vfukui --chrg -1 --uhf 0 --alpb DMSO

   ID    Z sym.   atoms
    1    6 C      1, 3, 5, 8-10
    2    8 O      2, 4, 11
    3    7 N      6, 7
    4    1 H      12-20

      * Solvation model:               ALPB
        Solvent                        DMSO
        Solvent mass                       7.8130E+01 g/mol
          :  Hamiltonian                  GFN1-xTB          :
 * total energy  :   -38.3452820 Eh     change       -0.2650324E-11 Eh
 * total energy  :   -38.3528145 Eh     change       -0.7532543E-02 Eh
 * total energy  :   -38.3548407 Eh     change       -0.2026216E-02 Eh
 * total energy  :   -38.3550453 Eh     change       -0.2045238E-03 Eh
 * total energy  :   -38.3551643 Eh     change       -0.1190795E-03 Eh
 * total energy  :   -38.3551878 Eh     change       -0.2347997E-04 Eh
 * total energy  :   -38.3552043 Eh     change       -0.1648447E-04 Eh
 * total energy  :   -38.3552101 Eh     change       -0.5833494E-05 Eh
 * total energy  :   -38.3552123 Eh     change       -0.2137645E-05 Eh
   *** GEOMETRY OPTIMIZATION CONVERGED AFTER 9 ITERATIONS ***

 final structure:
================
20
 xtb: 6.5.1 (579679a)
C            4.11808786573044       -0.14546400616180       -0.16994766270925
O            2.75714802070997       -0.11565801895877       -0.56071165392116
C            1.84844196581542       -0.01606286974576        0.49251755103892
O            2.25492339563675        0.04855052341598        1.66083450414320
C            0.52136530821343       -0.00706301263440        0.03151191698647
N            0.11273337648512       -0.07272541181476       -1.23495625803424
N           -1.17651604910087       -0.04172024365189       -1.31260225501555
C           -1.70850497118636        0.05131653730478        0.05875385535065
C           -2.57319104426071       -1.18364271997041        0.35981822376739
C           -2.52525378568336        1.34424704097447        0.21132983531634
O           -0.57464549006272        0.07939599523640        0.91139044697089
H            4.31957445234451       -0.99416059297505        0.49402836663977
H            4.40076757563768        0.77794149484461        0.34871916854123
H            4.71191784606725       -0.24723021287025       -1.07891379377713
H           -3.41582290505864       -1.21874262454028       -0.32750446862369
H           -2.94323208431266       -1.14402643416838        1.38272231192396
H           -1.97284293116335       -2.08326553827865        0.23334179449258
H           -3.36397410167176        1.33281260326907       -0.48167700230351
H           -2.90002483506832        1.43462108540995        1.22932348237626
H           -1.89095260907212        2.20087540531515       -0.01158436316330

          :  Hamiltonian                  GFN1-xTB          :
         :: total energy             -38.355212281205 Eh    ::
         :: gradient norm              0.000634348562 Eh/a0 ::
         :: HOMO-LUMO gap              2.121335080247 eV    ::
         :: SCC energy               -38.663019624414 Eh    ::
         :: -> Gsolv                  -0.096842614579 Eh    ::
         :: repulsion energy           0.316259590562 Eh    ::

    * Orbital Energies and Occupations

         #    Occupation            Energy/Eh            Energy/eV
      -------------------------------------------------------------
         1        2.0000           -0.7798809             -21.2216
       ...           ...                  ...                  ...
        19        2.0000           -0.5081564             -13.8276
        20        2.0000           -0.4952583             -13.4767
        21        2.0000           -0.4864240             -13.2363
        22        2.0000           -0.4841086             -13.1733
        23        2.0000           -0.4778015             -13.0016
        24        2.0000           -0.4703513             -12.7989
        25        2.0000           -0.4504200             -12.2566
        26        2.0000           -0.4496289             -12.2350
        27        2.0000           -0.4391711             -11.9505
        28        2.0000           -0.4243274             -11.5465
        29        2.0000           -0.4127287             -11.2309
        30        2.0000           -0.3743738             -10.1872
        31        2.0000           -0.3215065              -8.7486 (HOMO)
        32                         -0.2435489              -6.6273 (LUMO)
        33                         -0.1281232              -3.4864
        34                         -0.1157848              -3.1507
        35                         -0.1056285              -2.8743
        36                         -0.0996984              -2.7129
        37                         -0.0588747              -1.6021
        38                         -0.0539640              -1.4684
        39                         -0.0521290              -1.4185
        40                         -0.0473223              -1.2877
        41                         -0.0291556              -0.7934
        42                         -0.0273657              -0.7447
       ...                                ...                  ...
        62                          0.7032008              19.1351
      -------------------------------------------------------------
                  HL-Gap            0.0779576 Eh            2.1213 eV

Wiberg/Mayer (AO) data.
largest (>0.10) Wiberg bond orders for each atom

     #   Z sym  total        # sym  WBO       # sym  WBO       # sym  WBO
 ---------------------------------------------------------------------------
     1   6 C    3.908 --    14 H    0.987    13 H    0.981    12 H    0.981
                             2 O    0.939
     2   8 O    2.085 --     3 C    0.961     1 C    0.939
     3   6 C    3.882 --     4 O    1.489     5 C    1.250     2 O    0.961
                             7 N    0.105
     4   8 O    1.811 --     3 C    1.489
     5   6 C    3.846 --     6 N    1.367     3 C    1.250    11 O    0.931
                             7 N    0.151
     6   7 N    3.024 --     7 N    1.503     5 C    1.367
     7   7 N    2.899 --     6 N    1.503     8 C    0.978     5 C    0.151
                             3 C    0.105
     8   6 C    3.900 --    10 C    0.979     9 C    0.978     7 N    0.978
                            11 O    0.929
     9   6 C    3.995 --    15 H    0.988    16 H    0.986    17 H    0.985
                             8 C    0.978
    10   6 C    3.995 --    18 H    0.988    19 H    0.986    20 H    0.985
                             8 C    0.979
    11   8 O    2.050 --     5 C    0.931     8 C    0.929
    12   1 H    1.017 --     1 C    0.981
    13   1 H    1.016 --     1 C    0.981
    14   1 H    1.018 --     1 C    0.987
    15   1 H    1.010 --     9 C    0.988
    16   1 H    1.008 --     9 C    0.986
    17   1 H    1.014 --     9 C    0.985
    18   1 H    1.010 --    10 C    0.988
    19   1 H    1.008 --    10 C    0.986
    20   1 H    1.014 --    10 C    0.985
 ---------------------------------------------------------------------------

           -------------------------------------------------
          | TOTAL ENERGY              -38.355212281205 Eh   |
          | GRADIENT NORM               0.000634348562 Eh/α |
          | HOMO-LUMO GAP               2.121335080247 eV   |
           -------------------------------------------------

 * finished run on 2023/06/20 at 14:54:21.399
