   * xtb version 6.5.1 (579679a) compiled by 'ehlert@majestix' on 2022-07-11
          program call               : /lustre/hpc/kemi/ree/PhD/git/ReactivityQM/dep/xtb-6.5.1/bin/xtb --gfn 1 /lustre/hpc/kemi/ree/PhD/git/ReactivityQM/calculations/R03/reac02prodN02/conf14/R03_reac02prodN02_conf14_gfn1.xyz --opt --vfukui --chrg 1 --uhf 0 --alpb DMSO

   ID    Z sym.   atoms
    1    6 C      1, 3, 5, 7-10, 12, 14, 15, 18, 19, 22, 23, 25
    2    8 O      2, 4, 13, 20, 24, 26
    3    7 N      6, 11, 16, 17, 21
    4    1 H      27-46

      * Solvation model:               ALPB
        Solvent                        DMSO
        Solvent mass                       7.8130E+01 g/mol
          :  Hamiltonian                  GFN1-xTB          :
 * total energy  :   -86.3190856 Eh     change       -0.4796163E-10 Eh
 * total energy  :   -86.3396003 Eh     change       -0.2051467E-01 Eh
 * total energy  :   -86.3469212 Eh     change       -0.7320908E-02 Eh
 * total energy  :   -86.3483262 Eh     change       -0.1405036E-02 Eh
 * total energy  :   -86.3492328 Eh     change       -0.9065918E-03 Eh
 * total energy  :   -86.3495652 Eh     change       -0.3323285E-03 Eh
 * total energy  :   -86.3498365 Eh     change       -0.2713347E-03 Eh
 * total energy  :   -86.3500444 Eh     change       -0.2079327E-03 Eh
 * total energy  :   -86.3502111 Eh     change       -0.1666711E-03 Eh
 * total energy  :   -86.3503400 Eh     change       -0.1289303E-03 Eh
 * total energy  :   -86.3505715 Eh     change       -0.5829345E-04 Eh
 * total energy  :   -86.3506119 Eh     change       -0.4037399E-04 Eh
 * total energy  :   -86.3506221 Eh     change       -0.1025737E-04 Eh
 * total energy  :   -86.3506543 Eh     change       -0.3215774E-04 Eh
 * total energy  :   -86.3506673 Eh     change       -0.1304133E-04 Eh
 * total energy  :   -86.3506849 Eh     change       -0.1756940E-04 Eh
 * total energy  :   -86.3506933 Eh     change       -0.8424881E-05 Eh
 * total energy  :   -86.3507006 Eh     change       -0.7224237E-05 Eh
 * total energy  :   -86.3507049 Eh     change       -0.4320494E-05 Eh
   *** GEOMETRY OPTIMIZATION CONVERGED AFTER 21 ITERATIONS ***

 final structure:
================
46
 xtb: 6.5.1 (579679a)
C           -6.19881236187923        2.52048798257786        1.22111843432481
O           -5.22806505772954        1.89841186405718        0.36233764592085
C           -4.13845830992347        1.40977212817252        0.96672508914722
O           -3.96214619045662        1.47069454897439        2.15886904620529
C           -3.17557776360660        0.78395088027142        0.01673324940564
N           -2.08789619715619        0.23469025691338        0.64073324407966
C           -1.15212768791271       -0.35078783738078       -0.02639533159405
C           -0.03271039313385       -0.95881248714268        0.81045013274390
C           -0.09516630371486       -2.49021988677200        0.74071123953059
C           -0.16818336210342       -0.48593136465805        2.26358439688671
N            1.25625531705415       -0.43573014147829        0.30121818209165
C            2.45196818992095       -0.84697048888968        0.65041567195344
O            2.57164897142934       -1.83057147402403        1.48735688408258
C            3.84381215506265       -2.36484973355156        1.89307754522373
C            3.58020048465203       -0.17144680237300        0.05754163338181
N            4.85905094459252       -0.37408818130336        0.22297039333030
N            5.50124265872041        0.51340047927248       -0.55468655598194
C            4.58797825147952        1.22204695266632       -1.16486189330992
C            4.79006264340239        2.32914946673665       -2.11760217383268
O            3.35602898758067        0.83242138804401       -0.81718869472557
N           -1.20090310957415       -0.46873600005004       -1.38899084591016
C           -0.20183441961895       -1.14138622998095       -2.22098347954057
C           -2.26429866443543        0.04647518249477       -2.13523539447454
O           -2.28634664890464       -0.08735043471609       -3.34666248362023
C           -3.29610749252411        0.72342187499234       -1.34691109308862
O           -4.29583524290916        1.22696940587451       -2.07314123313441
H           -7.02746322198856        2.82287733219573        0.58590452416067
H           -6.53529397265082        1.80669152935775        1.97588344270340
H           -5.75370948056355        3.38958181616994        1.70996711486664
H            0.45699664758913       -2.93407346347239        1.56591057931181
H           -1.13794940776731       -2.79718695294574        0.81715678723296
H            0.31566047354598       -2.86417145873451       -0.19312658167082
H           -0.15687969037898        0.60154859631625        2.30498104256033
H            0.65474820857689       -0.87869765451828        2.85600112108157
H           -1.11114060491763       -0.84554708415087        2.67193361068437
H            1.22366283948148        0.38680908200408       -0.28670468143496
H            3.61020579614208       -3.17121654980822        2.58526917664328
H            4.38107843014394       -2.74154754282114        1.02191999599206
H            4.43247101620468       -1.58889444344115        2.38408590156620
H            4.25647095670699        2.12237186829205       -3.04528667786537
H            5.85162189660913        2.45405941137957       -2.31900328388320
H            4.38368071250720        3.25087821140293       -1.69892727362547
H           -0.63506834598820       -2.05999649884445       -2.61703501266711
H            0.04734880013798       -0.47992639261443       -3.05032714570389
H            0.69025365832397       -1.36365699514567       -1.65247037221291
H           -4.96047511002615        1.68508284065020       -1.52903387683715

          :  Hamiltonian                  GFN1-xTB          :
         :: total energy             -86.350704871999 Eh    ::
         :: gradient norm              0.000978591716 Eh/a0 ::
         :: HOMO-LUMO gap              1.631910923935 eV    ::
         :: SCC energy               -87.182237472934 Eh    ::
         :: -> Gsolv                  -0.115196519469 Eh    ::
         :: repulsion energy           0.860542819982 Eh    ::

    * Orbital Energies and Occupations

         #    Occupation            Energy/Eh            Energy/eV
      -------------------------------------------------------------
         1        2.0000           -0.9065999             -24.6698
       ...           ...                  ...                  ...
        58        2.0000           -0.5271080             -14.3433
        59        2.0000           -0.5216219             -14.1941
        60        2.0000           -0.5193500             -14.1322
        61        2.0000           -0.5151362             -14.0176
        62        2.0000           -0.5113417             -13.9143
        63        2.0000           -0.5033731             -13.6975
        64        2.0000           -0.4923125             -13.3965
        65        2.0000           -0.4906548             -13.3514
        66        2.0000           -0.4883512             -13.2887
        67        2.0000           -0.4853499             -13.2070
        68        2.0000           -0.4696686             -12.7803
        69        2.0000           -0.4577272             -12.4554
        70        2.0000           -0.4388354             -11.9413 (HOMO)
        71                         -0.3788638             -10.3094 (LUMO)
        72                         -0.3325216              -9.0484
        73                         -0.2969201              -8.0796
        74                         -0.2915410              -7.9332
        75                         -0.2585717              -7.0361
        76                         -0.2490766              -6.7777
        77                         -0.1682096              -4.5772
        78                         -0.1637336              -4.4554
        79                         -0.1562025              -4.2505
        80                         -0.1548299              -4.2131
        81                         -0.1460833              -3.9751
       ...                                ...                  ...
       144                          0.7300206              19.8649
      -------------------------------------------------------------
                  HL-Gap            0.0599716 Eh            1.6319 eV

Wiberg/Mayer (AO) data.
largest (>0.10) Wiberg bond orders for each atom

     #   Z sym  total        # sym  WBO       # sym  WBO       # sym  WBO
 ---------------------------------------------------------------------------
     1   6 C    3.858 --    27 H    0.986    28 H    0.980    29 H    0.980
                             2 O    0.881
     2   8 O    2.206 --     3 C    1.094     1 C    0.881     4 O    0.132
     3   6 C    3.849 --     4 O    1.674     2 O    1.094     5 C    1.002
     4   8 O    1.935 --     3 C    1.674     2 O    0.132
     5   6 C    3.960 --    25 C    1.491     6 N    1.180     3 C    1.002
     6   7 N    3.037 --     7 C    1.582     5 C    1.180
     7   6 C    3.939 --     6 N    1.582    21 N    1.174     8 C    0.975
     8   6 C    3.898 --    10 C    0.983     9 C    0.982     7 C    0.975
                            11 N    0.885
     9   6 C    3.981 --     8 C    0.982    31 H    0.980    32 H    0.980
                            30 H    0.979
    10   6 C    3.978 --    34 H    0.983     8 C    0.983    33 H    0.982
                            35 H    0.979
    11   7 N    3.478 --    12 C    1.438     8 C    0.885    36 H    0.873
                            13 O    0.109
    12   6 C    3.895 --    11 N    1.438    13 O    1.206    15 C    1.090
    13   8 O    2.285 --    12 C    1.206    14 C    0.857    11 N    0.109
    14   6 C    3.823 --    37 H    0.980    38 H    0.973    39 H    0.973
                            13 O    0.857
    15   6 C    3.887 --    16 N    1.543    12 C    1.090    20 O    1.046
    16   7 N    3.032 --    15 C    1.543    17 N    1.258
    17   7 N    2.989 --    18 C    1.543    16 N    1.258
    18   6 C    3.848 --    17 N    1.543    20 O    1.089    19 C    1.041
    19   6 C    3.978 --    18 C    1.041    41 H    0.979    40 H    0.956
                            42 H    0.951
    20   8 O    2.333 --    18 C    1.089    15 C    1.046
    21   7 N    3.498 --     7 C    1.174    23 C    1.100    22 C    0.929
                            24 O    0.136
    22   6 C    3.919 --    45 H    0.979    43 H    0.973    44 H    0.973
                            21 N    0.929
    23   6 C    3.910 --    24 O    1.600    21 N    1.100    25 C    1.063
    24   8 O    1.912 --    23 C    1.600    21 N    0.136
    25   6 C    3.920 --     5 C    1.491    26 O    1.118    23 C    1.063
    26   8 O    2.098 --    25 C    1.118    46 H    0.798
    27   1 H    1.008 --     1 C    0.986
    28   1 H    1.006 --     1 C    0.980
    29   1 H    1.005 --     1 C    0.980
    30   1 H    1.003 --     9 C    0.979
    31   1 H    0.998 --     9 C    0.980
    32   1 H    0.999 --     9 C    0.980
    33   1 H    1.005 --    10 C    0.982
    34   1 H    1.001 --    10 C    0.983
    35   1 H    1.007 --    10 C    0.979
    36   1 H    0.921 --    11 N    0.873
    37   1 H    1.001 --    14 C    0.980
    38   1 H    1.006 --    14 C    0.973
    39   1 H    1.008 --    14 C    0.973
    40   1 H    0.992 --    19 C    0.956
    41   1 H    0.994 --    19 C    0.979
    42   1 H    0.992 --    19 C    0.951
    43   1 H    1.000 --    22 C    0.973
    44   1 H    1.003 --    22 C    0.973
    45   1 H    1.004 --    22 C    0.979
    46   1 H    0.848 --    26 O    0.798
 ---------------------------------------------------------------------------

           -------------------------------------------------
          | TOTAL ENERGY              -86.350704871999 Eh   |
          | GRADIENT NORM               0.000978591716 Eh/α |
          | HOMO-LUMO GAP               1.631910923935 eV   |
           -------------------------------------------------

 * finished run on 2023/06/20 at 15:36:58.480
