   * xtb version 6.5.1 (579679a) compiled by 'ehlert@majestix' on 2022-07-11
          program call               : /lustre/hpc/kemi/ree/PhD/git/ReactivityQM/dep/xtb-6.5.1/bin/xtb --gfn 1 /lustre/hpc/kemi/ree/PhD/git/ReactivityQM/calculations/RaltegravirCLI/reac02prodE10/conf08/RaltegravirCLI_reac02prodE10_conf08_gfn1.xyz --opt --vfukui --chrg -1 --uhf 0 --alpb DMSO

   ID    Z sym.   atoms
    1    6 C      1, 3, 5, 6, 8, 9, 12-16, 18, 19, 21-24
    2    7 N      2, 11, 20, 25
    3    8 O      4, 7, 10
    4    9 F      17
    5    1 H      26-47

      * Solvation model:               ALPB
        Solvent                        DMSO
        Solvent mass                       7.8130E+01 g/mol
          :  Hamiltonian                  GFN1-xTB          :
 * total energy  :   -80.2069621 Eh     change       -0.1699618E-10 Eh
 * total energy  :   -80.2177301 Eh     change       -0.1076801E-01 Eh
 * total energy  :   -80.2209710 Eh     change       -0.3240957E-02 Eh
 * total energy  :   -80.2216464 Eh     change       -0.6754003E-03 Eh
 * total energy  :   -80.2222274 Eh     change       -0.5809650E-03 Eh
 * total energy  :   -80.2224147 Eh     change       -0.1872658E-03 Eh
 * total energy  :   -80.2225423 Eh     change       -0.1276785E-03 Eh
 * total energy  :   -80.2225897 Eh     change       -0.4739419E-04 Eh
 * total energy  :   -80.2226218 Eh     change       -0.3209554E-04 Eh
 * total energy  :   -80.2226475 Eh     change       -0.2568364E-04 Eh
 * total energy  :   -80.2226749 Eh     change       -0.2742669E-04 Eh
 * total energy  :   -80.2226947 Eh     change       -0.1974380E-04 Eh
 * total energy  :   -80.2227055 Eh     change       -0.1084101E-04 Eh
 * total energy  :   -80.2227120 Eh     change       -0.6435476E-05 Eh
 * total energy  :   -80.2227166 Eh     change       -0.4606189E-05 Eh
 * total energy  :   -80.2227239 Eh     change       -0.7280771E-05 Eh
 * total energy  :   -80.2227275 Eh     change       -0.3642722E-05 Eh
 * total energy  :   -80.2227305 Eh     change       -0.2957685E-05 Eh
   *** GEOMETRY OPTIMIZATION CONVERGED AFTER 18 ITERATIONS ***

 final structure:
================
47
 xtb: 6.5.1 (579679a)
C           -3.81370612583906       -0.54547708554706       -2.26539537158413
N           -2.65348346817474       -0.25284113347264       -1.42472499951978
C           -1.46016795678258       -0.32710898940554       -2.04611710071615
O           -1.36100015794942       -0.63772643004393       -3.24262323255381
C           -0.18473757366207        0.01802643001074       -1.26599066683385
C            0.19106276530041        1.48000195296952       -1.61672659503188
O            0.83475043361252       -0.84903556891898       -1.77255178253510
C           -0.39091029127119       -0.16508857810571        0.22171347909766
C            0.65996058722376       -0.15757155728674        1.17170497666360
O            0.51310623035268       -0.23556852411211        2.41000963991112
N            1.97399341770346        0.01810671994803        0.65614103739067
C            3.05008083905971       -0.32629556449199        1.58768731047049
C            4.37649068212805        0.02047036440052        0.96037364114614
C            5.05920770288407       -0.92332915050185        0.19494540120088
C            6.26961874779764       -0.61022709750417       -0.40861830773126
C            6.77725653583608        0.66386990620027       -0.23380110431995
F            7.95252979064828        0.97709790149284       -0.81205959921637
C            6.12849131758835        1.62860785460024        0.51499969371080
C            4.91939085123938        1.29558916946582        1.11024502480641
N           -1.65851830809449       -0.19300915698565        0.71408737004354
C           -2.72995801293632       -0.18121590368605        0.00488047468036
C           -4.06633151454630       -0.17951426914828        0.73285163892298
C           -3.82579676786025        0.23535853502264        2.19640703258487
C           -4.70722487303919       -1.57802681954852        0.71741590086544
N           -5.00056247676658        0.76952169584434        0.11329388461388
H           -3.62850636318311       -0.14264454080060       -3.26271060147459
H           -3.96473630003176       -1.62501474866785       -2.34773301740522
H           -4.70504595005881       -0.07746104994378       -1.85450631000615
H            1.12763078105428        1.74023534106982       -1.12544627852429
H            0.31102342428426        1.58592088626601       -2.69433981429645
H           -0.59244006895006        2.15355348264842       -1.27309175854137
H            0.61475758473931       -1.04761903066787       -2.69777692476991
H            2.11973937058524       -0.42165970747262       -0.24566237526223
H            2.90434569452500        0.24445043210279        2.51161666355795
H            3.02076980371455       -1.39748210566744        1.83886283073328
H            4.64698507388711       -1.91869904897476        0.07126926798543
H            6.81026580615849       -1.33725157553557       -1.00013073746661
H            6.56226434528508        2.61335137062164        0.62910452534145
H            4.39779601017022        2.03960716886034        1.70280266195420
H           -4.77577190852930        0.27860786227481        2.72719526499875
H           -3.17203477925475       -0.48247402584848        2.69257769842683
H           -3.35651529707276        1.21826145305981        2.23438291696944
H           -3.99681599098629       -2.31492558680071        1.09267047001271
H           -5.59296072477230       -1.59163546138412        1.35240732418468
H           -5.00609836842374       -1.86197312238856       -0.28971843414099
H           -5.90203866524118        0.68445740292811        0.55981028943594
H           -4.67615285235281        1.71577790312413        0.26539859222107

          :  Hamiltonian                  GFN1-xTB          :
         :: total energy             -80.222730456946 Eh    ::
         :: gradient norm              0.000511656173 Eh/a0 ::
         :: HOMO-LUMO gap              1.440655164119 eV    ::
         :: SCC energy               -81.079164360542 Eh    ::
         :: -> Gsolv                  -0.106746013950 Eh    ::
         :: repulsion energy           0.886724591317 Eh    ::

    * Orbital Energies and Occupations

         #    Occupation            Energy/Eh            Energy/eV
      -------------------------------------------------------------
         1        2.0000           -0.8557783             -23.2869
       ...           ...                  ...                  ...
        56        2.0000           -0.4608284             -12.5398
        57        2.0000           -0.4580740             -12.4648
        58        2.0000           -0.4517324             -12.2923
        59        2.0000           -0.4428898             -12.0516
        60        2.0000           -0.4417527             -12.0207
        61        2.0000           -0.4265289             -11.6064
        62        2.0000           -0.4105053             -11.1704
        63        2.0000           -0.4087908             -11.1238
        64        2.0000           -0.3958499             -10.7716
        65        2.0000           -0.3924021             -10.6778
        66        2.0000           -0.3797144             -10.3326
        67        2.0000           -0.3719859             -10.1223
        68        2.0000           -0.3167577              -8.6194 (HOMO)
        69                         -0.2638145              -7.1788 (LUMO)
        70                         -0.2549962              -6.9388
        71                         -0.2342813              -6.3751
        72                         -0.1934965              -5.2653
        73                         -0.1360041              -3.7009
        74                         -0.1348164              -3.6685
        75                         -0.1161019              -3.1593
        76                         -0.1061481              -2.8884
        77                         -0.1013920              -2.7590
        78                         -0.1005171              -2.7352
        79                         -0.0977243              -2.6592
       ...                                ...                  ...
       144                          0.6832914              18.5933
      -------------------------------------------------------------
                  HL-Gap            0.0529431 Eh            1.4407 eV

Wiberg/Mayer (AO) data.
largest (>0.10) Wiberg bond orders for each atom

     #   Z sym  total        # sym  WBO       # sym  WBO       # sym  WBO
 ---------------------------------------------------------------------------
     1   6 C    3.949 --    26 H    0.981    27 H    0.981    28 H    0.974
                             2 N    0.944
     2   7 N    3.436 --     3 C    1.271    21 C    0.965     1 C    0.944
                             4 O    0.146
     3   6 C    3.897 --     4 O    1.522     2 N    1.271     5 C    0.940
     4   8 O    1.851 --     3 C    1.522     2 N    0.146
     5   6 C    3.905 --     8 C    0.973     6 C    0.961     3 C    0.940
                             7 O    0.931
     6   6 C    3.996 --    31 H    0.988    30 H    0.986    29 H    0.984
                             5 C    0.961
     7   8 O    1.900 --     5 C    0.931    32 H    0.844
     8   6 C    3.854 --     9 C    1.278    20 N    1.225     5 C    0.973
                            21 C    0.118    10 O    0.102
     9   6 C    3.910 --    10 O    1.463     8 C    1.278    11 N    1.035
    10   8 O    1.768 --     9 C    1.463     8 C    0.102
    11   7 N    3.130 --     9 C    1.035    12 C    0.964    33 H    0.917
    12   6 C    3.975 --    13 C    1.006    34 H    0.973    35 H    0.971
                            11 N    0.964
    13   6 C    3.987 --    14 C    1.416    19 C    1.415    12 C    1.006
    14   6 C    3.994 --    15 C    1.442    13 C    1.416    36 H    0.972
                            18 C    0.110
    15   6 C    3.992 --    14 C    1.442    16 C    1.403    37 H    0.970
                            19 C    0.110
    16   6 C    3.857 --    15 C    1.403    18 C    1.402    17 F    0.917
    17   9 F    1.042 --    16 C    0.917
    18   6 C    3.992 --    19 C    1.444    16 C    1.402    38 H    0.970
                            14 C    0.110
    19   6 C    3.994 --    18 C    1.444    13 C    1.415    39 H    0.972
                            15 C    0.110
    20   7 N    3.066 --    21 C    1.607     8 C    1.225
    21   6 C    3.891 --    20 N    1.607    22 C    0.982     2 N    0.965
                             8 C    0.118
    22   6 C    3.963 --    23 C    0.991    24 C    0.988    21 C    0.982
                            25 N    0.972
    23   6 C    3.996 --    22 C    0.991    40 H    0.987    42 H    0.985
                            41 H    0.983
    24   6 C    3.992 --    22 C    0.988    43 H    0.987    44 H    0.985
                            45 H    0.982
    25   7 N    2.990 --    22 C    0.972    46 H    0.948    47 H    0.947
    26   1 H    1.016 --     1 C    0.981
    27   1 H    1.009 --     1 C    0.981
    28   1 H    1.036 --     1 C    0.974
    29   1 H    1.019 --     6 C    0.984
    30   1 H    1.009 --     6 C    0.986
    31   1 H    1.011 --     6 C    0.988
    32   1 H    0.891 --     7 O    0.844
    33   1 H    0.980 --    11 N    0.917
    34   1 H    1.028 --    12 C    0.973
    35   1 H    1.008 --    12 C    0.971
    36   1 H    1.001 --    14 C    0.972
    37   1 H    0.999 --    15 C    0.970
    38   1 H    0.999 --    18 C    0.970
    39   1 H    1.002 --    19 C    0.972
    40   1 H    1.007 --    23 C    0.987
    41   1 H    1.021 --    23 C    0.983
    42   1 H    1.015 --    23 C    0.985
    43   1 H    1.009 --    24 C    0.987
    44   1 H    1.003 --    24 C    0.985
    45   1 H    1.009 --    24 C    0.982
    46   1 H    0.963 --    25 N    0.948
    47   1 H    0.966 --    25 N    0.947
 ---------------------------------------------------------------------------

           -------------------------------------------------
          | TOTAL ENERGY              -80.222730456946 Eh   |
          | GRADIENT NORM               0.000511656173 Eh/α |
          | HOMO-LUMO GAP               1.440655164119 eV   |
           -------------------------------------------------

 * finished run on 2023/06/20 at 15:10:34.852
