   * xtb version 6.5.1 (579679a) compiled by 'ehlert@majestix' on 2022-07-11
          program call               : /lustre/hpc/kemi/ree/PhD/git/ReactivityQM/dep/xtb-6.5.1/bin/xtb --gfn 1 /lustre/hpc/kemi/ree/PhD/git/ReactivityQM/calculations/RaltegravirCLI/reac01prodE02/conf06/RaltegravirCLI_reac01prodE02_conf06_gfn1.xyz --opt --vfukui --chrg -1 --uhf 0 --alpb DMSO

   ID    Z sym.   atoms
    1    6 C      1-3, 6, 7
    2    7 N      4, 5
    3    8 O      8, 10
    4   17 Cl     9
    5    1 H      11-16

      * Solvation model:               ALPB
        Solvent                        DMSO
        Solvent mass                       7.8130E+01 g/mol
          :  Hamiltonian                  GFN1-xTB          :
 * total energy  :   -34.1646711 Eh     change       -0.1845279E-10 Eh
 * total energy  :   -34.1687779 Eh     change       -0.4106778E-02 Eh
 * total energy  :   -34.1708424 Eh     change       -0.2064505E-02 Eh
 * total energy  :   -34.1711885 Eh     change       -0.3461550E-03 Eh
 * total energy  :   -34.1713950 Eh     change       -0.2064435E-03 Eh
 * total energy  :   -34.1714259 Eh     change       -0.3095519E-04 Eh
 * total energy  :   -34.1714350 Eh     change       -0.9044777E-05 Eh
 * total energy  :   -34.1714374 Eh     change       -0.2367794E-05 Eh
   *** GEOMETRY OPTIMIZATION CONVERGED AFTER 8 ITERATIONS ***

 final structure:
================
16
 xtb: 6.5.1 (579679a)
C           -1.50410262856988        1.06060605950868       -0.62149559593056
C           -0.63413427898130       -0.04530053084137       -0.01010274696543
C           -1.40242478954594       -0.83677009260065        1.05611776202640
N           -0.18720062260891       -0.96181065787182       -1.07479396981279
N            1.08824438798474       -0.93191013367562       -1.12340437087799
C            1.58928665163207       -0.08956657732742       -0.20179505265489
C            2.91155474158417        0.20609945263389        0.05020948404638
O            3.45019682810307        0.94768363627283        0.85447949000640
Cl           4.01881139266474       -0.74301472308067       -1.08933460196410
O            0.55297152773454        0.50335123712047        0.53793811577091
H           -2.38264746383542        0.62063530519743       -1.08810624586650
H           -1.81759943142218        1.75935970110459        0.15159881216357
H           -0.93041713650009        1.59724205709551       -1.37533967917126
H           -0.75846595331508       -1.61398113041266        1.46433717074332
H           -2.27977702852426       -1.29866697364402        0.60877651494769
H           -1.71429619640003       -0.17395662947915        1.86091691353893

          :  Hamiltonian                  GFN1-xTB          :
         :: total energy             -34.171437360537 Eh    ::
         :: gradient norm              0.000657829546 Eh/a0 ::
         :: HOMO-LUMO gap              2.085340297208 eV    ::
         :: SCC energy               -34.430142592364 Eh    ::
         :: -> Gsolv                  -0.086947606543 Eh    ::
         :: repulsion energy           0.266271424742 Eh    ::

    * Orbital Energies and Occupations

         #    Occupation            Energy/Eh            Energy/eV
      -------------------------------------------------------------
         1        2.0000           -0.8706023             -23.6903
       ...           ...                  ...                  ...
        16        2.0000           -0.5165423             -14.0558
        17        2.0000           -0.5017803             -13.6541
        18        2.0000           -0.4945536             -13.4575
        19        2.0000           -0.4921733             -13.3927
        20        2.0000           -0.4830611             -13.1448
        21        2.0000           -0.4613937             -12.5552
        22        2.0000           -0.4566712             -12.4267
        23        2.0000           -0.4520562             -12.3011
        24        2.0000           -0.4486320             -12.2079
        25        2.0000           -0.4377766             -11.9125
        26        2.0000           -0.4280017             -11.6465
        27        2.0000           -0.3890458             -10.5865
        28        2.0000           -0.3415170              -9.2932 (HOMO)
        29                         -0.2648822              -7.2078 (LUMO)
        30                         -0.1780497              -4.8450
        31                         -0.1490909              -4.0570
        32                         -0.1103390              -3.0025
        33                         -0.1047502              -2.8504
        34                         -0.0633946              -1.7251
        35                         -0.0522028              -1.4205
        36                         -0.0340935              -0.9277
        37                         -0.0319126              -0.8684
        38                         -0.0021630              -0.0589
        39                         -0.0018136              -0.0494
       ...                                ...                  ...
        57                          0.7658093              20.8387
      -------------------------------------------------------------
                  HL-Gap            0.0766348 Eh            2.0853 eV

Wiberg/Mayer (AO) data.
largest (>0.10) Wiberg bond orders for each atom

     #   Z sym  total        # sym  WBO       # sym  WBO       # sym  WBO
 ---------------------------------------------------------------------------
     1   6 C    3.995 --    11 H    0.987    12 H    0.986    13 H    0.985
                             2 C    0.979
     2   6 C    3.898 --     3 C    0.979     1 C    0.979     4 N    0.972
                            10 O    0.927
     3   6 C    3.995 --    15 H    0.987    16 H    0.986    14 H    0.985
                             2 C    0.979
     4   7 N    2.947 --     5 N    1.585     2 C    0.972     7 C    0.118
                             6 C    0.116
     5   7 N    3.027 --     4 N    1.585     6 C    1.295
     6   6 C    3.856 --     7 C    1.357     5 N    1.295    10 O    0.936
                             4 N    0.116     8 O    0.109
     7   6 C    3.899 --     8 O    1.594     6 C    1.357     9 Cl   0.758
                             4 N    0.118
     8   8 O    1.949 --     7 C    1.594     9 Cl   0.116     6 C    0.109
     9  17 Cl   0.928 --     7 C    0.758     8 O    0.116
    10   8 O    2.057 --     6 C    0.936     2 C    0.927
    11   1 H    1.008 --     1 C    0.987
    12   1 H    1.007 --     1 C    0.986
    13   1 H    1.011 --     1 C    0.985
    14   1 H    1.011 --     3 C    0.985
    15   1 H    1.008 --     3 C    0.987
    16   1 H    1.006 --     3 C    0.986
 ---------------------------------------------------------------------------

           -------------------------------------------------
          | TOTAL ENERGY              -34.171437360537 Eh   |
          | GRADIENT NORM               0.000657829546 Eh/α |
          | HOMO-LUMO GAP               2.085340297208 eV   |
           -------------------------------------------------

 * finished run on 2023/06/20 at 14:52:31.138
