   * xtb version 6.5.1 (579679a) compiled by 'ehlert@majestix' on 2022-07-11
          program call               : /lustre/hpc/kemi/ree/PhD/git/ReactivityQM/dep/xtb-6.5.1/bin/xtb --gfn 1 /lustre/hpc/kemi/ree/PhD/git/ReactivityQM/calculations/R02oxygendeprot/reac01prodE14/conf19/R02oxygendeprot_reac01prodE14_conf19_gfn1.xyz --opt --vfukui --chrg -2 --uhf 0 --alpb DMSO

   ID    Z sym.   atoms
    1    6 C      1, 3, 5, 7-10, 12, 14, 17, 18, 21, 23, 24
    2    8 O      2, 4, 13, 19, 22, 25
    3    7 N      6, 11, 15, 16, 20
    4    1 H      26-42

      * Solvation model:               ALPB
        Solvent                        DMSO
        Solvent mass                       7.8130E+01 g/mol
          :  Hamiltonian                  GFN1-xTB          :
 * total energy  :   -83.5849995 Eh     change       -0.4843628E-09 Eh
 * total energy  :   -83.5997081 Eh     change       -0.1470863E-01 Eh
 * total energy  :   -83.6054024 Eh     change       -0.5694207E-02 Eh
 * total energy  :   -83.6063149 Eh     change       -0.9125730E-03 Eh
 * total energy  :   -83.6069337 Eh     change       -0.6187463E-03 Eh
 * total energy  :   -83.6073163 Eh     change       -0.3826730E-03 Eh
 * total energy  :   -83.6076536 Eh     change       -0.3373023E-03 Eh
 * total energy  :   -83.6079013 Eh     change       -0.2476310E-03 Eh
 * total energy  :   -83.6080469 Eh     change       -0.1455799E-03 Eh
 * total energy  :   -83.6081494 Eh     change       -0.1025438E-03 Eh
 * total energy  :   -83.6101541 Eh     change       -0.9268253E-05 Eh
 * total energy  :   -83.6101717 Eh     change       -0.1757593E-04 Eh
 * total energy  :   -83.6101979 Eh     change       -0.2625441E-04 Eh
 * total energy  :   -83.6102111 Eh     change       -0.1315409E-04 Eh
 * total energy  :   -83.6102257 Eh     change       -0.1466073E-04 Eh
 * total energy  :   -83.6102375 Eh     change       -0.1174765E-04 Eh
 * total energy  :   -83.6102486 Eh     change       -0.1115041E-04 Eh
 * total energy  :   -83.6102532 Eh     change       -0.4620943E-05 Eh
 * total energy  :   -83.6102579 Eh     change       -0.4616780E-05 Eh
   *** GEOMETRY OPTIMIZATION CONVERGED AFTER 60 ITERATIONS ***

 final structure:
================
42
 xtb: 6.5.1 (579679a)
C           -5.98122686700072        1.17005017702361        0.92256449366160
O           -4.74278595347598        0.55695569831143        1.20319778912433
C           -3.79124426429942        0.64098615148428        0.16963453963850
O           -4.12601827779901        1.24639254344886       -0.87300054907343
C           -2.56708672453949       -0.00193232912216        0.41274642698237
N           -1.65009116009400        0.18835142390802       -0.59788834712253
C           -0.50403233904484       -0.38462395810671       -0.60295193066647
C            0.48694743282126       -0.13099580617113       -1.72070945716680
C            0.09478498264901        1.15334604168811       -2.46005514780671
C            0.51506386186866       -1.32613212420390       -2.68994776803643
N            1.82343677962445        0.02286588204547       -1.11475996942492
C            2.93692279192581        0.29719823449351       -1.81489416585694
O            2.98790620467729        0.51473804295796       -3.02403498446766
C            4.16093075927205        0.33917861439979       -0.98108608812960
N            5.36841571915807        0.64259900157553       -1.36976157516196
N            6.17013154518183        0.55479372219382       -0.26756582699225
C            5.40992966028082        0.20394095435893        0.72154352882050
C            5.81072288288436       -0.03224908266069        2.12683146916879
O            4.12798862816268        0.05183529588258        0.34386272180412
N           -0.13853111356579       -1.34930926738273        0.36156356198780
C           -1.03294220700165       -1.73432851555771        1.32708094088804
O           -0.87761607371717       -2.83025307623610        1.87860370360990
C           -2.07461058242407       -0.64046479105369        1.75179820952410
C           -3.23210280359893       -1.41967332530937        2.46650677428996
O           -1.44593389678650        0.22466574010501        2.56387140082551
H           -5.86460298285733        2.24315862078709        0.72071784867612
H           -6.61932094555980        1.04086411418655        1.79877947850440
H           -6.47005541537098        0.70951583125561        0.05397186594797
H            0.72514325718228        1.31230236930597       -3.33226236207201
H           -0.94385735944986        1.07078903082504       -2.78151262009007
H            0.18497793769256        2.01033251040405       -1.79240256681059
H            1.18994730833839       -1.13326231712436       -3.52233816931272
H           -0.48735680838052       -1.49700841994510       -3.08023684194353
H            0.84873684542487       -2.22205338444085       -2.16890662499996
H            1.91883172998612       -0.19267196048557       -0.13238643037243
H            5.69811655147565       -1.08747934375929        2.37499769549001
H            5.17846992743929        0.54364161572658        2.80134137601407
H            6.84984766027684        0.25776146264051        2.26160952905869
H            0.56011938261497       -2.02751248588948        0.10890115192554
H           -2.79694247749625       -2.11983338250044        3.18168259027684
H           -3.84467881556327       -1.97507836815636        1.75507878170439
H           -3.85633478091695       -0.72070914089727        3.01981654758614

          :  Hamiltonian                  GFN1-xTB          :
         :: total energy             -83.610257864855 Eh    ::
         :: gradient norm              0.000792084671 Eh/a0 ::
         :: HOMO-LUMO gap              0.157988980231 eV    ::
         :: SCC energy               -84.343889449710 Eh    ::
         :: -> Gsolv                  -0.292916638252 Eh    ::
         :: repulsion energy           0.759342132859 Eh    ::

    * Orbital Energies and Occupations

         #    Occupation            Energy/Eh            Energy/eV
      -------------------------------------------------------------
         1        2.0000           -0.8474076             -23.0591
       ...           ...                  ...                  ...
        56        2.0000           -0.4410563             -12.0018
        57        2.0000           -0.4355202             -11.8511
        58        2.0000           -0.4308623             -11.7244
        59        2.0000           -0.4248330             -11.5603
        60        2.0000           -0.4209900             -11.4557
        61        2.0000           -0.4144942             -11.2790
        62        2.0000           -0.3993092             -10.8658
        63        2.0000           -0.3913883             -10.6502
        64        2.0000           -0.3831774             -10.4268
        65        2.0000           -0.3694463             -10.0531
        66        2.0000           -0.3066567              -8.3446
        67        1.9869           -0.2986945              -8.1279
        68        1.9164           -0.2968972              -8.0790 (HOMO)
        69        0.0967           -0.2910912              -7.9210 (LUMO)
        70                         -0.2427303              -6.6050
        71                         -0.2113338              -5.7507
        72                         -0.1776501              -4.8341
        73                         -0.1722397              -4.6869
        74                         -0.1360016              -3.7008
        75                         -0.1129135              -3.0725
        76                         -0.1046987              -2.8490
        77                         -0.1035495              -2.8177
        78                         -0.0969992              -2.6395
        79                         -0.0805174              -2.1910
       ...                                ...                  ...
       134                          0.7256445              19.7458
      -------------------------------------------------------------
                  HL-Gap            0.0058060 Eh            0.1580 eV

Wiberg/Mayer (AO) data.
largest (>0.10) Wiberg bond orders for each atom

     #   Z sym  total        # sym  WBO       # sym  WBO       # sym  WBO
 ---------------------------------------------------------------------------
     1   6 C    3.922 --    27 H    0.987    28 H    0.980    26 H    0.980
                             2 O    0.953
     2   8 O    2.082 --     1 C    0.953     3 C    0.932
     3   6 C    3.845 --     4 O    1.444     5 C    1.332     2 O    0.932
     4   8 O    1.740 --     3 C    1.444     5 C    0.107
     5   6 C    3.815 --     3 C    1.332     6 N    1.186    23 C    0.916
                             4 O    0.107
     6   7 N    3.053 --     7 C    1.621     5 C    1.186
     7   6 C    3.887 --     6 N    1.621    20 N    1.002     8 C    0.978
     8   6 C    3.924 --     9 C    0.995    10 C    0.981     7 C    0.978
                            11 N    0.905
     9   6 C    3.994 --     8 C    0.995    31 H    0.986    29 H    0.984
                            30 H    0.983
    10   6 C    3.988 --    33 H    0.986    34 H    0.985    32 H    0.983
                             8 C    0.981
    11   7 N    3.346 --    12 C    1.276     8 C    0.905    35 H    0.899
                            13 O    0.175
    12   6 C    3.892 --    13 O    1.536    11 N    1.276    14 C    1.005
    13   8 O    1.843 --    12 C    1.536    11 N    0.175
    14   6 C    3.826 --    15 N    1.588    19 O    1.035    12 C    1.005
    15   7 N    2.943 --    14 C    1.588    16 N    1.191
    16   7 N    2.980 --    17 C    1.619    15 N    1.191
    17   6 C    3.860 --    16 N    1.619    19 O    1.068    18 C    1.029
    18   6 C    3.989 --    17 C    1.029    38 H    0.983    37 H    0.968
                            36 H    0.963
    19   8 O    2.291 --    17 C    1.068    14 C    1.035
    20   7 N    3.343 --    21 C    1.168     7 C    1.002    39 H    0.913
                            22 O    0.115
    21   6 C    3.811 --    22 O    1.565    20 N    1.168    23 C    0.879
    22   8 O    1.832 --    21 C    1.565    20 N    0.115
    23   6 C    3.963 --    25 O    1.123    24 C    0.947     5 C    0.916
                            21 C    0.879
    24   6 C    3.988 --    41 H    0.990    42 H    0.987    40 H    0.986
                            23 C    0.947
    25   8 O    1.407 --    23 C    1.123
    26   1 H    1.023 --     1 C    0.980
    27   1 H    1.020 --     1 C    0.987
    28   1 H    1.022 --     1 C    0.980
    29   1 H    1.016 --     9 C    0.984
    30   1 H    1.025 --     9 C    0.983
    31   1 H    1.012 --     9 C    0.986
    32   1 H    1.011 --    10 C    0.983
    33   1 H    1.008 --    10 C    0.986
    34   1 H    1.006 --    10 C    0.985
    35   1 H    0.954 --    11 N    0.899
    36   1 H    0.998 --    18 C    0.963
    37   1 H    0.998 --    18 C    0.968
    38   1 H    1.000 --    18 C    0.983
    39   1 H    0.965 --    20 N    0.913
    40   1 H    1.026 --    24 C    0.986
    41   1 H    1.017 --    24 C    0.990
    42   1 H    1.034 --    24 C    0.987
 ---------------------------------------------------------------------------

           -------------------------------------------------
          | TOTAL ENERGY              -83.610257864855 Eh   |
          | GRADIENT NORM               0.000792084671 Eh/α |
          | HOMO-LUMO GAP               0.157988980231 eV   |
           -------------------------------------------------

 * finished run on 2023/06/21 at 17:16:27.305
