   * xtb version 6.5.1 (579679a) compiled by 'ehlert@majestix' on 2022-07-11
          program call               : /lustre/hpc/kemi/ree/PhD/git/ReactivityQM/dep/xtb-6.5.1/bin/xtb --gfn 1 /lustre/hpc/kemi/ree/PhD/git/ReactivityQM/calculations/R02oxygendeprot/reac01prodE13/conf09/R02oxygendeprot_reac01prodE13_conf09_gfn1.xyz --opt --vfukui --chrg -2 --uhf 0 --alpb DMSO

   ID    Z sym.   atoms
    1    6 C      1, 3, 5, 6, 8, 10, 12-15, 17, 19, 22, 23
    2    8 O      2, 4, 7, 9, 18, 24
    3    7 N      11, 16, 20, 21, 25
    4    1 H      26-42

      * Solvation model:               ALPB
        Solvent                        DMSO
        Solvent mass                       7.8130E+01 g/mol
          :  Hamiltonian                  GFN1-xTB          :
 * total energy  :   -83.5672558 Eh     change       -0.1051419E-08 Eh
 * total energy  :   -83.5820141 Eh     change       -0.1475827E-01 Eh
 * total energy  :   -83.5880795 Eh     change       -0.6065399E-02 Eh
 * total energy  :   -83.5893506 Eh     change       -0.1271149E-02 Eh
 * total energy  :   -83.5899731 Eh     change       -0.6224482E-03 Eh
 * total energy  :   -83.5901839 Eh     change       -0.2107727E-03 Eh
 * total energy  :   -83.5903227 Eh     change       -0.1388006E-03 Eh
 * total energy  :   -83.5904300 Eh     change       -0.1072996E-03 Eh
 * total energy  :   -83.5905062 Eh     change       -0.7623543E-04 Eh
 * total energy  :   -83.5905575 Eh     change       -0.5126904E-04 Eh
 * total energy  :   -83.5915322 Eh     change       -0.1327191E-04 Eh
 * total energy  :   -83.5915512 Eh     change       -0.1903841E-04 Eh
 * total energy  :   -83.5915570 Eh     change       -0.5841994E-05 Eh
 * total energy  :   -83.5915654 Eh     change       -0.8306578E-05 Eh
 * total energy  :   -83.5915722 Eh     change       -0.6884969E-05 Eh
 * total energy  :   -83.5915789 Eh     change       -0.6676225E-05 Eh
 * total energy  :   -83.5915857 Eh     change       -0.6800748E-05 Eh
 * total energy  :   -83.5915911 Eh     change       -0.5431264E-05 Eh
 * total energy  :   -83.5915959 Eh     change       -0.4720148E-05 Eh
   *** GEOMETRY OPTIMIZATION CONVERGED AFTER 50 ITERATIONS ***

 final structure:
================
42
 xtb: 6.5.1 (579679a)
C           -5.64681980923585        2.84240652448109        0.07419524242758
O           -4.71991452411769        1.81787062546746        0.35433740360128
C           -3.61051930940897        1.77472353028625       -0.49685385658528
O           -3.52865705825889        2.63266948389326       -1.40357150594836
C           -2.67945458670560        0.74508039802209       -0.23242993520499
C           -2.79343772668407       -0.27573050761493        0.82910503160800
O           -3.77009920636186       -0.33847060664935        1.64130892701659
C           -1.72193742635456       -1.17721299803801        0.86729257336420
O           -1.60139846774692       -2.25884785437232        1.73846427172519
C           -1.75574334078762       -1.98172788455071        3.12177291432447
N           -0.65703432225360       -1.10249961154407       -0.03612517249165
C           -0.66102667084361       -0.15168515362242       -1.01834392923192
C            0.47690095291426       -0.15313469433768       -2.03567460391589
C            0.29723749234504        1.04253468675444       -2.98006496086254
C            0.45226807893704       -1.44894445106447       -2.86087650966724
N            1.77970826751190        0.02093476055027       -1.39008258839682
C            2.37540817792662       -0.90453115730626       -0.53249119776626
O            2.05974568899411       -2.11856562663318       -0.49875761230007
C            3.41605827416104       -0.30438661948239        0.23527151809907
N            3.74277035541219        0.99616254987630        0.24581365236111
N            4.77532823331993        1.12767506214951        1.13542794375349
C            5.02619339829729       -0.04653232468747        1.61373171431449
C            6.06700422429776       -0.40082513136731        2.61162715722668
O            4.22060199213047       -1.01320406251672        1.10913490720779
N           -1.58979812455145        0.73527837296658       -1.10962975027752
H           -6.06502249414694        2.74245386463365       -0.93604638832267
H           -6.45486928013389        2.76150803680923        0.80359554847652
H           -5.18722239371566        3.83611593069100        0.15716817603403
H           -1.06390513766870       -1.19679533781618        3.45568499850891
H           -1.52880241551126       -2.90601690847958        3.65755302067064
H           -2.78234051289665       -1.67406737256173        3.35823405153408
H            0.03053506462268       -1.84425756385431       -0.03113887853925
H            0.29322971984106        1.97499776214898       -2.41522016495095
H           -0.65198069847895        0.95879263826241       -3.50841519287378
H            1.10797804571779        1.06983822323045       -3.70667556325645
H           -0.46568333165900       -1.48650638258152       -3.44738603459043
H            1.30399795683845       -1.47225470448616       -3.53966764470095
H            0.49261545662940       -2.32863062472347       -2.22166541282881
H            2.02933385599752        0.98339866212542       -1.19838003911793
H            5.61096098312640       -0.82759717194609        3.50580792977803
H            6.62510289247215        0.49133375367993        2.88502835227592
H            6.75268572603749       -1.14134911577319        2.19894160754825

          :  Hamiltonian                  GFN1-xTB          :
         :: total energy             -83.591595864298 Eh    ::
         :: gradient norm              0.000577213047 Eh/a0 ::
         :: HOMO-LUMO gap              0.053742984045 eV    ::
         :: SCC energy               -84.315606147357 Eh    ::
         :: -> Gsolv                  -0.272591048075 Eh    ::
         :: repulsion energy           0.749156981256 Eh    ::

    * Orbital Energies and Occupations

         #    Occupation            Energy/Eh            Energy/eV
      -------------------------------------------------------------
         1        2.0000           -0.7982647             -21.7219
       ...           ...                  ...                  ...
        56        2.0000           -0.4374395             -11.9033
        57        2.0000           -0.4280339             -11.6474
        58        2.0000           -0.4275924             -11.6354
        59        2.0000           -0.4057029             -11.0397
        60        2.0000           -0.4047440             -11.0136
        61        2.0000           -0.4019208             -10.9368
        62        2.0000           -0.3955629             -10.7638
        63        2.0000           -0.3921283             -10.6704
        64        2.0000           -0.3901650             -10.6169
        65        2.0000           -0.3781827             -10.2909
        66        2.0000           -0.3421239              -9.3097
        67        2.0000           -0.3358015              -9.1376
        68        1.4775           -0.2660918              -7.2407 (HOMO)
        69        0.5225           -0.2641168              -7.1870 (LUMO)
        70                         -0.2081809              -5.6649
        71                         -0.1999378              -5.4406
        72                         -0.1635884              -4.4515
        73                         -0.1370414              -3.7291
        74                         -0.1235700              -3.3625
        75                         -0.1055354              -2.8718
        76                         -0.1051379              -2.8609
        77                         -0.1000815              -2.7234
        78                         -0.0977922              -2.6611
        79                         -0.0717143              -1.9514
       ...                                ...                  ...
       134                          0.7089186              19.2907
      -------------------------------------------------------------
                  HL-Gap            0.0019750 Eh            0.0537 eV

Wiberg/Mayer (AO) data.
largest (>0.10) Wiberg bond orders for each atom

     #   Z sym  total        # sym  WBO       # sym  WBO       # sym  WBO
 ---------------------------------------------------------------------------
     1   6 C    3.922 --    27 H    0.987    26 H    0.980    28 H    0.980
                             2 O    0.954
     2   8 O    2.072 --     1 C    0.954     3 C    0.951
     3   6 C    3.775 --     4 O    1.446     5 C    1.280     2 O    0.951
     4   8 O    1.695 --     3 C    1.446
     5   6 C    3.757 --     3 C    1.280    25 N    1.119     6 C    1.078
     6   6 C    3.918 --     7 O    1.384     8 C    1.329     5 C    1.078
     7   8 O    1.682 --     6 C    1.384     8 C    0.114
     8   6 C    3.566 --     6 C    1.329    11 N    1.040     9 O    0.952
                             7 O    0.114
     9   8 O    2.018 --     8 C    0.952    10 C    0.936
    10   6 C    3.909 --    30 H    0.986    29 H    0.982    31 H    0.977
                             9 O    0.936
    11   7 N    3.282 --    12 C    1.142     8 C    1.040    32 H    0.887
    12   6 C    3.928 --    25 N    1.598    11 N    1.142    13 C    0.963
    13   6 C    3.950 --    14 C    1.000    15 C    0.989    12 C    0.963
                            16 N    0.936
    14   6 C    3.996 --    13 C    1.000    35 H    0.988    34 H    0.985
                            33 H    0.984
    15   6 C    3.992 --    13 C    0.989    36 H    0.988    37 H    0.986
                            38 H    0.979
    16   7 N    3.154 --    17 C    1.092    13 C    0.936    39 H    0.916
                            18 O    0.110
    17   6 C    3.764 --    18 O    1.417    19 C    1.164    16 N    1.092
    18   8 O    1.696 --    17 C    1.417    16 N    0.110
    19   6 C    3.699 --    20 N    1.378    17 C    1.164    24 O    0.974
    20   7 N    2.737 --    19 C    1.378    21 N    1.183
    21   7 N    2.980 --    22 C    1.630    20 N    1.183
    22   6 C    3.819 --    21 N    1.630    24 O    1.047    23 C    1.023
    23   6 C    3.994 --    22 C    1.023    41 H    0.986    42 H    0.972
                            40 H    0.971
    24   8 O    2.179 --    22 C    1.047    19 C    0.974
    25   7 N    2.955 --    12 C    1.598     5 C    1.119
    26   1 H    1.021 --     1 C    0.980
    27   1 H    1.021 --     1 C    0.987
    28   1 H    1.021 --     1 C    0.980
    29   1 H    1.013 --    10 C    0.982
    30   1 H    1.020 --    10 C    0.986
    31   1 H    1.040 --    10 C    0.977
    32   1 H    0.965 --    11 N    0.887
    33   1 H    1.015 --    14 C    0.984
    34   1 H    1.018 --    14 C    0.985
    35   1 H    1.006 --    14 C    0.988
    36   1 H    1.007 --    15 C    0.988
    37   1 H    1.007 --    15 C    0.986
    38   1 H    1.024 --    15 C    0.979
    39   1 H    0.978 --    16 N    0.916
    40   1 H    1.001 --    23 C    0.971
    41   1 H    1.005 --    23 C    0.986
    42   1 H    1.001 --    23 C    0.972
 ---------------------------------------------------------------------------

           -------------------------------------------------
          | TOTAL ENERGY              -83.591595864298 Eh   |
          | GRADIENT NORM               0.000577213047 Eh/α |
          | HOMO-LUMO GAP               0.053742984045 eV   |
           -------------------------------------------------

 * finished run on 2023/06/21 at 17:14:29.571
