   * xtb version 6.5.1 (579679a) compiled by 'ehlert@majestix' on 2022-07-11
          program call               : /lustre/hpc/kemi/ree/PhD/git/ReactivityQM/dep/xtb-6.5.1/bin/xtb --gfn 1 /lustre/hpc/kemi/ree/PhD/git/ReactivityQM/calculations/R02deprot/reac01prodE08/conf12/R02deprot_reac01prodE08_conf12_gfn1.xyz --opt --vfukui --chrg -2 --uhf 0 --alpb DMSO

   ID    Z sym.   atoms
    1    6 C      1, 3, 5, 7-10, 12, 14, 15, 18, 19, 22, 24
    2    8 O      2, 4, 13, 20, 23, 25
    3    7 N      6, 11, 16, 17, 21
    4    1 H      26-42

      * Solvation model:               ALPB
        Solvent                        DMSO
        Solvent mass                       7.8130E+01 g/mol
          :  Hamiltonian                  GFN1-xTB          :
 * total energy  :   -83.6094275 Eh     change       -0.1776641E-09 Eh
 * total energy  :   -83.6238781 Eh     change       -0.1445055E-01 Eh
 * total energy  :   -83.6293510 Eh     change       -0.5472989E-02 Eh
 * total energy  :   -83.6304237 Eh     change       -0.1072693E-02 Eh
 * total energy  :   -83.6312582 Eh     change       -0.8344378E-03 Eh
 * total energy  :   -83.6316210 Eh     change       -0.3628045E-03 Eh
 * total energy  :   -83.6319959 Eh     change       -0.3749331E-03 Eh
 * total energy  :   -83.6323067 Eh     change       -0.3108132E-03 Eh
 * total energy  :   -83.6325426 Eh     change       -0.2358820E-03 Eh
 * total energy  :   -83.6327366 Eh     change       -0.1939683E-03 Eh
 * total energy  :   -83.6348785 Eh     change       -0.1825982E-04 Eh
 * total energy  :   -83.6348857 Eh     change       -0.7124303E-05 Eh
 * total energy  :   -83.6348931 Eh     change       -0.7431326E-05 Eh
 * total energy  :   -83.6349003 Eh     change       -0.7173748E-05 Eh
 * total energy  :   -83.6349078 Eh     change       -0.7542647E-05 Eh
 * total energy  :   -83.6349144 Eh     change       -0.6587995E-05 Eh
 * total energy  :   -83.6349209 Eh     change       -0.6527465E-05 Eh
 * total energy  :   -83.6349272 Eh     change       -0.6240327E-05 Eh
 * total energy  :   -83.6349313 Eh     change       -0.4151475E-05 Eh
   *** GEOMETRY OPTIMIZATION CONVERGED AFTER 57 ITERATIONS ***

 final structure:
================
42
 xtb: 6.5.1 (579679a)
C           -4.42973931449119        3.59970748361926       -0.54569727075878
O           -4.15339771565635        2.21286779847261       -0.69171739231906
C           -2.98884547529611        1.77898475720392       -0.16080528241180
O           -2.22332591582849        2.54622310249610        0.39658387175754
C           -2.76837451648754        0.32817168908718       -0.31570671022986
N           -1.56661786138346       -0.12332385378199        0.16532000368279
C           -1.32388963179040       -1.41420353824083        0.08970461036104
C            0.01132421094155       -1.87557045632263        0.67171162831242
C           -0.04322140499589       -1.69062807742611        2.19766211647646
C            0.28364116351421       -3.34204890283348        0.31799123785969
N            1.05358513731439       -1.02175304657185        0.11137489867956
C            2.36046615486834       -1.10458024041002        0.36381477476454
O            2.88162314554570       -1.89599765439117        1.15222364427421
C            3.19085661033439       -0.08331241781606       -0.49654419523569
C            4.23197241639290       -0.90067003279726       -1.28843383857857
N            2.31061565823115        0.67537239541270       -1.37034381622039
N            2.45372797917466        1.98740245912558       -0.99225551141523
C            3.30270745890217        2.08066359192182       -0.03879317539273
C            3.76251375634407        3.31512974855100        0.65675381309863
O            3.84460573914028        0.85119913119634        0.36103544650111
N           -2.12134372714527       -2.36008217767668       -0.40997110743358
C           -3.32059657571009       -1.99144198219771       -0.91577898751629
O           -4.14909383277157       -2.78601823544540       -1.41351242059346
C           -3.65354411238909       -0.56892241471456       -0.86181214759111
O           -4.87051594652457       -0.25053693967426       -1.37106448870033
H           -3.67599328508509        4.20124678567593       -1.06352703719956
H           -4.44205229638712        3.88068196708307        0.51171627917618
H           -5.40943033736551        3.77606842134651       -0.98635261049947
H            0.90172688082931       -1.98368629190077        2.65310106614576
H           -0.83943018535799       -2.30742016545131        2.61212965239894
H           -0.24863599983677       -0.64608138521530        2.43341706248631
H            1.22074379583714       -3.67465385404919        0.76169516152337
H           -0.52766806999191       -3.96269923139025        0.69559249271681
H            0.33670819039432       -3.46316500105377       -0.76373703877678
H            0.79829874800670       -0.31221247915556       -0.58922919610013
H            4.87836527536536       -0.22008543319257       -1.83874889972224
H            4.83504769930320       -1.50260551727368       -0.60958929129127
H            3.71793908720738       -1.55159497918413       -1.99348826829046
H            4.84436264828443        3.43533484440741        0.56435952678032
H            3.52200711425826        3.28331107422725        1.72280172635965
H            3.27384429049340        4.18049955121340        0.21147008862043
H           -5.26096895619528       -1.09956849288293       -1.66792441571685

          :  Hamiltonian                  GFN1-xTB          :
         :: total energy             -83.634931320401 Eh    ::
         :: gradient norm              0.000939854659 Eh/a0 ::
         :: HOMO-LUMO gap              0.186063305765 eV    ::
         :: SCC energy               -84.366596500799 Eh    ::
         :: -> Gsolv                  -0.267087483169 Eh    ::
         :: repulsion energy           0.757706118231 Eh    ::

    * Orbital Energies and Occupations

         #    Occupation            Energy/Eh            Energy/eV
      -------------------------------------------------------------
         1        2.0000           -0.8077467             -21.9799
       ...           ...                  ...                  ...
        56        2.0000           -0.4453987             -12.1199
        57        2.0000           -0.4421782             -12.0323
        58        2.0000           -0.4271361             -11.6230
        59        2.0000           -0.4117435             -11.2041
        60        2.0000           -0.4013374             -10.9209
        61        2.0000           -0.4000853             -10.8869
        62        2.0000           -0.3968511             -10.7989
        63        2.0000           -0.3902157             -10.6183
        64        2.0000           -0.3771441             -10.2626
        65        2.0000           -0.3643374              -9.9141
        66        2.0000           -0.3626225              -9.8675
        67        2.0000           -0.3504887              -9.5373
        68        1.9467           -0.2767231              -7.5300 (HOMO)
        69        0.0533           -0.2698854              -7.3440 (LUMO)
        70                         -0.2189342              -5.9575
        71                         -0.2026606              -5.5147
        72                         -0.1822295              -4.9587
        73                         -0.1635844              -4.4514
        74                         -0.1257757              -3.4225
        75                         -0.1081267              -2.9423
        76                         -0.0996330              -2.7112
        77                         -0.0949604              -2.5840
        78                         -0.0935044              -2.5444
        79                         -0.0885907              -2.4107
       ...                                ...                  ...
       134                          0.7396243              20.1262
      -------------------------------------------------------------
                  HL-Gap            0.0068377 Eh            0.1861 eV

Wiberg/Mayer (AO) data.
largest (>0.10) Wiberg bond orders for each atom

     #   Z sym  total        # sym  WBO       # sym  WBO       # sym  WBO
 ---------------------------------------------------------------------------
     1   6 C    3.893 --    28 H    0.987    26 H    0.980    27 H    0.980
                             2 O    0.919
     2   8 O    2.166 --     3 C    1.064     1 C    0.919     4 O    0.118
     3   6 C    3.812 --     4 O    1.618     2 O    1.064     5 C    1.040
     4   8 O    1.873 --     3 C    1.618     2 O    0.118
     5   6 C    3.954 --    24 C    1.463     6 N    1.201     3 C    1.040
     6   7 N    2.987 --     7 C    1.467     5 C    1.201
     7   6 C    3.955 --     6 N    1.467    21 N    1.360     8 C    0.969
     8   6 C    3.945 --    10 C    0.995     9 C    0.982     7 C    0.969
                            11 N    0.928
     9   6 C    3.995 --    30 H    0.988    31 H    0.985    29 H    0.983
                             8 C    0.982
    10   6 C    3.996 --     8 C    0.995    34 H    0.986    33 H    0.985
                            32 H    0.984
    11   7 N    3.369 --    12 C    1.319     8 C    0.928    35 H    0.865
                            13 O    0.169
    12   6 C    3.868 --    13 O    1.556    11 N    1.319    14 C    0.887
    13   8 O    1.854 --    12 C    1.556    11 N    0.169
    14   6 C    3.896 --    16 N    1.020    15 C    0.966    20 O    0.916
                            12 C    0.887
    15   6 C    3.992 --    38 H    0.988    37 H    0.986    36 H    0.986
                            14 C    0.966
    16   7 N    2.609 --    17 N    1.168    14 C    1.020    18 C    0.190
    17   7 N    3.004 --    18 C    1.675    16 N    1.168
    18   6 C    3.851 --    17 N    1.675    19 C    1.015    20 O    0.940
                            16 N    0.190
    19   6 C    3.996 --    18 C    1.015    41 H    0.987    39 H    0.977
                            40 H    0.977
    20   8 O    2.059 --    18 C    0.940    14 C    0.916
    21   7 N    2.972 --     7 C    1.360    22 C    1.254    23 O    0.122
    22   6 C    3.927 --    23 O    1.452    21 N    1.254    24 C    1.086
    23   8 O    1.786 --    22 C    1.452    21 N    0.122
    24   6 C    3.884 --     5 C    1.463    22 C    1.086    25 O    1.059
    25   8 O    2.033 --    24 C    1.059    42 H    0.819
    26   1 H    1.012 --     1 C    0.980
    27   1 H    1.012 --     1 C    0.980
    28   1 H    1.015 --     1 C    0.987
    29   1 H    1.017 --     9 C    0.983
    30   1 H    1.007 --     9 C    0.988
    31   1 H    1.016 --     9 C    0.985
    32   1 H    1.017 --    10 C    0.984
    33   1 H    1.021 --    10 C    0.985
    34   1 H    1.014 --    10 C    0.986
    35   1 H    1.001 --    11 N    0.865
    36   1 H    1.019 --    15 C    0.986
    37   1 H    1.014 --    15 C    0.986
    38   1 H    1.015 --    15 C    0.988
    39   1 H    1.009 --    19 C    0.977
    40   1 H    1.009 --    19 C    0.977
    41   1 H    1.010 --    19 C    0.987
    42   1 H    0.881 --    25 O    0.819
 ---------------------------------------------------------------------------

           -------------------------------------------------
          | TOTAL ENERGY              -83.634931320401 Eh   |
          | GRADIENT NORM               0.000939854659 Eh/α |
          | HOMO-LUMO GAP               0.186063305765 eV   |
           -------------------------------------------------

 * finished run on 2023/06/20 at 17:52:08.240
