   * xtb version 6.5.1 (579679a) compiled by 'ehlert@majestix' on 2022-07-11
          program call               : /lustre/hpc/kemi/ree/PhD/git/ReactivityQM/dep/xtb-6.5.1/bin/xtb --gfn 1 /lustre/hpc/kemi/ree/PhD/git/ReactivityQM/calculations/R01/reac01prodE03/conf07/R01_reac01prodE03_conf07_gfn1.xyz --opt --vfukui --chrg -1 --uhf 0 --alpb DMSO

   ID    Z sym.   atoms
    1    6 C      1, 3, 5, 6, 9, 10
    2    8 O      2, 4, 11
    3    7 N      7, 8
    4    1 H      12-20

      * Solvation model:               ALPB
        Solvent                        DMSO
        Solvent mass                       7.8130E+01 g/mol
          :  Hamiltonian                  GFN1-xTB          :
 * total energy  :   -38.3123136 Eh     change       -0.2238920E-10 Eh
 * total energy  :   -38.3233959 Eh     change       -0.1108230E-01 Eh
 * total energy  :   -38.3269452 Eh     change       -0.3549331E-02 Eh
 * total energy  :   -38.3274640 Eh     change       -0.5187915E-03 Eh
 * total energy  :   -38.3279174 Eh     change       -0.4533656E-03 Eh
 * total energy  :   -38.3281594 Eh     change       -0.2420057E-03 Eh
 * total energy  :   -38.3284469 Eh     change       -0.2874499E-03 Eh
 * total energy  :   -38.3286499 Eh     change       -0.2029944E-03 Eh
 * total energy  :   -38.3288033 Eh     change       -0.1534366E-03 Eh
 * total energy  :   -38.3288687 Eh     change       -0.6538096E-04 Eh
 * total energy  :   -38.3289474 Eh     change       -0.7873571E-04 Eh
 * total energy  :   -38.3289873 Eh     change       -0.3991929E-04 Eh
 * total energy  :   -38.3290174 Eh     change       -0.3002960E-04 Eh
 * total energy  :   -38.3290473 Eh     change       -0.2996859E-04 Eh
 * total energy  :   -38.3290833 Eh     change       -0.3598580E-04 Eh
 * total energy  :   -38.3291166 Eh     change       -0.3327552E-04 Eh
 * total energy  :   -38.3291350 Eh     change       -0.1838091E-04 Eh
 * total energy  :   -38.3291442 Eh     change       -0.9241300E-05 Eh
 * total energy  :   -38.3291475 Eh     change       -0.3344144E-05 Eh
   *** GEOMETRY OPTIMIZATION CONVERGED AFTER 19 ITERATIONS ***

 final structure:
================
20
 xtb: 6.5.1 (579679a)
C            2.79271613269040        1.10886353856456        0.41241687679841
O            1.46588639706239        0.61533330089782        0.53182026117714
C            1.25595865113499       -0.64457653101095        0.06478490343713
O            2.17521071464060       -1.31904170464593       -0.39284357178498
C           -0.22052330776683       -1.00068368825365       -0.07540594177792
C           -0.48311800754058       -2.50235860648899        0.05113087110935
N           -0.37046511261496       -0.48049562394798       -1.43429946709997
N           -1.17786037401167        0.62077492704143       -1.30575742143666
C           -1.56282246431742        0.74970683355126       -0.09357218827537
C           -2.46837043734895        1.78655947491664        0.47153771845956
O           -1.06374863010944       -0.23770915099573        0.76943759585279
H            3.48710989285869        0.49165575312629        0.99179443399705
H            3.11625859477147        1.11473641020035       -0.63394096242557
H            2.79405647838489        2.12540225189048        0.80405560718971
H           -1.49033460378279       -2.72247143294375       -0.29715367250058
H           -0.38669582260154       -2.81536918059987        1.08942383734398
H            0.23659246570762       -3.04479078588272       -0.55978977126891
H           -2.78375342129979        2.45940277363918       -0.32406302940991
H           -1.96412758444185        2.36688850840875        1.24681631498901
H           -3.35196856141501        1.32817493253284        0.92000360562580

          :  Hamiltonian                  GFN1-xTB          :
         :: total energy             -38.329147548888 Eh    ::
         :: gradient norm              0.000906201408 Eh/a0 ::
         :: HOMO-LUMO gap              2.064735582558 eV    ::
         :: SCC energy               -38.635887902256 Eh    ::
         :: -> Gsolv                  -0.104180286338 Eh    ::
         :: repulsion energy           0.315626859555 Eh    ::

    * Orbital Energies and Occupations

         #    Occupation            Energy/Eh            Energy/eV
      -------------------------------------------------------------
         1        2.0000           -0.7920326             -21.5523
       ...           ...                  ...                  ...
        19        2.0000           -0.5035690             -13.7028
        20        2.0000           -0.4985400             -13.5660
        21        2.0000           -0.4935846             -13.4311
        22        2.0000           -0.4884708             -13.2920
        23        2.0000           -0.4756355             -12.9427
        24        2.0000           -0.4681512             -12.7390
        25        2.0000           -0.4607401             -12.5374
        26        2.0000           -0.4579156             -12.4605
        27        2.0000           -0.4195782             -11.4173
        28        2.0000           -0.4135355             -11.2529
        29        2.0000           -0.3891245             -10.5886
        30        2.0000           -0.3625927              -9.8667
        31        2.0000           -0.2894571              -7.8765 (HOMO)
        32                         -0.2135795              -5.8118 (LUMO)
        33                         -0.1707026              -4.6451
        34                         -0.1206187              -3.2822
        35                         -0.1131565              -3.0791
        36                         -0.0982088              -2.6724
        37                         -0.0583003              -1.5864
        38                         -0.0572737              -1.5585
        39                         -0.0469198              -1.2768
        40                         -0.0454227              -1.2360
        41                         -0.0394449              -1.0734
        42                         -0.0345247              -0.9395
       ...                                ...                  ...
        62                          0.6709612              18.2578
      -------------------------------------------------------------
                  HL-Gap            0.0758776 Eh            2.0647 eV

Wiberg/Mayer (AO) data.
largest (>0.10) Wiberg bond orders for each atom

     #   Z sym  total        # sym  WBO       # sym  WBO       # sym  WBO
 ---------------------------------------------------------------------------
     1   6 C    3.903 --    14 H    0.987    12 H    0.981    13 H    0.981
                             2 O    0.926
     2   8 O    2.152 --     3 C    1.043     1 C    0.926     4 O    0.104
     3   6 C    3.815 --     4 O    1.571     2 O    1.043     5 C    0.921
                             7 N    0.178
     4   8 O    1.855 --     3 C    1.571     2 O    0.104
     5   6 C    3.901 --     6 C    0.980     7 N    0.967    11 O    0.928
                             3 C    0.921
     6   6 C    3.996 --    16 H    0.987    15 H    0.986    17 H    0.986
                             5 C    0.980
     7   7 N    2.659 --     8 N    1.162     5 C    0.967     3 C    0.178
                             9 C    0.162
     8   7 N    3.014 --     9 C    1.688     7 N    1.162
     9   6 C    3.879 --     8 N    1.688    10 C    1.018    11 O    0.937
                             7 N    0.162
    10   6 C    3.996 --     9 C    1.018    18 H    0.987    19 H    0.976
                            20 H    0.976
    11   8 O    2.066 --     9 C    0.937     5 C    0.928
    12   1 H    1.015 --     1 C    0.981
    13   1 H    1.014 --     1 C    0.981
    14   1 H    1.017 --     1 C    0.987
    15   1 H    1.018 --     6 C    0.986
    16   1 H    1.009 --     6 C    0.987
    17   1 H    1.017 --     6 C    0.986
    18   1 H    1.009 --    10 C    0.987
    19   1 H    1.008 --    10 C    0.976
    20   1 H    1.008 --    10 C    0.976
 ---------------------------------------------------------------------------

           -------------------------------------------------
          | TOTAL ENERGY              -38.329147548888 Eh   |
          | GRADIENT NORM               0.000906201408 Eh/α |
          | HOMO-LUMO GAP               2.064735582558 eV   |
           -------------------------------------------------

 * finished run on 2023/06/20 at 14:53:18.062
