   * xtb version 6.5.1 (579679a) compiled by 'ehlert@majestix' on 2022-07-11
          program call               : /lustre/hpc/kemi/ree/PhD/git/ReactivityQM/dep/xtb-6.5.1/bin/xtb --gfn 1 /lustre/hpc/kemi/ree/PhD/git/ReactivityQM/calculations/R01/reac01prodN03/conf13/R01_reac01prodN03_conf13_gfn1.xyz --opt --vfukui --chrg 1 --uhf 0 --alpb DMSO

   ID    Z sym.   atoms
    1    6 C      1, 3, 5, 7, 8, 11
    2    8 O      2, 4, 6
    3    7 N      9, 10
    4    1 H      12-20

      * Solvation model:               ALPB
        Solvent                        DMSO
        Solvent mass                       7.8130E+01 g/mol
          :  Hamiltonian                  GFN1-xTB          :
 * total energy  :   -37.6218659 Eh     change       -0.5378809E-11 Eh
 * total energy  :   -37.6366600 Eh     change       -0.1479416E-01 Eh
 * total energy  :   -37.6417696 Eh     change       -0.5109591E-02 Eh
 * total energy  :   -37.6431340 Eh     change       -0.1364415E-02 Eh
 * total energy  :   -37.6441217 Eh     change       -0.9876836E-03 Eh
 * total energy  :   -37.6445495 Eh     change       -0.4277442E-03 Eh
 * total energy  :   -37.6448438 Eh     change       -0.2942981E-03 Eh
 * total energy  :   -37.6450523 Eh     change       -0.2085588E-03 Eh
 * total energy  :   -37.6451207 Eh     change       -0.6837500E-04 Eh
 * total energy  :   -37.6451295 Eh     change       -0.8813993E-05 Eh
 * total energy  :   -37.6451335 Eh     change       -0.4045652E-05 Eh
   *** GEOMETRY OPTIMIZATION CONVERGED AFTER 11 ITERATIONS ***

 final structure:
================
20
 xtb: 6.5.1 (579679a)
C           -3.21038728101454       -1.74963992943553        0.09662139184299
O           -1.81981375387326       -1.37226621995741        0.05171588520981
C           -1.54478893681840       -0.10836105970932       -0.10589823914263
O           -2.31941576220545        0.80109068633432       -0.22241948690839
C           -0.05423671741451        0.12191596745203       -0.12955229467828
O            0.84111879385429       -0.84159712458947        0.01161888073059
C            2.04080085114447       -0.25343071407962       -0.06772683160451
C            3.28184085432711       -1.03906495946613        0.03440064199915
N            1.91506052746250        1.03372196031075       -0.25340183004692
N            0.59469530548976        1.25363352308762       -0.29213812106690
C            0.10758432216275        2.60406644417633       -0.47476575121085
H           -3.22392390439649       -2.81528006815367        0.31106864301047
H           -3.71560748798052       -1.18440107702562        0.88078938158142
H           -3.67254175763430       -1.54000662268816       -0.86871357812899
H            4.00483323198388       -0.51260783426802        0.65652706451999
H            3.71615311242978       -1.16166913857800       -0.96015990956239
H            3.06537637628995       -2.02053822551209        0.45027687523038
H            0.14227315734028        3.11374069357422        0.48794756908284
H           -0.91436754359506        2.56557163073889       -0.84297148925157
H            0.76534661244768        3.10512106778854       -1.18134280160612

          :  Hamiltonian                  GFN1-xTB          :
         :: total energy             -37.645133549849 Eh    ::
         :: gradient norm              0.000772242591 Eh/a0 ::
         :: HOMO-LUMO gap              3.654234408416 eV    ::
         :: SCC energy               -37.999883917846 Eh    ::
         :: -> Gsolv                  -0.077902021747 Eh    ::
         :: repulsion energy           0.362864918026 Eh    ::

    * Orbital Energies and Occupations

         #    Occupation            Energy/Eh            Energy/eV
      -------------------------------------------------------------
         1        2.0000           -0.9440757             -25.6896
       ...           ...                  ...                  ...
        18        2.0000           -0.6263340             -17.0434
        19        2.0000           -0.6069368             -16.5156
        20        2.0000           -0.6042517             -16.4425
        21        2.0000           -0.5966014             -16.2343
        22        2.0000           -0.5886976             -16.0193
        23        2.0000           -0.5751752             -15.6513
        24        2.0000           -0.5696000             -15.4996
        25        2.0000           -0.5592658             -15.2184
        26        2.0000           -0.5491734             -14.9438
        27        2.0000           -0.5437064             -14.7950
        28        2.0000           -0.5327494             -14.4968
        29        2.0000           -0.5315865             -14.4652
        30        2.0000           -0.5219699             -14.2035 (HOMO)
        31                         -0.3876793             -10.5493 (LUMO)
        32                         -0.3295493              -8.9675
        33                         -0.2699999              -7.3471
        34                         -0.1748860              -4.7589
        35                         -0.1696314              -4.6159
        36                         -0.1564264              -4.2566
        37                         -0.1098817              -2.9900
        38                         -0.1014140              -2.7596
        39                         -0.1008817              -2.7451
        40                         -0.0988196              -2.6890
        41                         -0.0919048              -2.5009
       ...                                ...                  ...
        62                          0.7210580              19.6210
      -------------------------------------------------------------
                  HL-Gap            0.1342906 Eh            3.6542 eV

Wiberg/Mayer (AO) data.
largest (>0.10) Wiberg bond orders for each atom

     #   Z sym  total        # sym  WBO       # sym  WBO       # sym  WBO
 ---------------------------------------------------------------------------
     1   6 C    3.828 --    12 H    0.983    13 H    0.976    14 H    0.975
                             2 O    0.858
     2   8 O    2.258 --     3 C    1.191     1 C    0.858     4 O    0.160
     3   6 C    3.883 --     4 O    1.677     2 O    1.191     5 C    0.944
     4   8 O    1.982 --     3 C    1.677     2 O    0.160
     5   6 C    3.853 --    10 N    1.451     6 O    1.132     3 C    0.944
     6   8 O    2.388 --     5 C    1.132     7 C    1.088
     7   6 C    3.837 --     9 N    1.549     6 O    1.088     8 C    1.043
     8   6 C    3.967 --     7 C    1.043    17 H    0.974    15 H    0.959
                            16 H    0.939
     9   7 N    2.965 --     7 C    1.549    10 N    1.176
    10   7 N    3.670 --     5 C    1.451     9 N    1.176    11 C    0.908
    11   6 C    3.874 --    19 H    0.972    20 H    0.970    18 H    0.955
                            10 N    0.908
    12   1 H    1.004 --     1 C    0.983
    13   1 H    0.998 --     1 C    0.976
    14   1 H    0.998 --     1 C    0.975
    15   1 H    0.989 --     8 C    0.959
    16   1 H    0.987 --     8 C    0.939
    17   1 H    0.989 --     8 C    0.974
    18   1 H    0.988 --    11 C    0.955
    19   1 H    1.000 --    11 C    0.972
    20   1 H    0.991 --    11 C    0.970
 ---------------------------------------------------------------------------

           -------------------------------------------------
          | TOTAL ENERGY              -37.645133549849 Eh   |
          | GRADIENT NORM               0.000772242591 Eh/α |
          | HOMO-LUMO GAP               3.654234408416 eV   |
           -------------------------------------------------

 * finished run on 2023/06/20 at 14:55:27.495
