   * xtb version 6.5.1 (579679a) compiled by 'ehlert@majestix' on 2022-07-11
          program call               : /lustre/hpc/kemi/ree/PhD/git/ReactivityQM/dep/xtb-6.5.1/bin/xtb --gfn 1 /lustre/hpc/kemi/ree/PhD/git/ReactivityQM/calculations/RaltegravirCLI/reac01prodN05/conf04/RaltegravirCLI_reac01prodN05_conf04_gfn1.xyz --opt --vfukui --chrg 1 --uhf 0 --alpb DMSO

   ID    Z sym.   atoms
    1    6 C      1, 2, 5-7
    2    7 N      3, 4
    3    8 O      8, 10
    4   17 Cl     9
    5    1 H      11-16

      * Solvation model:               ALPB
        Solvent                        DMSO
        Solvent mass                       7.8130E+01 g/mol
          :  Hamiltonian                  GFN1-xTB          :
 * total energy  :   -33.3755376 Eh     change       -0.2359002E-11 Eh
 * total energy  :   -33.3835481 Eh     change       -0.8010498E-02 Eh
 * total energy  :   -33.3870517 Eh     change       -0.3503663E-02 Eh
 * total energy  :   -33.3873588 Eh     change       -0.3070192E-03 Eh
 * total energy  :   -33.3874882 Eh     change       -0.1294960E-03 Eh
 * total energy  :   -33.3875367 Eh     change       -0.4840958E-04 Eh
 * total energy  :   -33.3876398 Eh     change       -0.1031091E-03 Eh
 * total energy  :   -33.3877949 Eh     change       -0.1551196E-03 Eh
 * total energy  :   -33.3879325 Eh     change       -0.1376319E-03 Eh
 * total energy  :   -33.3882004 Eh     change       -0.2678720E-03 Eh
 * total energy  :   -33.3920335 Eh     change       -0.1142266E-04 Eh
 * total energy  :   -33.3920462 Eh     change       -0.1266365E-04 Eh
 * total energy  :   -33.3920661 Eh     change       -0.1996509E-04 Eh
 * total energy  :   -33.3920834 Eh     change       -0.1725924E-04 Eh
 * total energy  :   -33.3920960 Eh     change       -0.1262582E-04 Eh
 * total energy  :   -33.3921065 Eh     change       -0.1050613E-04 Eh
 * total energy  :   -33.3921163 Eh     change       -0.9812615E-05 Eh
 * total energy  :   -33.3921229 Eh     change       -0.6549016E-05 Eh
 * total energy  :   -33.3921258 Eh     change       -0.2893263E-05 Eh
   *** GEOMETRY OPTIMIZATION CONVERGED AFTER 49 ITERATIONS ***

 final structure:
================
16
 xtb: 6.5.1 (579679a)
C            2.69959907630982        0.00273324394102       -0.23990058530472
C            1.30749849193574        0.10952474502588        0.16589009479889
N            0.86614041398810        0.58541624479192        1.37985303416176
N           -0.39207057230140        0.52485756335580        1.38472612019824
C           -0.85636741657764        0.02827633417087        0.14277726939892
C           -1.75602995559670       -1.20392550672152        0.23304193014002
C           -1.71562938978413        1.22074425043958       -0.49453522250984
O           -2.77279683215148        1.45105114484088       -0.01852751866261
Cl          -0.99949898276141        2.01239222328500       -1.78430787330709
O            0.32005516031104       -0.22830309531487       -0.57978516963014
H            2.78531578494429       -0.41000689786602       -1.24246486699826
H            3.16365355282117        0.99177122458340       -0.19084520009734
H            3.23474299538421       -0.62170065107999        0.48126502107471
H           -2.65079984243677       -0.94089785661884        0.79386842415319
H           -2.02310432409087       -1.52526052193358       -0.77105341667567
H           -1.21070915999376       -1.99667244489961        0.73999795925990

          :  Hamiltonian                  GFN1-xTB          :
         :: total energy             -33.392125767963 Eh    ::
         :: gradient norm              0.000661515033 Eh/a0 ::
         :: HOMO-LUMO gap              2.032648879448 eV    ::
         :: SCC energy               -33.670817848908 Eh    ::
         :: -> Gsolv                  -0.085382319494 Eh    ::
         :: repulsion energy           0.286655723915 Eh    ::

    * Orbital Energies and Occupations

         #    Occupation            Energy/Eh            Energy/eV
      -------------------------------------------------------------
         1        2.0000           -1.0048245             -27.3427
       ...           ...                  ...                  ...
        15        2.0000           -0.6380000             -17.3609
        16        2.0000           -0.6145855             -16.7237
        17        2.0000           -0.6051463             -16.4669
        18        2.0000           -0.6037213             -16.4281
        19        2.0000           -0.5864989             -15.9594
        20        2.0000           -0.5829099             -15.8618
        21        2.0000           -0.5754114             -15.6577
        22        2.0000           -0.5703429             -15.5198
        23        2.0000           -0.5676758             -15.4472
        24        2.0000           -0.5361188             -14.5885
        25        2.0000           -0.5339090             -14.5284
        26        2.0000           -0.5246523             -14.2765
        27        2.0000           -0.5138234             -13.9818 (HOMO)
        28                         -0.4391250             -11.9492 (LUMO)
        29                         -0.3573154              -9.7230
        30                         -0.3397844              -9.2460
        31                         -0.2511108              -6.8331
        32                         -0.1823050              -4.9608
        33                         -0.1642525              -4.4695
        34                         -0.1372103              -3.7337
        35                         -0.1296781              -3.5287
        36                         -0.1283712              -3.4932
        37                         -0.1142698              -3.1094
        38                         -0.1105842              -3.0091
       ...                                ...                  ...
        57                          0.7171467              19.5146
      -------------------------------------------------------------
                  HL-Gap            0.0746985 Eh            2.0326 eV

Wiberg/Mayer (AO) data.
largest (>0.10) Wiberg bond orders for each atom

     #   Z sym  total        # sym  WBO       # sym  WBO       # sym  WBO
 ---------------------------------------------------------------------------
     1   6 C    3.961 --     2 C    1.091    11 H    0.971    13 H    0.913
                            12 H    0.913
     2   6 C    3.799 --    10 O    1.290     3 N    1.182     1 C    1.091
     3   7 N    3.024 --     4 N    1.672     2 C    1.182
     4   7 N    3.012 --     3 N    1.672     5 C    1.078
     5   6 C    3.840 --     4 N    1.078     6 C    0.913    10 O    0.908
                             7 C    0.778
     6   6 C    3.942 --    15 H    0.977    16 H    0.974    14 H    0.973
                             5 C    0.913
     7   6 C    3.876 --     8 O    1.836     9 Cl   1.152     5 C    0.778
     8   8 O    2.137 --     7 C    1.836     9 Cl   0.157
     9  17 Cl   1.405 --     7 C    1.152     8 O    0.157
    10   8 O    2.380 --     2 C    1.290     5 C    0.908
    11   1 H    0.983 --     1 C    0.971
    12   1 H    0.976 --     1 C    0.913
    13   1 H    0.975 --     1 C    0.913
    14   1 H    0.993 --     6 C    0.973
    15   1 H    0.989 --     6 C    0.977
    16   1 H    0.989 --     6 C    0.974
 ---------------------------------------------------------------------------

           -------------------------------------------------
          | TOTAL ENERGY              -33.392125767963 Eh   |
          | GRADIENT NORM               0.000661515033 Eh/α |
          | HOMO-LUMO GAP               2.032648879448 eV   |
           -------------------------------------------------

 * finished run on 2023/06/20 at 14:54:59.402
