                         Program Version 5.0.1 -  RELEASE  -
|  1> # ORCA input file
|  2> ! SP r2SCAN-3c CPCM
|  3>
|  4> %maxcore 1875.0
|  5> %pal nprocs 4 end
|  6> %cpcm smd true SMDsolvent "DMSO" end
|  7>
|  8> *xyz 1 1
|  9> C      -4.270424    3.019561    1.780550
| 10> O      -3.301753    2.052232    1.332875
| 11> C      -3.571407    1.290157    0.339480
| 12> O      -4.721701    1.423545   -0.231927
| 13> C      -2.572700    0.330541   -0.072161
| 14> N      -1.414103    0.361844    0.662616
| 15> C      -0.466653   -0.468344    0.374421
| 16> C       0.800913   -0.472118    1.211656
| 17> C       0.875238   -1.776720    2.018612
| 18> C       0.793342    0.732416    2.154063
| 19> N       1.980027   -0.331399    0.348947
| 20> C       2.485676   -1.280308   -0.462971
| 21> O       1.960598   -2.361403   -0.702141
| 22> C       3.765713   -0.881540   -1.084890
| 23> N       4.490063   -1.558639   -1.920288
| 24> N       5.573700   -0.790691   -2.213540
| 25> C       5.446900    0.310596   -1.539323
| 26> C       6.363357    1.470493   -1.511755
| 27> O       4.323054    0.316658   -0.804000
| 28> N      -0.589099   -1.378595   -0.625741
| 29> C      -1.678300   -1.507125   -1.450325
| 30> O      -1.704367   -2.331894   -2.343019
| 31> C      -2.760526   -0.558294   -1.119977
| 32> O      -3.906321   -0.527760   -1.788417
| 33> C      -4.197240   -1.413773   -2.889390
| 34> H      -4.510489    3.697545    0.961158
| 35> H      -3.801627    3.551234    2.605179
| 36> H      -5.172007    2.501424    2.109480
| 37> H       0.840610   -2.645558    1.364980
| 38> H       1.802931   -1.795288    2.587852
| 39> H       0.032219   -1.819128    2.706201
| 40> H       0.723922    1.656949    1.583614
| 41> H       1.705561    0.742769    2.747486
| 42> H      -0.064916    0.670538    2.820709
| 43> H       2.502196    0.524887    0.450497
| 44> H       7.212379    1.284770   -2.165922
| 45> H       6.713677    1.640754   -0.493589
| 46> H       5.836005    2.366717   -1.838943
| 47> H       0.203274   -2.010465   -0.804828
| 48> H      -4.874668    0.817351   -0.990201
| 49> H      -4.168736   -2.451367   -2.554959
| 50> H      -3.482669   -1.255377   -3.697934
| 51> H      -5.201649   -1.147200   -3.212479
| 52> **                         ****END OF INPUT****

CARTESIAN COORDINATES (ANGSTROEM)
---------------------------------
  C     -4.270424    3.019561    1.780550
  O     -3.301753    2.052232    1.332875
  C     -3.571407    1.290157    0.339480
  O     -4.721701    1.423545   -0.231927
  C     -2.572700    0.330541   -0.072161
  N     -1.414103    0.361844    0.662616
  C     -0.466653   -0.468344    0.374421
  C      0.800913   -0.472118    1.211656
  C      0.875238   -1.776720    2.018612
  C      0.793342    0.732416    2.154063
  N      1.980027   -0.331399    0.348947
  C      2.485676   -1.280308   -0.462971
  O      1.960598   -2.361403   -0.702141
  C      3.765713   -0.881540   -1.084890
  N      4.490063   -1.558639   -1.920288
  N      5.573700   -0.790691   -2.213540
  C      5.446900    0.310596   -1.539323
  C      6.363357    1.470493   -1.511755
  O      4.323054    0.316658   -0.804000
  N     -0.589099   -1.378595   -0.625741
  C     -1.678300   -1.507125   -1.450325
  O     -1.704367   -2.331894   -2.343019
  C     -2.760526   -0.558294   -1.119977
  O     -3.906321   -0.527760   -1.788417
  C     -4.197240   -1.413773   -2.889390
  H     -4.510489    3.697545    0.961158
  H     -3.801627    3.551234    2.605179
  H     -5.172007    2.501424    2.109480
  H      0.840610   -2.645558    1.364980
  H      1.802931   -1.795288    2.587852
  H      0.032219   -1.819128    2.706201
  H      0.723922    1.656949    1.583614
  H      1.705561    0.742769    2.747486
  H     -0.064916    0.670538    2.820709
  H      2.502196    0.524887    0.450497
  H      7.212379    1.284770   -2.165922
  H      6.713677    1.640754   -0.493589
  H      5.836005    2.366717   -1.838943
  H      0.203274   -2.010465   -0.804828
  H     -4.874668    0.817351   -0.990201
  H     -4.168736   -2.451367   -2.554959
  H     -3.482669   -1.255377   -3.697934
  H     -5.201649   -1.147200   -3.212479

 Total Charge           Charge          ....    1
 Multiplicity           Mult            ....    1
 Number of Electrons    NEL             ....  184
 Basis Dimension        Dim             ....  620

ORBITAL ENERGIES
----------------

  NO   OCC          E(Eh)            E(eV)
   0   2.0000     -19.072119      -518.9787
   1   2.0000     -19.070953      -518.9470
   2   2.0000     -19.069967      -518.9202
   3   2.0000     -19.054121      -518.4890
   4   2.0000     -18.955623      -515.8087
   5   2.0000     -18.952766      -515.7310
   6   2.0000     -14.237922      -387.4336
   7   2.0000     -14.218300      -386.8996
   8   2.0000     -14.212265      -386.7354
   9   2.0000     -14.202688      -386.4748
  10   2.0000     -14.186151      -386.0248
  11   2.0000     -10.246358      -278.8176
  12   2.0000     -10.176441      -276.9150
  13   2.0000     -10.175355      -276.8855
  14   2.0000     -10.167272      -276.6655
  15   2.0000     -10.153330      -276.2861
  16   2.0000     -10.150709      -276.2148
  17   2.0000     -10.144654      -276.0501
  18   2.0000     -10.129524      -275.6384
  19   2.0000     -10.117277      -275.3051
  20   2.0000     -10.106501      -275.0119
  21   2.0000     -10.095947      -274.7247
  22   2.0000     -10.048251      -273.4268
  23   2.0000     -10.029918      -272.9280
  24   2.0000     -10.029207      -272.9086
  25   2.0000      -1.168840       -31.8058
  26   2.0000      -1.161993       -31.6194
  27   2.0000      -1.103354       -30.0238
  28   2.0000      -1.087591       -29.5949
  29   2.0000      -1.048394       -28.5283
  30   2.0000      -1.042026       -28.3550
  31   2.0000      -0.988527       -26.8992
  32   2.0000      -0.982615       -26.7383
  33   2.0000      -0.929540       -25.2941
  34   2.0000      -0.903194       -24.5772
  35   2.0000      -0.839180       -22.8353
  36   2.0000      -0.818698       -22.2779
  37   2.0000      -0.775751       -21.1093
  38   2.0000      -0.765704       -20.8359
  39   2.0000      -0.718574       -19.5534
  40   2.0000      -0.704940       -19.1824
  41   2.0000      -0.692304       -18.8385
  42   2.0000      -0.677766       -18.4430
  43   2.0000      -0.670426       -18.2432
  44   2.0000      -0.668139       -18.1810
  45   2.0000      -0.643110       -17.4999
  46   2.0000      -0.610914       -16.6238
  47   2.0000      -0.597059       -16.2468
  48   2.0000      -0.578281       -15.7358
  49   2.0000      -0.569036       -15.4843
  50   2.0000      -0.563802       -15.3418
  51   2.0000      -0.550502       -14.9799
  52   2.0000      -0.540182       -14.6991
  53   2.0000      -0.538376       -14.6499
  54   2.0000      -0.516634       -14.0583
  55   2.0000      -0.512638       -13.9496
  56   2.0000      -0.500567       -13.6211
  57   2.0000      -0.481946       -13.1144
  58   2.0000      -0.469976       -12.7887
  59   2.0000      -0.460757       -12.5378
  60   2.0000      -0.451024       -12.2730
  61   2.0000      -0.447885       -12.1876
  62   2.0000      -0.440800       -11.9948
  63   2.0000      -0.434755       -11.8303
  64   2.0000      -0.428558       -11.6616
  65   2.0000      -0.426585       -11.6080
  66   2.0000      -0.424252       -11.5445
  67   2.0000      -0.415777       -11.3139
  68   2.0000      -0.409549       -11.1444
  69   2.0000      -0.402102       -10.9418
  70   2.0000      -0.392253       -10.6737
  71   2.0000      -0.385661       -10.4944
  72   2.0000      -0.384161       -10.4535
  73   2.0000      -0.373751       -10.1703
  74   2.0000      -0.366193        -9.9646
  75   2.0000      -0.363479        -9.8908
  76   2.0000      -0.360801        -9.8179
  77   2.0000      -0.358305        -9.7500
  78   2.0000      -0.355835        -9.6828
  79   2.0000      -0.350845        -9.5470
  80   2.0000      -0.349072        -9.4987
  81   2.0000      -0.344259        -9.3678
  82   2.0000      -0.331918        -9.0320
  83   2.0000      -0.320370        -8.7177
  84   2.0000      -0.303703        -8.2642
  85   2.0000      -0.280939        -7.6447
  86   2.0000      -0.276216        -7.5162
  87   2.0000      -0.272682        -7.4201
  88   2.0000      -0.266176        -7.2430
  89   2.0000      -0.262625        -7.1464
  90   2.0000      -0.255641        -6.9563
  91   2.0000      -0.236387        -6.4324
  92   0.0000      -0.146230        -3.9791
  93   0.0000      -0.099199        -2.6993
  94   0.0000      -0.063578        -1.7300
  95   0.0000      -0.032455        -0.8831
  96   0.0000      -0.025729        -0.7001

MULLIKEN ATOMIC CHARGES
-----------------------
   0 C :   -0.286077
   1 O :   -0.160311
   2 C :    0.238940
   3 O :   -0.313644
   4 C :    0.134074
   5 N :   -0.131443
   6 C :    0.132470
   7 C :    0.111512
   8 C :   -0.546836
   9 C :   -0.582492
  10 N :   -0.096191
  11 C :   -0.046822
  12 O :   -0.504322
  13 C :    0.371455
  14 N :   -0.168755
  15 N :   -0.272406
  16 C :    0.403592
  17 C :   -0.630390
  18 O :   -0.055201
  19 N :   -0.006750
  20 C :    0.147549
  21 O :   -0.411356
  22 C :    0.185181
  23 O :   -0.203880
  24 C :   -0.295007
  25 H :    0.201872
  26 H :    0.202818
  27 H :    0.203690
  28 H :    0.195466
  29 H :    0.201532
  30 H :    0.192628
  31 H :    0.193392
  32 H :    0.191707
  33 H :    0.199738
  34 H :    0.329710
  35 H :    0.206633
  36 H :    0.202899
  37 H :    0.203005
  38 H :    0.305908
  39 H :    0.384449
  40 H :    0.193044
  41 H :    0.192960
  42 H :    0.185657
Sum of atomic charges:    1.0000000

LOEWDIN ATOMIC CHARGES
----------------------
   0 C :    0.005123
   1 O :   -0.477366
   2 C :    0.501636
   3 O :   -0.290196
   4 C :    0.209529
   5 N :   -0.542127
   6 C :    0.376701
   7 C :    0.111242
   8 C :   -0.335408
   9 C :   -0.333790
  10 N :   -0.550267
  11 C :    0.393337
  12 O :   -0.489352
  13 C :    0.415228
  14 N :   -0.325706
  15 N :   -0.352754
  16 C :    0.384535
  17 C :   -0.315605
  18 O :   -0.390274
  19 N :   -0.428045
  20 C :    0.381451
  21 O :   -0.436339
  22 C :    0.332884
  23 O :   -0.646891
  24 C :    0.000081
  25 H :    0.199672
  26 H :    0.202434
  27 H :    0.200001
  28 H :    0.182829
  29 H :    0.179595
  30 H :    0.177753
  31 H :    0.178822
  32 H :    0.174096
  33 H :    0.183528
  34 H :    0.305534
  35 H :    0.192246
  36 H :    0.193291
  37 H :    0.193330
  38 H :    0.320249
  39 H :    0.336227
  40 H :    0.195771
  41 H :    0.195552
  42 H :    0.191442

  Mayer bond orders larger than 0.100000
B(  0-C ,  1-O ) :   0.7931 B(  0-C , 25-H ) :   0.9396 B(  0-C , 26-H ) :   0.9499
B(  0-C , 27-H ) :   0.9386 B(  1-O ,  2-C ) :   1.3721 B(  2-C ,  3-O ) :   1.2651
B(  2-C ,  4-C ) :   1.0675 B(  3-O , 39-H ) :   0.7709 B(  4-C ,  5-N ) :   0.9210
B(  4-C , 22-C ) :   1.4613 B(  5-N ,  6-C ) :   1.7204 B(  6-C ,  7-C ) :   0.9622
B(  6-C , 19-N ) :   1.1555 B(  6-C , 22-C ) :   0.1162 B(  7-C ,  8-C ) :   0.9067
B(  7-C ,  9-C ) :   0.9164 B(  7-C , 10-N ) :   0.8257 B(  8-C , 28-H ) :   0.9336
B(  8-C , 29-H ) :   0.9736 B(  8-C , 30-H ) :   0.9550 B(  9-C , 31-H ) :   0.9579
B(  9-C , 32-H ) :   0.9669 B(  9-C , 33-H ) :   0.9631 B( 10-N , 11-C ) :   1.2154
B( 10-N , 34-H ) :   0.8797 B( 11-C , 12-O ) :   1.7452 B( 11-C , 13-C ) :   0.8747
B( 11-C , 15-N ) :   0.1001 B( 13-C , 14-N ) :   1.7116 B( 13-C , 16-C ) :   0.1210
B( 13-C , 18-O ) :   1.0870 B( 14-N , 15-N ) :   1.2647 B( 15-N , 16-C ) :   1.6099
B( 16-C , 17-C ) :   0.8294 B( 16-C , 18-O ) :   1.0632 B( 17-C , 35-H ) :   0.9881
B( 17-C , 36-H ) :   0.9408 B( 17-C , 37-H ) :   0.9410 B( 19-N , 20-C ) :   1.0517
B( 19-N , 38-H ) :   0.8331 B( 20-C , 21-O ) :   1.9585 B( 20-C , 22-C ) :   0.9652
B( 22-C , 23-O ) :   1.1426 B( 23-O , 24-C ) :   0.8298 B( 24-C , 40-H ) :   0.9397
B( 24-C , 41-H ) :   0.9399 B( 24-C , 42-H ) :   0.9513

Dispersion correction           -0.018584077
FINAL SINGLE POINT ENERGY     -1269.058953503410

DIPOLE MOMENT
-------------
                                X             Y             Z
Electronic contribution:     -0.39997      -4.99469      -8.43379
Nuclear contribution   :     -5.04776       9.89040      10.97079
                        -----------------------------------------
Total Dipole Moment    :     -5.44772       4.89571       2.53700
                        -----------------------------------------
Magnitude (a.u.)       :      7.75126
Magnitude (Debye)      :     19.70213

Rotational constants in cm-1:     0.012582     0.003635     0.003228
Rotational constants in MHz :   377.184561   108.964405    96.766264

                             ****ORCA TERMINATED NORMALLY****
TOTAL RUN TIME: 0 days 0 hours 2 minutes 18 seconds 203 msec
