   * xtb version 6.5.1 (579679a) compiled by 'ehlert@majestix' on 2022-07-11
          program call               : /lustre/hpc/kemi/ree/PhD/git/ReactivityQM/dep/xtb-6.5.1/bin/xtb --gfn 1 /lustre/hpc/kemi/ree/PhD/git/ReactivityQM/calculations/R02/reac01prodN04/conf04/R02_reac01prodN04_conf04_gfn1.xyz --opt --vfukui --chrg 1 --uhf 0 --alpb DMSO

   ID    Z sym.   atoms
    1    6 C      1, 3, 5, 7-10, 12, 14, 17, 18, 21, 23, 25
    2    8 O      2, 4, 13, 19, 22, 24
    3    7 N      6, 11, 15, 16, 20
    4    1 H      26-43

      * Solvation model:               ALPB
        Solvent                        DMSO
        Solvent mass                       7.8130E+01 g/mol
          :  Hamiltonian                  GFN1-xTB          :
 * total energy  :   -83.1149303 Eh     change       -0.8512302E-11 Eh
 * total energy  :   -83.1314465 Eh     change       -0.1651622E-01 Eh
 * total energy  :   -83.1395255 Eh     change       -0.8078922E-02 Eh
 * total energy  :   -83.1423387 Eh     change       -0.2813210E-02 Eh
 * total energy  :   -83.1455387 Eh     change       -0.3199999E-02 Eh
 * total energy  :   -83.1477749 Eh     change       -0.2236187E-02 Eh
 * total energy  :   -83.1502789 Eh     change       -0.2504025E-02 Eh
 * total energy  :   -83.1544820 Eh     change       -0.4203088E-02 Eh
 * total energy  :   -83.1576704 Eh     change       -0.3188437E-02 Eh
 * total energy  :   -83.1559745 Eh     change        0.1695884E-02 Eh
 * total energy  :   -83.1692367 Eh     change       -0.1448037E-04 Eh
 * total energy  :   -83.1692570 Eh     change       -0.2027721E-04 Eh
 * total energy  :   -83.1692822 Eh     change       -0.2527723E-04 Eh
 * total energy  :   -83.1692981 Eh     change       -0.1583909E-04 Eh
 * total energy  :   -83.1693158 Eh     change       -0.1768817E-04 Eh
 * total energy  :   -83.1693262 Eh     change       -0.1044421E-04 Eh
 * total energy  :   -83.1693361 Eh     change       -0.9936949E-05 Eh
 * total energy  :   -83.1693441 Eh     change       -0.7923708E-05 Eh
 * total energy  :   -83.1693486 Eh     change       -0.4555769E-05 Eh
   *** GEOMETRY OPTIMIZATION CONVERGED AFTER 38 ITERATIONS ***

 final structure:
================
43
 xtb: 6.5.1 (579679a)
C           -4.27042444376597        3.01956137314105        1.78055048225792
O           -3.30175325884024        2.05223214600423        1.33287462389224
C           -3.57140683760664        1.29015717144118        0.33947984696938
O           -4.72170109385537        1.42354537673392       -0.23192656437455
C           -2.57269965886248        0.33054113474792       -0.07216113798458
N           -1.41410299181009        0.36184387845191        0.66261560191110
C           -0.46665307514264       -0.46834370304958        0.37442135651790
C            0.80091284729940       -0.47211796135471        1.21165614433144
C            0.87523780949197       -1.77672002549744        2.01861161780577
C            0.79334158727927        0.73241553064814        2.15406347385737
N            1.98002718178291       -0.33139926606338        0.34894687379792
C            2.48567586350092       -1.28030814480208       -0.46297105693297
O            1.96059821570975       -2.36140286607757       -0.70214070049025
C            3.76571270419403       -0.88154006770579       -1.08488963032002
N            4.49006281740744       -1.55863865708858       -1.92028844169380
N            5.57369983413807       -0.79069119314849       -2.21353953643292
C            5.44689962155366        0.31059585749949       -1.53932297386012
C            6.36335707976645        1.47049308879466       -1.51175541882582
O            4.32305406158707        0.31665809616730       -0.80400048622796
N           -0.58909850974326       -1.37859479873723       -0.62574120138353
C           -1.67829982397676       -1.50712515570723       -1.45032460676619
O           -1.70436669834568       -2.33189394966015       -2.34301867809260
C           -2.76052603479170       -0.55829395884364       -1.11997663203189
O           -3.90632077541452       -0.52776048212419       -1.78841697327105
C           -4.19724020359485       -1.41377300047360       -2.88939005435034
H           -4.51048885823169        3.69754495548681        0.96115795863300
H           -3.80162667911876        3.55123398743473        2.60517857869139
H           -5.17200683053566        2.50142394289022        2.10947956178633
H            0.84061042936794       -2.64555763410178        1.36498000411207
H            1.80293094678157       -1.79528796462731        2.58785154336659
H            0.03221885240020       -1.81912781269257        2.70620097762745
H            0.72392207180028        1.65694928667130        1.58361432812455
H            1.70556121291091        0.74276901761405        2.74748559375613
H           -0.06491568132206        0.67053789570958        2.82070945183162
H            2.50219575097368        0.52488717474933        0.45049746046045
H            7.21237882215486        1.28477017527436       -2.16592150003822
H            6.71367745928174        1.64075437750473       -0.49358875237131
H            5.83600530094045        2.36671727888646       -1.83894282150626
H            0.20327383110316       -2.01046524193869       -0.80482761817924
H           -4.87466805972865        0.81735130542873       -0.99020146910676
H           -4.16873576589524       -2.45136655008847       -2.55495926365294
H           -3.48266895562944       -1.25537709357423       -3.69793357223788
H           -5.20164906520716       -1.14719952392995       -3.21247938960091

          :  Hamiltonian                  GFN1-xTB          :
         :: total energy             -83.169348618857 Eh    ::
         :: gradient norm              0.000711590413 Eh/a0 ::
         :: HOMO-LUMO gap              2.020446758736 eV    ::
         :: SCC energy               -83.960229503707 Eh    ::
         :: -> Gsolv                  -0.107633081256 Eh    ::
         :: repulsion energy           0.816679614688 Eh    ::

    * Orbital Energies and Occupations

         #    Occupation            Energy/Eh            Energy/eV
      -------------------------------------------------------------
         1        2.0000           -0.9114672             -24.8023
       ...           ...                  ...                  ...
        55        2.0000           -0.5288080             -14.3896
        56        2.0000           -0.5213176             -14.1858
        57        2.0000           -0.5145498             -14.0016
        58        2.0000           -0.5119669             -13.9313
        59        2.0000           -0.5112753             -13.9125
        60        2.0000           -0.4891728             -13.3111
        61        2.0000           -0.4857835             -13.2188
        62        2.0000           -0.4816936             -13.1076
        63        2.0000           -0.4754148             -12.9367
        64        2.0000           -0.4696499             -12.7798
        65        2.0000           -0.4604929             -12.5306
        66        2.0000           -0.4586832             -12.4814
        67        2.0000           -0.4575857             -12.4515 (HOMO)
        68                         -0.3833357             -10.4311 (LUMO)
        69                         -0.3222838              -8.7698
        70                         -0.3141569              -8.5486
        71                         -0.2887341              -7.8569
        72                         -0.2620725              -7.1314
        73                         -0.2091333              -5.6908
        74                         -0.1987215              -5.4075
        75                         -0.1655976              -4.5061
        76                         -0.1476772              -4.0185
        77                         -0.1444210              -3.9299
        78                         -0.1368777              -3.7246
       ...                                ...                  ...
       136                          0.7067055              19.2304
      -------------------------------------------------------------
                  HL-Gap            0.0742501 Eh            2.0204 eV

Wiberg/Mayer (AO) data.
largest (>0.10) Wiberg bond orders for each atom

     #   Z sym  total        # sym  WBO       # sym  WBO       # sym  WBO
 ---------------------------------------------------------------------------
     1   6 C    3.821 --    27 H    0.982    26 H    0.972    28 H    0.972
                             2 O    0.852
     2   8 O    2.318 --     3 C    1.285     1 C    0.852
     3   6 C    3.812 --     2 O    1.285     4 O    1.249     5 C    1.122
     4   8 O    2.194 --     3 C    1.249    40 H    0.745
     5   6 C    3.958 --    23 C    1.411     6 N    1.167     3 C    1.122
     6   7 N    3.021 --     7 C    1.575     5 C    1.167
     7   6 C    3.923 --     6 N    1.575    20 N    1.195     8 C    0.972
     8   6 C    3.934 --    10 C    1.000     9 C    0.976     7 C    0.972
                            11 N    0.922
     9   6 C    3.984 --    31 H    0.984    30 H    0.982    29 H    0.979
                             8 C    0.976
    10   6 C    3.988 --     8 C    1.000    33 H    0.984    32 H    0.983
                            34 H    0.982
    11   7 N    3.349 --    12 C    1.268     8 C    0.922    35 H    0.887
                            13 O    0.171
    12   6 C    3.913 --    13 O    1.550    11 N    1.268    14 C    1.004
    13   8 O    1.923 --    12 C    1.550    11 N    0.171
    14   6 C    3.876 --    15 N    1.616    19 O    1.046    12 C    1.004
    15   7 N    3.004 --    14 C    1.616    16 N    1.205
    16   7 N    2.983 --    17 C    1.604    15 N    1.205
    17   6 C    3.866 --    16 N    1.604    19 O    1.073    18 C    1.033
    18   6 C    3.985 --    17 C    1.033    36 H    0.982    38 H    0.962
                            37 H    0.962
    19   8 O    2.317 --    17 C    1.073    14 C    1.046
    20   7 N    3.485 --     7 C    1.195    21 C    1.152    39 H    0.819
                            22 O    0.142
    21   6 C    3.916 --    22 O    1.608    20 N    1.152    23 C    1.034
    22   8 O    1.936 --    21 C    1.608    20 N    0.142
    23   6 C    3.903 --     5 C    1.411    24 O    1.139    21 C    1.034
    24   8 O    2.252 --    23 C    1.139    25 C    0.855
    25   6 C    3.829 --    43 H    0.983    41 H    0.974    42 H    0.974
                            24 O    0.855
    26   1 H    0.997 --     1 C    0.972
    27   1 H    1.002 --     1 C    0.982
    28   1 H    0.997 --     1 C    0.972
    29   1 H    1.006 --     9 C    0.979
    30   1 H    0.997 --     9 C    0.982
    31   1 H    0.999 --     9 C    0.984
    32   1 H    1.001 --    10 C    0.983
    33   1 H    0.997 --    10 C    0.984
    34   1 H    1.006 --    10 C    0.982
    35   1 H    0.932 --    11 N    0.887
    36   1 H    0.998 --    18 C    0.982
    37   1 H    0.996 --    18 C    0.962
    38   1 H    0.996 --    18 C    0.962
    39   1 H    0.917 --    20 N    0.819
    40   1 H    0.807 --     4 O    0.745
    41   1 H    1.008 --    25 C    0.974
    42   1 H    1.008 --    25 C    0.974
    43   1 H    1.005 --    25 C    0.983
 ---------------------------------------------------------------------------

           -------------------------------------------------
          | TOTAL ENERGY              -83.169348618857 Eh   |
          | GRADIENT NORM               0.000711590413 Eh/α |
          | HOMO-LUMO GAP               2.020446758736 eV   |
           -------------------------------------------------

 * finished run on 2023/06/20 at 15:22:40.109
