                         Program Version 5.0.1 -  RELEASE  -
|  1> # ORCA input file
|  2> ! SP r2SCAN-3c CPCM
|  3>
|  4> %maxcore 1875.0
|  5> %pal nprocs 4 end
|  6> %cpcm smd true SMDsolvent "DMSO" end
|  7>
|  8> *xyz 1 1
|  9> C      -3.137641   -1.647580   -0.474596
| 10> O      -1.699994   -1.592927   -0.579647
| 11> C      -1.066610   -0.559165   -0.160144
| 12> O      -1.743264    0.406987    0.343353
| 13> C      -1.189815    1.632450    0.860547
| 14> C       0.362252   -0.594587   -0.301197
| 15> N       1.070270   -1.577609   -0.805239
| 16> N       2.348198   -1.208090   -0.748850
| 17> C       2.385008   -0.009510   -0.212675
| 18> C       3.570216    0.823563    0.048577
| 19> O       1.160864    0.422438    0.088161
| 20> H      -3.570450   -0.838503   -1.062798
| 21> H      -3.425127   -1.542094    0.571332
| 22> H      -3.425039   -2.619502   -0.868080
| 23> H      -0.653645    2.155085    0.069321
| 24> H      -0.519044    1.410127    1.689592
| 25> H      -2.046660    2.211670    1.198514
| 26> H       4.474589    0.268204   -0.188585
| 27> H       3.582939    1.132307    1.093685
| 28> H       3.522951    1.726736   -0.561270
| 29> **                         ****END OF INPUT****

CARTESIAN COORDINATES (ANGSTROEM)
---------------------------------
  C     -3.137641   -1.647580   -0.474596
  O     -1.699994   -1.592927   -0.579647
  C     -1.066610   -0.559165   -0.160144
  O     -1.743264    0.406987    0.343353
  C     -1.189815    1.632450    0.860547
  C      0.362252   -0.594587   -0.301197
  N      1.070270   -1.577609   -0.805239
  N      2.348198   -1.208090   -0.748850
  C      2.385008   -0.009510   -0.212675
  C      3.570216    0.823563    0.048577
  O      1.160864    0.422438    0.088161
  H     -3.570450   -0.838503   -1.062798
  H     -3.425127   -1.542094    0.571332
  H     -3.425039   -2.619502   -0.868080
  H     -0.653645    2.155085    0.069321
  H     -0.519044    1.410127    1.689592
  H     -2.046660    2.211670    1.198514
  H      4.474589    0.268204   -0.188585
  H      3.582939    1.132307    1.093685
  H      3.522951    1.726736   -0.561270

 Total Charge           Charge          ....    1
 Multiplicity           Mult            ....    1
 Number of Electrons    NEL             ....   82
 Basis Dimension        Dim             ....  279

ORBITAL ENERGIES
----------------

  NO   OCC          E(Eh)            E(eV)
   0   2.0000     -19.099721      -519.7298
   1   2.0000     -19.087799      -519.4054
   2   2.0000     -19.081535      -519.2350
   3   2.0000     -14.246219      -387.6593
   4   2.0000     -14.227686      -387.1550
   5   2.0000     -10.266561      -279.3673
   6   2.0000     -10.186441      -277.1871
   7   2.0000     -10.180601      -277.0282
   8   2.0000     -10.115868      -275.2667
   9   2.0000     -10.111239      -275.1408
  10   2.0000     -10.057529      -273.6793
  11   2.0000      -1.194769       -32.5113
  12   2.0000      -1.177098       -32.0305
  13   2.0000      -1.103293       -30.0221
  14   2.0000      -1.015493       -27.6330
  15   2.0000      -0.869266       -23.6539
  16   2.0000      -0.789336       -21.4789
  17   2.0000      -0.747838       -20.3497
  18   2.0000      -0.724672       -19.7193
  19   2.0000      -0.701709       -19.0945
  20   2.0000      -0.633213       -17.2306
  21   2.0000      -0.609800       -16.5935
  22   2.0000      -0.573373       -15.6023
  23   2.0000      -0.558848       -15.2070
  24   2.0000      -0.544279       -14.8106
  25   2.0000      -0.510864       -13.9013
  26   2.0000      -0.493118       -13.4184
  27   2.0000      -0.462701       -12.5907
  28   2.0000      -0.459544       -12.5048
  29   2.0000      -0.446847       -12.1593
  30   2.0000      -0.427987       -11.6461
  31   2.0000      -0.408435       -11.1141
  32   2.0000      -0.395364       -10.7584
  33   2.0000      -0.389838       -10.6080
  34   2.0000      -0.376624       -10.2485
  35   2.0000      -0.376311       -10.2399
  36   2.0000      -0.362282        -9.8582
  37   2.0000      -0.346167        -9.4197
  38   2.0000      -0.339103        -9.2275
  39   2.0000      -0.293470        -7.9857
  40   2.0000      -0.287523        -7.8239
  41   0.0000      -0.158208        -4.3051
  42   0.0000      -0.051005        -1.3879
  43   0.0000      -0.001997        -0.0543
  44   0.0000       0.015174         0.4129
  45   0.0000       0.025308         0.6887

MULLIKEN ATOMIC CHARGES
-----------------------
   0 C :   -0.286365
   1 O :   -0.137999
   2 C :    0.155430
   3 O :   -0.140356
   4 C :   -0.300663
   5 C :    0.340715
   6 N :   -0.089651
   7 N :   -0.230005
   8 C :    0.430448
   9 C :   -0.624296
  10 O :   -0.005667
  11 H :    0.207144
  12 H :    0.205437
  13 H :    0.207456
  14 H :    0.206887
  15 H :    0.207223
  16 H :    0.209196
  17 H :    0.215118
  18 H :    0.212590
  19 H :    0.217357
Sum of atomic charges:    1.0000000

LOEWDIN ATOMIC CHARGES
----------------------
   0 C :    0.011357
   1 O :   -0.468407
   2 C :    0.515339
   3 O :   -0.483555
   4 C :    0.020062
   5 C :    0.410928
   6 N :   -0.274955
   7 N :   -0.303909
   8 C :    0.420966
   9 C :   -0.304944
  10 O :   -0.370524
  11 H :    0.202425
  12 H :    0.202177
  13 H :    0.205491
  14 H :    0.204073
  15 H :    0.203940
  16 H :    0.206714
  17 H :    0.198184
  18 H :    0.201015
  19 H :    0.203622

  Mayer bond orders larger than 0.100000
B(  0-C ,  1-O ) :   0.7941 B(  0-C , 11-H ) :   0.9352 B(  0-C , 12-H ) :   0.9361
B(  0-C , 13-H ) :   0.9465 B(  1-O ,  2-C ) :   1.3415 B(  2-C ,  3-O ) :   1.3629
B(  2-C ,  5-C ) :   1.0087 B(  3-O ,  4-C ) :   0.8106 B(  4-C , 14-H ) :   0.9296
B(  4-C , 15-H ) :   0.9298 B(  4-C , 16-H ) :   0.9447 B(  5-C ,  6-N ) :   1.5428
B(  5-C ,  8-C ) :   0.1061 B(  5-C , 10-O ) :   1.1102 B(  6-N ,  7-N ) :   1.3009
B(  7-N ,  8-C ) :   1.4806 B(  8-C ,  9-C ) :   0.8571 B(  8-C , 10-O ) :   1.0978
B(  9-C , 17-H ) :   0.9768 B(  9-C , 18-H ) :   0.9354 B(  9-C , 19-H ) :   0.9244

Dispersion correction           -0.005909182
FINAL SINGLE POINT ENERGY      -568.894302313173

DIPOLE MOMENT
-------------
                                X             Y             Z
Electronic contribution:      1.24118      -4.15746      -1.98811
Nuclear contribution   :     -3.04937       6.42458       3.16608
                        -----------------------------------------
Total Dipole Moment    :     -1.80819       2.26712       1.17797
                        -----------------------------------------
Magnitude (a.u.)       :      3.13002
Magnitude (Debye)      :      7.95588

Rotational constants in cm-1:     0.077012     0.024603     0.018846
Rotational constants in MHz :  2308.775217   737.584827   564.979320

                             ****ORCA TERMINATED NORMALLY****
TOTAL RUN TIME: 0 days 0 hours 0 minutes 33 seconds 87 msec
