   * xtb version 6.5.1 (579679a) compiled by 'ehlert@majestix' on 2022-07-11
          program call               : /lustre/hpc/kemi/ree/PhD/git/ReactivityQM/dep/xtb-6.5.1/bin/xtb --gfn 1 /lustre/hpc/kemi/ree/PhD/git/ReactivityQM/calculations/R01/reac01prodN02/conf10/R01_reac01prodN02_conf10_gfn1.xyz --opt --vfukui --chrg 1 --uhf 0 --alpb DMSO

   ID    Z sym.   atoms
    1    6 C      1, 3, 5, 6, 9, 10
    2    8 O      2, 4, 11
    3    7 N      7, 8
    4    1 H      12-20

      * Solvation model:               ALPB
        Solvent                        DMSO
        Solvent mass                       7.8130E+01 g/mol
          :  Hamiltonian                  GFN1-xTB          :
 * total energy  :   -37.5994682 Eh     change       -0.3410605E-12 Eh
 * total energy  :   -37.6181256 Eh     change       -0.1865737E-01 Eh
 * total energy  :   -37.6236415 Eh     change       -0.5515907E-02 Eh
 * total energy  :   -37.6248032 Eh     change       -0.1161682E-02 Eh
 * total energy  :   -37.6251687 Eh     change       -0.3654624E-03 Eh
 * total energy  :   -37.6252138 Eh     change       -0.4513286E-04 Eh
 * total energy  :   -37.6252266 Eh     change       -0.1285299E-04 Eh
 * total energy  :   -37.6252316 Eh     change       -0.4950836E-05 Eh
 * total energy  :   -37.6252361 Eh     change       -0.4497801E-05 Eh
 * total energy  :   -37.6252516 Eh     change       -0.1554312E-04 Eh
 * total energy  :   -37.6252997 Eh     change       -0.2505068E-04 Eh
 * total energy  :   -37.6253083 Eh     change       -0.8533985E-05 Eh
 * total energy  :   -37.6253111 Eh     change       -0.2798251E-05 Eh
 * total energy  :   -37.6253274 Eh     change       -0.1636943E-04 Eh
 * total energy  :   -37.6253325 Eh     change       -0.5011327E-05 Eh
 * total energy  :   -37.6253419 Eh     change       -0.9405077E-05 Eh
 * total energy  :   -37.6253493 Eh     change       -0.7432365E-05 Eh
 * total energy  :   -37.6253552 Eh     change       -0.5885631E-05 Eh
 * total energy  :   -37.6253571 Eh     change       -0.1960234E-05 Eh
   *** GEOMETRY OPTIMIZATION CONVERGED AFTER 22 ITERATIONS ***

 final structure:
================
20
 xtb: 6.5.1 (579679a)
C           -3.13764144154745       -1.64758027132245       -0.47459572721941
O           -1.69999398783673       -1.59292710591882       -0.57964673297145
C           -1.06660959873506       -0.55916532930556       -0.16014398615789
O           -1.74326390067312        0.40698724866680        0.34335336544342
C           -1.18981498146442        1.63244962775053        0.86054701567872
C            0.36225214124186       -0.59458678300136       -0.30119723660821
N            1.07026950646359       -1.57760948466145       -0.80523930652789
N            2.34819842753411       -1.20808951674016       -0.74885017858452
C            2.38500825520673       -0.00950963636723       -0.21267457689379
C            3.57021574771476        0.82356285373097        0.04857688178316
O            1.16086439413755        0.42243751036753        0.08816066984060
H           -3.57044982077149       -0.83850260426074       -1.06279824765823
H           -3.42512667040245       -1.54209366892821        0.57133235396896
H           -3.42503900413062       -2.61950241579521       -0.86807982657254
H           -0.65364493735502        2.15508531771068        0.06932077896410
H           -0.51904356624395        1.41012742545068        1.68959242781154
H           -2.04666009353626        2.21166989744391        1.19851396367549
H            4.47458937072683        0.26820397853588       -0.18858513217049
H            3.58293931345005        1.13230677688985        1.09368542684805
H            3.52295084622061        1.72673617975344       -0.56126993264839

          :  Hamiltonian                  GFN1-xTB          :
         :: total energy             -37.625357138101 Eh    ::
         :: gradient norm              0.000490151815 Eh/a0 ::
         :: HOMO-LUMO gap              2.792295522323 eV    ::
         :: SCC energy               -37.965369333945 Eh    ::
         :: -> Gsolv                  -0.082304718357 Eh    ::
         :: repulsion energy           0.348159165260 Eh    ::

    * Orbital Energies and Occupations

         #    Occupation            Energy/Eh            Energy/eV
      -------------------------------------------------------------
         1        2.0000           -0.9255382             -25.1852
       ...           ...                  ...                  ...
        18        2.0000           -0.6316562             -17.1882
        19        2.0000           -0.6121871             -16.6585
        20        2.0000           -0.5780253             -15.7289
        21        2.0000           -0.5743453             -15.6287
        22        2.0000           -0.5683151             -15.4646
        23        2.0000           -0.5609570             -15.2644
        24        2.0000           -0.5568062             -15.1515
        25        2.0000           -0.5526809             -15.0392
        26        2.0000           -0.5474249             -14.8962
        27        2.0000           -0.5438131             -14.7979
        28        2.0000           -0.5267786             -14.3344
        29        2.0000           -0.5001861             -13.6108
        30        2.0000           -0.4968785             -13.5208 (HOMO)
        31                         -0.3942636             -10.7285 (LUMO)
        32                         -0.2997119              -8.1556
        33                         -0.2673439              -7.2748
        34                         -0.1719969              -4.6803
        35                         -0.1630698              -4.4374
        36                         -0.1592597              -4.3337
        37                         -0.1049562              -2.8560
        38                         -0.1034517              -2.8151
        39                         -0.1008803              -2.7451
        40                         -0.0970007              -2.6395
        41                         -0.0904203              -2.4605
       ...                                ...                  ...
        62                          0.5336868              14.5224
      -------------------------------------------------------------
                  HL-Gap            0.1026150 Eh            2.7923 eV

Wiberg/Mayer (AO) data.
largest (>0.10) Wiberg bond orders for each atom

     #   Z sym  total        # sym  WBO       # sym  WBO       # sym  WBO
 ---------------------------------------------------------------------------
     1   6 C    3.808 --    14 H    0.981    13 H    0.971    12 H    0.970
                             2 O    0.844
     2   8 O    2.313 --     3 C    1.272     1 C    0.844
     3   6 C    3.841 --     2 O    1.272     4 O    1.270     6 C    1.107
     4   8 O    2.322 --     3 C    1.270     5 C    0.840
     5   6 C    3.802 --    17 H    0.978    15 H    0.970    16 H    0.970
                             4 O    0.840
     6   6 C    3.886 --     7 N    1.507     3 C    1.107    11 O    1.042
     7   7 N    3.022 --     6 C    1.507     8 N    1.307
     8   7 N    2.994 --     9 C    1.498     7 N    1.307
     9   6 C    3.843 --     8 N    1.498    11 O    1.107    10 C    1.045
    10   6 C    3.974 --     9 C    1.045    18 H    0.978    19 H    0.953
                            20 H    0.946
    11   8 O    2.347 --     9 C    1.107     6 C    1.042
    12   1 H    0.994 --     1 C    0.970
    13   1 H    0.994 --     1 C    0.971
    14   1 H    1.000 --     1 C    0.981
    15   1 H    0.999 --     5 C    0.970
    16   1 H    0.999 --     5 C    0.970
    17   1 H    0.998 --     5 C    0.978
    18   1 H    0.993 --    10 C    0.978
    19   1 H    0.989 --    10 C    0.953
    20   1 H    0.989 --    10 C    0.946
 ---------------------------------------------------------------------------

           -------------------------------------------------
          | TOTAL ENERGY              -37.625357138101 Eh   |
          | GRADIENT NORM               0.000490151815 Eh/α |
          | HOMO-LUMO GAP               2.792295522323 eV   |
           -------------------------------------------------

 * finished run on 2023/06/20 at 14:54:58.822
