   * xtb version 6.5.1 (579679a) compiled by 'ehlert@majestix' on 2022-07-11
          program call               : /lustre/hpc/kemi/ree/PhD/git/ReactivityQM/dep/xtb-6.5.1/bin/xtb --gfn 1 /lustre/hpc/kemi/ree/PhD/git/ReactivityQM/calculations/R02methylcation/reac01prodE01/conf04/R02methylcation_reac01prodE01_conf04_gfn1.xyz --opt --vfukui --chrg -2 --uhf 0 --alpb DMSO

   ID    Z sym.   atoms
    1    6 C      1, 3, 5, 7-10, 12, 13, 15, 18, 19, 22, 24
    2    8 O      2, 4, 14, 20, 23, 25
    3    7 N      6, 11, 16, 17, 21
    4    1 H      26-42

      * Solvation model:               ALPB
        Solvent                        DMSO
        Solvent mass                       7.8130E+01 g/mol
          :  Hamiltonian                  GFN1-xTB          :
 * total energy  :   -83.6321553 Eh     change       -0.2205525E-10 Eh
 * total energy  :   -83.6436911 Eh     change       -0.1153589E-01 Eh
 * total energy  :   -83.6475298 Eh     change       -0.3838646E-02 Eh
 * total energy  :   -83.6485691 Eh     change       -0.1039267E-02 Eh
 * total energy  :   -83.6492353 Eh     change       -0.6662905E-03 Eh
 * total energy  :   -83.6496072 Eh     change       -0.3718872E-03 Eh
 * total energy  :   -83.6498253 Eh     change       -0.2180273E-03 Eh
 * total energy  :   -83.6499330 Eh     change       -0.1077868E-03 Eh
 * total energy  :   -83.6499952 Eh     change       -0.6211934E-04 Eh
 * total energy  :   -83.6500491 Eh     change       -0.5390401E-04 Eh
 * total energy  :   -83.6514775 Eh     change       -0.7884560E-05 Eh
 * total energy  :   -83.6514902 Eh     change       -0.1268477E-04 Eh
 * total energy  :   -83.6515012 Eh     change       -0.1100188E-04 Eh
 * total energy  :   -83.6515154 Eh     change       -0.1419997E-04 Eh
 * total energy  :   -83.6513792 Eh     change        0.1362362E-03 Eh
 * total energy  :   -83.6515192 Eh     change       -0.1399914E-03 Eh
 * total energy  :   -83.6515291 Eh     change       -0.9984600E-05 Eh
 * total energy  :   -83.6515349 Eh     change       -0.5790670E-05 Eh
 * total energy  :   -83.6515372 Eh     change       -0.2246450E-05 Eh
   *** GEOMETRY OPTIMIZATION CONVERGED AFTER 60 ITERATIONS ***

 final structure:
================
42
 xtb: 6.5.1 (579679a)
C           -6.11850737854733       -1.62884664282949       -0.11447039562049
O           -4.86562154324912       -0.96634179103343       -0.14574989779086
C           -4.83207342184248        0.20009885945596       -0.87166934958558
O           -5.84266867999400        0.58963636536302       -1.44188728681252
C           -3.52978592097393        0.83480896243001       -0.84897901283087
N           -2.55714568124471        0.16645505599464       -0.12105148304776
C           -1.37006396705519        0.64488745320329       -0.03473897270663
C           -0.29255127051667       -0.04171624039243        0.79748669865165
C           -0.52439649016597       -1.56218314943967        0.73256155182320
C           -0.45320836316934        0.47234850304067        2.23777859595770
N            0.99477255000825        0.36088652649804        0.22469157033054
C            2.26722427031289       -0.06011892741689        0.99740832221908
C            2.90179108588243        1.28463060631425        1.48827238849426
O            2.12324087262862       -0.96402721956135        1.92214965545381
C            3.19178410901256       -0.58214683201797       -0.15401069971217
N            2.83358259499321       -1.25473467543290       -1.20306573884484
N            3.99064709798797       -1.63248705526798       -1.85740166581359
C            4.96794222504609       -1.16846034124960       -1.15518277643599
C            6.41949242056080       -1.29384758999954       -1.43341160169536
O            4.53992367030886       -0.49747561929616       -0.06704551977267
N           -1.02536477981752        1.83492504967245       -0.63750259415388
C           -1.87422879006776        2.59486270463053       -1.38719858945385
O           -1.47728285665617        3.64443811202745       -1.89951703532254
C           -3.28149106550798        2.05908825340663       -1.52413410875201
O           -4.10738972712306        2.70672416017042       -2.19958982308298
H           -6.43166219334592       -1.92310000703238       -1.12192224943932
H           -6.89120454737888       -0.98390541233731        0.31746189223961
H           -5.99731851701526       -2.51734398914707        0.50431346731462
H            0.16550234693973       -2.08315177764748        1.39417688999864
H           -1.54851197474204       -1.78825310126434        1.03252077983664
H           -0.37251880122931       -1.91874384144625       -0.28698514874342
H            0.25026537120937       -0.02214203655603        2.90627530317496
H           -0.27841423571138        1.54791588691380        2.27088977822455
H           -1.46790126817049        0.27234591267702        2.58406425601885
H            1.05557816388774       -0.06753765247297       -0.70041139243876
H            3.87836391214785        1.07673174364078        1.92242327355938
H            3.00971974110074        1.98605750693885        0.66295971368473
H            2.26071158920162        1.72021389421541        2.25237928907347
H            6.85159170104797       -0.31311233970612       -1.63134550981652
H            6.57000238434666       -1.93179117676242       -2.30081914214153
H            6.93417536974287       -1.72152034956231       -0.57398610715542
H           -0.06699700283503        2.14789621127675       -0.53573832488504

          :  Hamiltonian                  GFN1-xTB          :
         :: total energy             -83.651537180666 Eh    ::
         :: gradient norm              0.000304384746 Eh/a0 ::
         :: HOMO-LUMO gap              2.217410824725 eV    ::
         :: SCC energy               -84.385511648402 Eh    ::
         :: -> Gsolv                  -0.263950377149 Eh    ::
         :: repulsion energy           0.760061978528 Eh    ::

    * Orbital Energies and Occupations

         #    Occupation            Energy/Eh            Energy/eV
      -------------------------------------------------------------
         1        2.0000           -0.8172670             -22.2390
       ...           ...                  ...                  ...
        56        2.0000           -0.4408206             -11.9953
        57        2.0000           -0.4395173             -11.9599
        58        2.0000           -0.4347801             -11.8310
        59        2.0000           -0.4272109             -11.6250
        60        2.0000           -0.4226670             -11.5014
        61        2.0000           -0.4124699             -11.2239
        62        2.0000           -0.4083220             -11.1110
        63        2.0000           -0.3986575             -10.8480
        64        2.0000           -0.3718647             -10.1190
        65        2.0000           -0.3635638              -9.8931
        66        2.0000           -0.3511317              -9.5548
        67        2.0000           -0.3424952              -9.3198
        68        2.0000           -0.3400154              -9.2523 (HOMO)
        69                         -0.2585271              -7.0349 (LUMO)
        70                         -0.2243329              -6.1044
        71                         -0.2185567              -5.9472
        72                         -0.2085328              -5.6745
        73                         -0.1848311              -5.0295
        74                         -0.1279663              -3.4821
        75                         -0.1188291              -3.2335
        76                         -0.0970296              -2.6403
        77                         -0.0934454              -2.5428
        78                         -0.0839237              -2.2837
        79                         -0.0791638              -2.1542
       ...                                ...                  ...
       134                          0.7694943              20.9390
      -------------------------------------------------------------
                  HL-Gap            0.0814883 Eh            2.2174 eV

Wiberg/Mayer (AO) data.
largest (>0.10) Wiberg bond orders for each atom

     #   Z sym  total        # sym  WBO       # sym  WBO       # sym  WBO
 ---------------------------------------------------------------------------
     1   6 C    3.904 --    28 H    0.987    26 H    0.980    27 H    0.980
                             2 O    0.932
     2   8 O    2.131 --     3 C    1.013     1 C    0.932     4 O    0.105
     3   6 C    3.848 --     4 O    1.580     5 C    1.134     2 O    1.013
     4   8 O    1.858 --     3 C    1.580     2 O    0.105
     5   6 C    3.920 --    24 C    1.274     6 N    1.144     3 C    1.134
                            25 O    0.130
     6   7 N    3.020 --     7 C    1.631     5 C    1.144
     7   6 C    3.923 --     6 N    1.631    21 N    1.101     8 C    0.971
     8   6 C    3.967 --     9 C    0.985    10 C    0.982    11 N    0.979
                             7 C    0.971
     9   6 C    3.995 --    31 H    0.986     8 C    0.985    30 H    0.985
                            29 H    0.979
    10   6 C    3.993 --    34 H    0.988    33 H    0.986     8 C    0.982
                            32 H    0.977
    11   7 N    3.003 --     8 C    0.979    35 H    0.944    12 C    0.846
    12   6 C    3.936 --    14 O    1.212    13 C    0.941    15 C    0.883
                            11 N    0.846
    13   6 C    3.992 --    37 H    0.991    36 H    0.987    38 H    0.985
                            12 C    0.941
    14   8 O    1.563 --    12 C    1.212
    15   6 C    3.804 --    16 N    1.649    20 O    1.048    12 C    0.883
    16   7 N    2.982 --    15 C    1.649    17 N    1.147
    17   7 N    2.976 --    18 C    1.657    16 N    1.147
    18   6 C    3.888 --    17 N    1.657    20 O    1.062    19 C    1.024
    19   6 C    3.993 --    18 C    1.024    40 H    0.985    41 H    0.972
                            39 H    0.969
    20   8 O    2.295 --    18 C    1.062    15 C    1.048
    21   7 N    3.443 --    22 C    1.182     7 C    1.101    42 H    0.888
                            23 O    0.136
    22   6 C    3.884 --    23 O    1.555    21 N    1.182    24 C    0.972
    23   8 O    1.834 --    22 C    1.555    21 N    0.136
    24   6 C    3.944 --    25 O    1.507     5 C    1.274    22 C    0.972
    25   8 O    1.811 --    24 C    1.507     5 C    0.130
    26   1 H    1.015 --     1 C    0.980
    27   1 H    1.016 --     1 C    0.980
    28   1 H    1.017 --     1 C    0.987
    29   1 H    1.035 --     9 C    0.979
    30   1 H    1.021 --     9 C    0.985
    31   1 H    1.011 --     9 C    0.986
    32   1 H    1.030 --    10 C    0.977
    33   1 H    1.011 --    10 C    0.986
    34   1 H    1.011 --    10 C    0.988
    35   1 H    0.995 --    11 N    0.944
    36   1 H    1.017 --    13 C    0.987
    37   1 H    1.016 --    13 C    0.991
    38   1 H    1.018 --    13 C    0.985
    39   1 H    1.002 --    19 C    0.969
    40   1 H    1.003 --    19 C    0.985
    41   1 H    1.002 --    19 C    0.972
    42   1 H    0.973 --    21 N    0.888
 ---------------------------------------------------------------------------

           -------------------------------------------------
          | TOTAL ENERGY              -83.651537180666 Eh   |
          | GRADIENT NORM               0.000304384746 Eh/α |
          | HOMO-LUMO GAP               2.217410824725 eV   |
           -------------------------------------------------

 * finished run on 2023/06/21 at 17:03:57.651
