   * xtb version 6.5.1 (579679a) compiled by 'ehlert@majestix' on 2022-07-11
          program call               : /lustre/hpc/kemi/ree/PhD/git/ReactivityQM/dep/xtb-6.5.1/bin/xtb --gfn 1 /lustre/hpc/kemi/ree/PhD/git/ReactivityQM/calculations/RaltegravirCLI/reac02prodE09/conf09/RaltegravirCLI_reac02prodE09_conf09_gfn1.xyz --opt --vfukui --chrg -1 --uhf 0 --alpb DMSO

   ID    Z sym.   atoms
    1    6 C      1, 3-6, 9, 10, 13-18, 20-22, 24
    2    7 N      2, 7, 8, 12
    3    8 O      11, 23, 25
    4    9 F      19
    5    1 H      26-47

      * Solvation model:               ALPB
        Solvent                        DMSO
        Solvent mass                       7.8130E+01 g/mol
          :  Hamiltonian                  GFN1-xTB          :
 * total energy  :   -80.1882651 Eh     change       -0.1799592E-08 Eh
 * total energy  :   -80.1984637 Eh     change       -0.1019863E-01 Eh
 * total energy  :   -80.2030157 Eh     change       -0.4552056E-02 Eh
 * total energy  :   -80.2047883 Eh     change       -0.1772522E-02 Eh
 * total energy  :   -80.2066487 Eh     change       -0.1860421E-02 Eh
 * total energy  :   -80.2084968 Eh     change       -0.1848133E-02 Eh
 * total energy  :   -80.2111574 Eh     change       -0.2660601E-02 Eh
 * total energy  :   -80.2143715 Eh     change       -0.3214039E-02 Eh
 * total energy  :   -80.2171120 Eh     change       -0.2740494E-02 Eh
 * total energy  :   -80.2192702 Eh     change       -0.2158233E-02 Eh
 * total energy  :   -80.2324360 Eh     change       -0.8321966E-05 Eh
 * total energy  :   -80.2324447 Eh     change       -0.8672015E-05 Eh
 * total energy  :   -80.2324524 Eh     change       -0.7708086E-05 Eh
 * total energy  :   -80.2324578 Eh     change       -0.5396372E-05 Eh
 * total energy  :   -80.2324638 Eh     change       -0.6016308E-05 Eh
 * total energy  :   -80.2324712 Eh     change       -0.7381091E-05 Eh
 * total energy  :   -80.2324800 Eh     change       -0.8867415E-05 Eh
 * total energy  :   -80.2324872 Eh     change       -0.7199461E-05 Eh
 * total energy  :   -80.2324907 Eh     change       -0.3445416E-05 Eh
   *** GEOMETRY OPTIMIZATION CONVERGED AFTER 66 ITERATIONS ***

 final structure:
================
47
 xtb: 6.5.1 (579679a)
C           -4.74832716673743       -1.55928327454394        0.53349450757061
N           -3.42856221297839       -0.95716975939075        0.72811740936659
C           -3.04149718604071        0.22673855603736        0.14779156817544
C           -3.94764357921743        1.00462966504171       -0.79985929319298
C           -3.86046800250827        0.37048336583908       -2.19637951263551
C           -3.46284796699458        2.46249628866598       -0.87529732026012
N           -5.33162112494316        0.96967827229981       -0.33794932039413
N           -1.85936911980720        0.72059379167534        0.33091301761122
C           -0.93063928625866        0.11262127109586        1.12932485895157
C            0.38207475392621        0.84496986727329        1.18574536595266
O            0.54983651686864        1.89117911245104        0.56900135103265
N            1.33909763329121        0.29352016720732        1.95306933553110
C            2.68241607128951        0.87303304221018        2.00150079657153
C            3.51899000578214        0.35359464086041        0.85160515365092
C            4.22990604189589       -0.83681793126686        0.97511645928476
C            4.96403274064477       -1.33186122369367       -0.09288842169859
C            5.00239765387360       -0.65311348147872       -1.31039342755016
C            5.81732601935332       -1.17455907080489       -2.45431023609571
F            8.54917903433012        0.14670902156234       -2.36154750649045
C            4.28464296374904        0.53721024096000       -1.42882533360331
C            3.55017962496063        1.03406465124977       -0.36295789094812
C           -1.26507066258267       -1.05051162175085        1.75866788957745
O           -0.44529725581483       -1.74336594236232        2.57861861551208
C           -2.57773063157952       -1.64053224744187        1.57536146984622
O           -2.89345813447966       -2.69006384178630        2.13657929561851
H           -5.48765495600633       -1.02504008397990        1.12716421748448
H           -5.03170122528195       -1.51559344974302       -0.51328465920042
H           -4.69838314997890       -2.59824391823128        0.85829166622565
H           -4.25751199562190       -0.64283358417268       -2.19331449324257
H           -4.43748824159774        0.96509786146531       -2.90288727345341
H           -2.82231862913064        0.33967572242187       -2.52657239896708
H           -2.45181167995727        2.50921261888493       -1.27943968023667
H           -3.46496582821010        2.90974019286083        0.11771263253276
H           -4.13181242464738        3.02989192154521       -1.51944127004491
H           -5.44358158798894        1.58643429477549        0.45606730144787
H           -5.93825147150962        1.30576765560851       -1.07202545101545
H            1.20340679038262       -0.59463191988916        2.40401012944734
H            2.58497037853501        1.96231604756418        1.94803027581622
H            3.12521403574854        0.59961014619057        2.96230570721499
H            4.20917627129370       -1.38155642454061        1.91239041726605
H            5.50550857207530       -2.26508116089520        0.02292782797217
H            5.93926864688106       -2.25533985668763       -2.38597387685502
H            5.35209838714212       -0.92888288320458       -3.40925607495711
H            6.81874812479757       -0.71303479431292       -2.43353649006325
H            4.29095347565373        1.07943960761670       -2.36946451674571
H            2.98768623337671        1.95473263169214       -0.47436917830133
H           -0.92909845599833       -2.52592318489775        2.90443335631029

          :  Hamiltonian                  GFN1-xTB          :
         :: total energy             -80.232490673781 Eh    ::
         :: gradient norm              0.000744047349 Eh/a0 ::
         :: HOMO-LUMO gap              0.652812733426 eV    ::
         :: SCC energy               -81.126647064721 Eh    ::
         :: -> Gsolv                  -0.161070282984 Eh    ::
         :: repulsion energy           0.923436722186 Eh    ::

    * Orbital Energies and Occupations

         #    Occupation            Energy/Eh            Energy/eV
      -------------------------------------------------------------
         1        2.0000           -0.8240478             -22.4235
       ...           ...                  ...                  ...
        56        2.0000           -0.4627038             -12.5908
        57        2.0000           -0.4593423             -12.4993
        58        2.0000           -0.4494925             -12.2313
        59        2.0000           -0.4437344             -12.0746
        60        2.0000           -0.4328135             -11.7775
        61        2.0000           -0.4276336             -11.6365
        62        2.0000           -0.4239969             -11.5375
        63        2.0000           -0.4181559             -11.3786
        64        2.0000           -0.4120666             -11.2129
        65        2.0000           -0.4092915             -11.1374
        66        2.0000           -0.3325182              -9.0483
        67        2.0000           -0.3325154              -9.0482
        68        2.0000           -0.3319640              -9.0332 (HOMO)
        69        0.0000           -0.3079736              -8.3804 (LUMO)
        70                         -0.2714705              -7.3871
        71                         -0.2457963              -6.6885
        72                         -0.2443426              -6.6489
        73                         -0.2223613              -6.0508
        74                         -0.1452342              -3.9520
        75                         -0.1317481              -3.5850
        76                         -0.1234682              -3.3597
        77                         -0.1232491              -3.3538
        78                         -0.1156996              -3.1483
        79                         -0.1112956              -3.0285
       ...                                ...                  ...
       144                          0.7196981              19.5840
      -------------------------------------------------------------
                  HL-Gap            0.0239904 Eh            0.6528 eV

Wiberg/Mayer (AO) data.
largest (>0.10) Wiberg bond orders for each atom

     #   Z sym  total        # sym  WBO       # sym  WBO       # sym  WBO
 ---------------------------------------------------------------------------
     1   6 C    3.923 --    27 H    0.978    28 H    0.976    26 H    0.976
                             2 N    0.928
     2   7 N    3.514 --     3 C    1.168    24 C    1.139     1 C    0.928
                            25 O    0.132
     3   6 C    3.923 --     8 N    1.569     2 N    1.168     4 C    0.976
     4   6 C    3.966 --     6 C    0.989     7 N    0.984     5 C    0.982
                             3 C    0.976
     5   6 C    3.994 --    31 H    0.985    30 H    0.983     4 C    0.982
                            29 H    0.980
     6   6 C    3.995 --     4 C    0.989    34 H    0.986    33 H    0.985
                            32 H    0.983
     7   7 N    2.977 --     4 C    0.984    35 H    0.941    36 H    0.939
     8   7 N    3.032 --     3 C    1.569     9 C    1.196
     9   6 C    3.963 --    22 C    1.510     8 N    1.196    10 C    0.987
    10   6 C    3.910 --    11 O    1.570    12 N    1.273     9 C    0.987
    11   8 O    1.873 --    10 C    1.570    12 N    0.173
    12   7 N    3.353 --    10 C    1.273    13 C    0.934    37 H    0.890
                            11 O    0.173
    13   6 C    3.945 --    14 C    0.992    39 H    0.978    38 H    0.974
                            12 N    0.934
    14   6 C    3.985 --    15 C    1.416    21 C    1.413    13 C    0.992
                            17 C    0.106
    15   6 C    3.995 --    16 C    1.451    14 C    1.416    40 H    0.973
                            20 C    0.107
    16   6 C    3.995 --    15 C    1.451    17 C    1.405    41 H    0.973
                            21 C    0.107
    17   6 C    3.986 --    16 C    1.405    20 C    1.403    18 C    1.033
                            14 C    0.106
    18   6 C    3.988 --    17 C    1.033    42 H    0.984    43 H    0.983
                            44 H    0.926
    19   9 F    0.102
    20   6 C    3.995 --    21 C    1.454    17 C    1.403    45 H    0.974
                            15 C    0.107
    21   6 C    3.995 --    20 C    1.454    14 C    1.413    46 H    0.971
                            16 C    0.107
    22   6 C    3.916 --     9 C    1.510    24 C    1.093    23 O    1.068
    23   8 O    2.061 --    22 C    1.068    47 H    0.802
    24   6 C    3.917 --    25 O    1.532     2 N    1.139    22 C    1.093
    25   8 O    1.884 --    24 C    1.532     2 N    0.132
    26   1 H    1.020 --     1 C    0.976
    27   1 H    1.021 --     1 C    0.978
    28   1 H    1.010 --     1 C    0.976
    29   1 H    1.005 --     5 C    0.980
    30   1 H    1.000 --     5 C    0.983
    31   1 H    1.004 --     5 C    0.985
    32   1 H    1.015 --     6 C    0.983
    33   1 H    1.007 --     6 C    0.985
    34   1 H    1.004 --     6 C    0.986
    35   1 H    0.957 --     7 N    0.941
    36   1 H    0.954 --     7 N    0.939
    37   1 H    0.948 --    12 N    0.890
    38   1 H    1.011 --    13 C    0.974
    39   1 H    1.005 --    13 C    0.978
    40   1 H    1.002 --    15 C    0.973
    41   1 H    1.003 --    16 C    0.973
    42   1 H    1.006 --    18 C    0.984
    43   1 H    1.006 --    18 C    0.983
    44   1 H    1.038 --    18 C    0.926
    45   1 H    1.003 --    20 C    0.974
    46   1 H    1.012 --    21 C    0.971
    47   1 H    0.848 --    23 O    0.802
 ---------------------------------------------------------------------------

           -------------------------------------------------
          | TOTAL ENERGY              -80.232490673781 Eh   |
          | GRADIENT NORM               0.000744047349 Eh/α |
          | HOMO-LUMO GAP               0.652812733426 eV   |
           -------------------------------------------------

 * finished run on 2023/06/20 at 15:10:02.500
