   * xtb version 6.5.1 (579679a) compiled by 'ehlert@majestix' on 2022-07-11
          program call               : /lustre/hpc/kemi/ree/PhD/git/ReactivityQM/dep/xtb-6.5.1/bin/xtb --gfn 1 /lustre/hpc/kemi/ree/PhD/git/ReactivityQM/calculations/R02deprot/reac01/conf12/R02deprot_reac01_conf12_gfn1.xyz --opt --vfukui --chrg -1 --uhf 0 --alpb DMSO

   ID    Z sym.   atoms
    1    6 C      1, 3, 5, 7-10, 12, 14, 17, 18, 21, 23
    2    8 O      2, 4, 13, 19, 22, 24
    3    7 N      6, 11, 15, 16, 20
    4    1 H      25-38

      * Solvation model:               ALPB
        Solvent                        DMSO
        Solvent mass                       7.8130E+01 g/mol
          :  Hamiltonian                  GFN1-xTB          :
 * total energy  :   -79.5935354 Eh     change       -0.1890044E-11 Eh
 * total energy  :   -79.6053276 Eh     change       -0.1179213E-01 Eh
 * total energy  :   -79.6099337 Eh     change       -0.4606134E-02 Eh
 * total energy  :   -79.6109094 Eh     change       -0.9756985E-03 Eh
 * total energy  :   -79.6113796 Eh     change       -0.4701725E-03 Eh
 * total energy  :   -79.6115185 Eh     change       -0.1389249E-03 Eh
 * total energy  :   -79.6116011 Eh     change       -0.8262291E-04 Eh
 * total energy  :   -79.6116664 Eh     change       -0.6532675E-04 Eh
 * total energy  :   -79.6117235 Eh     change       -0.5702318E-04 Eh
 * total energy  :   -79.6117707 Eh     change       -0.4721636E-04 Eh
 * total energy  :   -79.6124483 Eh     change       -0.9204477E-05 Eh
 * total energy  :   -79.6124640 Eh     change       -0.1573393E-04 Eh
 * total energy  :   -79.6124759 Eh     change       -0.1191120E-04 Eh
 * total energy  :   -79.6124909 Eh     change       -0.1497936E-04 Eh
 * total energy  :   -79.6124945 Eh     change       -0.3579325E-05 Eh
 * total energy  :   -79.6125039 Eh     change       -0.9448489E-05 Eh
 * total energy  :   -79.6125103 Eh     change       -0.6378277E-05 Eh
 * total energy  :   -79.6125184 Eh     change       -0.8077449E-05 Eh
 * total energy  :   -79.6125233 Eh     change       -0.4944529E-05 Eh
   *** GEOMETRY OPTIMIZATION CONVERGED AFTER 47 ITERATIONS ***

 final structure:
================
38
 xtb: 6.5.1 (579679a)
C           -5.71455637568611        1.51257034126077       -0.43686902465182
O           -4.41012728291394        0.94687427337042       -0.33701788045216
C           -4.14015152612233        0.27819677002362        0.79252932928289
O           -4.96993512843154        0.16804606372383        1.68615532118712
C           -2.78887646654714       -0.29493589463108        0.84380721924238
N           -1.97181312726174       -0.07826195952838       -0.23164031605315
C           -0.76822153844018       -0.60544055695875       -0.16751344864287
C            0.11957138280899       -0.41804906943405       -1.39693665532446
C            0.05050383810369       -1.70256631843420       -2.22934799126291
C           -0.32574714969853        0.78871512867364       -2.22619552215988
N            1.51483355820057       -0.24861745328123       -0.97389011599834
C            1.92940978442191        0.74439760145084       -0.17170873798021
O            1.23112964016034        1.62884859067384        0.29639148327898
C            3.39337789365447        0.63574543966689        0.09839197302040
N            4.18001077488509       -0.31586641856688       -0.30689464460066
N            5.42543156293523       -0.02854699927426        0.17170415592221
C            5.31720906347115        1.07920163744723        0.83871582573177
C            6.38614539850708        1.80686627567977        1.55814821896334
O            4.05964812626098        1.54715793064047        0.83231769662434
N           -0.25884033920501       -1.34333868214235        0.81044404230223
C           -1.00241919024706       -1.60491097200270        1.92288211951649
O           -0.56380698374107       -2.28604975241513        2.86498961345139
C           -2.35763589851463       -1.02887111249186        1.92758075748812
O           -3.12385164184250       -1.26814023706240        3.01683610734976
H           -5.77021413679916        2.00991219598476       -1.40335141584972
H           -6.47401082655609        0.72890050180064       -0.37360644858516
H           -5.87929183826420        2.23438502066268        0.36744843483807
H           -0.97520043334010       -1.86862855690931       -2.55538975866996
H            0.36956385083062       -2.55301531794114       -1.62658659270434
H            0.68919328194775       -1.62694800928319       -3.10779507328016
H            0.32010612703931        0.90969451992385       -3.09416365340234
H           -0.29162514336972        1.69584129708030       -1.62393854233838
H           -1.35063742080670        0.63258508079464       -2.55966823487172
H            2.20242409405153       -0.88551676759293       -1.34215363016222
H            7.35441192042468        1.38919800070582        1.29315447864444
H            6.35753888518157        2.86464255746329        1.29989659368838
H            6.24041092988051        1.71738167956173        2.63557727417443
H           -4.00396066497487       -0.85340882864056        2.90770004228264

          :  Hamiltonian                  GFN1-xTB          :
         :: total energy             -79.612523329993 Eh    ::
         :: gradient norm              0.000879897836 Eh/a0 ::
         :: HOMO-LUMO gap              1.837381066983 eV    ::
         :: SCC energy               -80.331139542509 Eh    ::
         :: -> Gsolv                  -0.124852388563 Eh    ::
         :: repulsion energy           0.741503369681 Eh    ::

    * Orbital Energies and Occupations

         #    Occupation            Energy/Eh            Energy/eV
      -------------------------------------------------------------
         1        2.0000           -0.8574005             -23.3311
       ...           ...                  ...                  ...
        52        2.0000           -0.4765845             -12.9685
        53        2.0000           -0.4748376             -12.9210
        54        2.0000           -0.4701687             -12.7939
        55        2.0000           -0.4557385             -12.4013
        56        2.0000           -0.4528031             -12.3214
        57        2.0000           -0.4514418             -12.2844
        58        2.0000           -0.4428647             -12.0510
        59        2.0000           -0.4354055             -11.8480
        60        2.0000           -0.4269678             -11.6184
        61        2.0000           -0.4158281             -11.3153
        62        2.0000           -0.3973056             -10.8112
        63        2.0000           -0.3677996             -10.0083
        64        2.0000           -0.3667080              -9.9786 (HOMO)
        65                         -0.2991855              -8.1413 (LUMO)
        66                         -0.2788177              -7.5870
        67                         -0.2518617              -6.8535
        68                         -0.2243027              -6.1036
        69                         -0.1890441              -5.1442
        70                         -0.1874376              -5.1004
        71                         -0.1409583              -3.8357
        72                         -0.1275150              -3.4699
        73                         -0.1186989              -3.2300
        74                         -0.1067122              -2.9038
        75                         -0.1030610              -2.8044
       ...                                ...                  ...
       124                          0.7353145              20.0089
      -------------------------------------------------------------
                  HL-Gap            0.0675225 Eh            1.8374 eV

Wiberg/Mayer (AO) data.
largest (>0.10) Wiberg bond orders for each atom

     #   Z sym  total        # sym  WBO       # sym  WBO       # sym  WBO
 ---------------------------------------------------------------------------
     1   6 C    3.884 --    25 H    0.987    26 H    0.980    27 H    0.980
                             2 O    0.910
     2   8 O    2.191 --     3 C    1.096     1 C    0.910     4 O    0.118
     3   6 C    3.834 --     4 O    1.585     2 O    1.096     5 C    1.051
     4   8 O    1.916 --     3 C    1.585     2 O    0.118
     5   6 C    3.962 --    23 C    1.457     6 N    1.203     3 C    1.051
     6   7 N    2.992 --     7 C    1.456     5 C    1.203
     7   6 C    3.958 --     6 N    1.456    20 N    1.381     8 C    0.959
     8   6 C    3.924 --    10 C    0.994     9 C    0.990     7 C    0.959
                            11 N    0.912
     9   6 C    3.994 --     8 C    0.990    30 H    0.985    28 H    0.985
                            29 H    0.984
    10   6 C    3.994 --     8 C    0.994    31 H    0.988    33 H    0.984
                            32 H    0.981
    11   7 N    3.371 --    12 C    1.282     8 C    0.912    34 H    0.901
                            13 O    0.186
    12   6 C    3.923 --    13 O    1.581    11 N    1.282    14 C    0.979
    13   8 O    1.889 --    12 C    1.581    11 N    0.186
    14   6 C    3.869 --    15 N    1.616    19 O    1.062    12 C    0.979
    15   7 N    3.011 --    14 C    1.616    16 N    1.192
    16   7 N    2.980 --    17 C    1.613    15 N    1.192
    17   6 C    3.874 --    16 N    1.613    19 O    1.081    18 C    1.030
    18   6 C    3.988 --    17 C    1.030    35 H    0.982    36 H    0.969
                            37 H    0.961
    19   8 O    2.326 --    17 C    1.081    14 C    1.062
    20   7 N    2.964 --     7 C    1.381    21 C    1.230    22 O    0.125
    21   6 C    3.930 --    22 O    1.496    20 N    1.230    23 C    1.070
    22   8 O    1.785 --    21 C    1.496    20 N    0.125
    23   6 C    3.903 --     5 C    1.457    24 O    1.074    21 C    1.070
    24   8 O    2.051 --    23 C    1.074    38 H    0.805
    25   1 H    1.013 --     1 C    0.987
    26   1 H    1.010 --     1 C    0.980
    27   1 H    1.010 --     1 C    0.980
    28   1 H    1.005 --     9 C    0.985
    29   1 H    1.008 --     9 C    0.984
    30   1 H    1.001 --     9 C    0.985
    31   1 H    1.004 --    10 C    0.988
    32   1 H    1.017 --    10 C    0.981
    33   1 H    1.019 --    10 C    0.984
    34   1 H    0.957 --    11 N    0.901
    35   1 H    0.999 --    18 C    0.982
    36   1 H    0.997 --    18 C    0.969
    37   1 H    0.998 --    18 C    0.961
    38   1 H    0.876 --    24 O    0.805
 ---------------------------------------------------------------------------

           -------------------------------------------------
          | TOTAL ENERGY              -79.612523329993 Eh   |
          | GRADIENT NORM               0.000879897836 Eh/α |
          | HOMO-LUMO GAP               1.837381066983 eV   |
           -------------------------------------------------

 * finished run on 2023/06/20 at 17:32:13.077
