   * xtb version 6.5.1 (579679a) compiled by 'ehlert@majestix' on 2022-07-11
          program call               : /lustre/hpc/kemi/ree/PhD/git/ReactivityQM/dep/xtb-6.5.1/bin/xtb --gfn 1 /lustre/hpc/kemi/ree/PhD/git/ReactivityQM/calculations/R01/reac01prodE06/conf05/R01_reac01prodE06_conf05_gfn1.xyz --opt --vfukui --chrg -1 --uhf 0 --alpb DMSO

   ID    Z sym.   atoms
    1    6 C      1, 3, 5, 8-10
    2    8 O      2, 4, 11
    3    7 N      6, 7
    4    1 H      12-20

      * Solvation model:               ALPB
        Solvent                        DMSO
        Solvent mass                       7.8130E+01 g/mol
          :  Hamiltonian                  GFN1-xTB          :
 * total energy  :   -38.3476560 Eh     change       -0.3090861E-11 Eh
 * total energy  :   -38.3539142 Eh     change       -0.6258281E-02 Eh
 * total energy  :   -38.3553846 Eh     change       -0.1470405E-02 Eh
 * total energy  :   -38.3556059 Eh     change       -0.2213011E-03 Eh
 * total energy  :   -38.3558377 Eh     change       -0.2317372E-03 Eh
 * total energy  :   -38.3558783 Eh     change       -0.4058207E-04 Eh
 * total energy  :   -38.3559021 Eh     change       -0.2382759E-04 Eh
 * total energy  :   -38.3559132 Eh     change       -0.1113877E-04 Eh
 * total energy  :   -38.3559186 Eh     change       -0.5359861E-05 Eh
 * total energy  :   -38.3559201 Eh     change       -0.1466986E-05 Eh
   *** GEOMETRY OPTIMIZATION CONVERGED AFTER 10 ITERATIONS ***

 final structure:
================
20
 xtb: 6.5.1 (579679a)
C            3.79297746998738        0.73257327788988        0.24871463250692
O            2.41473099389509        0.40694573384308        0.25257598053230
C            1.73498403847224        0.71204344855514       -0.91820084830601
O            2.33381550894762        1.22936377191591       -1.87520794177765
C            0.37062796847993        0.38135622758463       -0.88120623170997
N           -0.50014051951655        0.57069828916498       -1.87096722719881
N           -1.68102479489269        0.16474160554790       -1.53878425014847
C           -1.60656179383527       -0.36278365809177       -0.16564818983105
C           -1.99791547922413       -1.84942250574882       -0.16191985375000
C           -2.53438039146897        0.45055739863739        0.75110551718162
O           -0.25402106305010       -0.20625387645890        0.23587483337118
H            3.94360582679945        1.80974328148652        0.11178287677095
H            4.19735837131228        0.42955874245400        1.21479843386035
H            4.32227544119094        0.20157932723003       -0.55118183831314
H           -3.01642820499502       -1.96115565333740       -0.52807650180703
H           -1.93024160182572       -2.25429995447515        0.84621418783043
H           -1.32277250974746       -2.40261102633012       -0.81290888126500
H           -2.22290004992013        1.49391906153642        0.74559173610971
H           -2.48577519765247        0.07091733631724        1.77006521478311
H           -3.55821601295628        0.38252917227888        0.38922835116065

          :  Hamiltonian                  GFN1-xTB          :
         :: total energy             -38.355920052214 Eh    ::
         :: gradient norm              0.000266436977 Eh/a0 ::
         :: HOMO-LUMO gap              2.131553039844 eV    ::
         :: SCC energy               -38.663713472954 Eh    ::
         :: -> Gsolv                  -0.097400054941 Eh    ::
         :: repulsion energy           0.316253663311 Eh    ::

    * Orbital Energies and Occupations

         #    Occupation            Energy/Eh            Energy/eV
      -------------------------------------------------------------
         1        2.0000           -0.7790309             -21.1985
       ...           ...                  ...                  ...
        19        2.0000           -0.5077582             -13.8168
        20        2.0000           -0.4953636             -13.4795
        21        2.0000           -0.4864584             -13.2372
        22        2.0000           -0.4841921             -13.1755
        23        2.0000           -0.4746390             -12.9156
        24        2.0000           -0.4715492             -12.8315
        25        2.0000           -0.4500264             -12.2458
        26        2.0000           -0.4491526             -12.2221
        27        2.0000           -0.4389956             -11.9457
        28        2.0000           -0.4219490             -11.4818
        29        2.0000           -0.4141330             -11.2691
        30        2.0000           -0.3745332             -10.1916
        31        2.0000           -0.3214693              -8.7476 (HOMO)
        32                         -0.2431362              -6.6161 (LUMO)
        33                         -0.1279700              -3.4822
        34                         -0.1147230              -3.1218
        35                         -0.1057414              -2.8774
        36                         -0.0998246              -2.7164
        37                         -0.0590037              -1.6056
        38                         -0.0527600              -1.4357
        39                         -0.0515096              -1.4016
        40                         -0.0474881              -1.2922
        41                         -0.0294400              -0.8011
        42                         -0.0273195              -0.7434
       ...                                ...                  ...
        62                          0.7094156              19.3042
      -------------------------------------------------------------
                  HL-Gap            0.0783331 Eh            2.1316 eV

Wiberg/Mayer (AO) data.
largest (>0.10) Wiberg bond orders for each atom

     #   Z sym  total        # sym  WBO       # sym  WBO       # sym  WBO
 ---------------------------------------------------------------------------
     1   6 C    3.908 --    13 H    0.987    12 H    0.981    14 H    0.981
                             2 O    0.939
     2   8 O    2.103 --     3 C    0.975     1 C    0.939
     3   6 C    3.883 --     4 O    1.474     5 C    1.251     2 O    0.975
                             7 N    0.105
     4   8 O    1.789 --     3 C    1.474
     5   6 C    3.847 --     6 N    1.367     3 C    1.251    11 O    0.931
                             7 N    0.150
     6   7 N    3.024 --     7 N    1.503     5 C    1.367
     7   7 N    2.899 --     6 N    1.503     8 C    0.978     5 C    0.150
                             3 C    0.105
     8   6 C    3.901 --    10 C    0.978     7 N    0.978     9 C    0.978
                            11 O    0.928
     9   6 C    3.993 --    15 H    0.988    16 H    0.986    17 H    0.985
                             8 C    0.978
    10   6 C    3.993 --    20 H    0.988    19 H    0.986    18 H    0.985
                             8 C    0.978
    11   8 O    2.049 --     5 C    0.931     8 C    0.928
    12   1 H    1.016 --     1 C    0.981
    13   1 H    1.018 --     1 C    0.987
    14   1 H    1.016 --     1 C    0.981
    15   1 H    1.010 --     9 C    0.988
    16   1 H    1.008 --     9 C    0.986
    17   1 H    1.014 --     9 C    0.985
    18   1 H    1.014 --    10 C    0.985
    19   1 H    1.008 --    10 C    0.986
    20   1 H    1.010 --    10 C    0.988
 ---------------------------------------------------------------------------

           -------------------------------------------------
          | TOTAL ENERGY              -38.355920052214 Eh   |
          | GRADIENT NORM               0.000266436977 Eh/α |
          | HOMO-LUMO GAP               2.131553039844 eV   |
           -------------------------------------------------

 * finished run on 2023/06/20 at 14:54:20.207
