   * xtb version 6.5.1 (579679a) compiled by 'ehlert@majestix' on 2022-07-11
          program call               : /lustre/hpc/kemi/ree/PhD/git/ReactivityQM/dep/xtb-6.5.1/bin/xtb --gfn 1 /lustre/hpc/kemi/ree/PhD/git/ReactivityQM/calculations/R02methylcation/reac01prodN06/conf15/R02methylcation_reac01prodN06_conf15_gfn1.xyz --opt --vfukui --chrg 0 --uhf 0 --alpb DMSO

   ID    Z sym.   atoms
    1    6 C      1, 3, 5, 7-10, 12, 14, 16, 17, 20, 22, 24
    2    8 O      2, 4, 13, 15, 23, 25
    3    7 N      6, 11, 18, 19, 21
    4    1 H      26-42

      * Solvation model:               ALPB
        Solvent                        DMSO
        Solvent mass                       7.8130E+01 g/mol
          :  Hamiltonian                  GFN1-xTB          :
 * total energy  :   -82.9552707 Eh     change       -0.1922729E-10 Eh
 * total energy  :   -82.9706220 Eh     change       -0.1535124E-01 Eh
 * total energy  :   -82.9777561 Eh     change       -0.7134110E-02 Eh
 * total energy  :   -82.9789403 Eh     change       -0.1184249E-02 Eh
 * total energy  :   -82.9797799 Eh     change       -0.8395708E-03 Eh
 * total energy  :   -82.9801388 Eh     change       -0.3588738E-03 Eh
 * total energy  :   -82.9804820 Eh     change       -0.3431770E-03 Eh
 * total energy  :   -82.9807625 Eh     change       -0.2805074E-03 Eh
 * total energy  :   -82.9809787 Eh     change       -0.2162786E-03 Eh
 * total energy  :   -82.9811405 Eh     change       -0.1617432E-03 Eh
 * total energy  :   -82.9823819 Eh     change       -0.1487030E-04 Eh
 * total energy  :   -82.9823944 Eh     change       -0.1247251E-04 Eh
 * total energy  :   -82.9824149 Eh     change       -0.2053054E-04 Eh
 * total energy  :   -82.9824231 Eh     change       -0.8228088E-05 Eh
 * total energy  :   -82.9824359 Eh     change       -0.1277121E-04 Eh
 * total energy  :   -82.9824455 Eh     change       -0.9614705E-05 Eh
 * total energy  :   -82.9824542 Eh     change       -0.8698667E-05 Eh
 * total energy  :   -82.9824626 Eh     change       -0.8437874E-05 Eh
 * total energy  :   -82.9824647 Eh     change       -0.2098856E-05 Eh
   *** GEOMETRY OPTIMIZATION CONVERGED AFTER 48 ITERATIONS ***

 final structure:
================
42
 xtb: 6.5.1 (579679a)
C            6.77189093512391        0.96520099995155       -1.70852134351239
O            5.58703517313515        1.37212407411112       -1.03562851026489
C            4.64305452027867        0.41735850271391       -0.86998708313335
O            4.82419447879838       -0.72308521183248       -1.27641873111665
C            3.43795309453133        0.86721012660658       -0.18064702058230
N            2.50700979539481       -0.13955254070398       -0.02498372669229
C            1.38938329641595        0.08704379623079        0.55564465705928
C            0.38831224455584       -1.02814219320658        0.75978205657876
C            0.32707989994276       -1.39958359747781        2.24749878240983
C            0.76192300074747       -2.23383019596531       -0.10496003312880
N           -0.93401253628568       -0.51493746575700        0.33314964552854
C           -2.05717730647766       -1.22415572768206        0.42294329985639
O           -2.20366239590030       -2.35662541947079        0.84985479705815
C           -3.25604631439629       -0.48253505090176       -0.07979591672032
O           -3.25731899431281        0.75696477592995       -0.55082418639562
C           -4.53388470530652        1.02525016589699       -0.88259296542381
C           -4.90521955246155        2.33401285915185       -1.44632735306486
N           -5.30653160199039        0.00706196895681       -0.63713319245422
N           -4.49109330489006       -0.93587112230967       -0.13239581871848
C           -5.01229912778866       -2.22519977466677        0.26946592303778
N            1.06515682462052        1.32942928230967        1.06519317456400
C            1.89225264904010        2.42523838115364        0.97690794370789
O            1.53143131389747        3.49753959193913        1.44797403514845
C            3.21942327058970        2.19218511491792        0.28589240539995
O            4.00453585239676        3.14800312807118        0.17672036965443
H            7.43867097158704        1.82653812421792       -1.72932165487370
H            7.25139944211148        0.13592888501847       -1.17925005757574
H            6.54386584815981        0.64699778435515       -2.73052366855999
H            1.32183870677564       -1.68949858912879        2.58401346115870
H           -0.01149369321306       -0.54522995662688        2.83053636803024
H           -0.35667780859217       -2.23020356039302        2.40777914080402
H            0.07417472035517       -3.05727691509668        0.07302712353831
H            1.77500224636282       -2.54812358715799        0.14453540657313
H            0.72812136068299       -1.95807407529221       -1.15796738089890
H           -0.98328722570213        0.40465470369651       -0.07549134850903
H           -4.40604001743437        2.47491401839462       -2.40619942230771
H           -5.98278280084317        2.38538034672038       -1.58162660167415
H           -4.57332011238581        3.12871587669685       -0.77753126402113
H           -4.47560208807200       -3.00416256263089       -0.27097595702608
H           -4.84384231854582       -2.35236564642991        1.33837846252279
H           -6.07349863612914       -2.24699908184374        0.03704428765425
H            0.18008089522440        1.46769776753238        1.51930789636408

          :  Hamiltonian                  GFN1-xTB          :
         :: total energy             -82.982464748650 Eh    ::
         :: gradient norm              0.000641072795 Eh/a0 ::
         :: HOMO-LUMO gap              0.185433949758 eV    ::
         :: SCC energy               -83.770823334687 Eh    ::
         :: -> Gsolv                  -0.111365082402 Eh    ::
         :: repulsion energy           0.813431300071 Eh    ::

    * Orbital Energies and Occupations

         #    Occupation            Energy/Eh            Energy/eV
      -------------------------------------------------------------
         1        2.0000           -0.9289663             -25.2785
       ...           ...                  ...                  ...
        55        2.0000           -0.5089412             -13.8490
        56        2.0000           -0.5044760             -13.7275
        57        2.0000           -0.5008429             -13.6286
        58        2.0000           -0.4916033             -13.3772
        59        2.0000           -0.4844910             -13.1837
        60        2.0000           -0.4711227             -12.8199
        61        2.0000           -0.4690482             -12.7635
        62        2.0000           -0.4647233             -12.6458
        63        2.0000           -0.4491027             -12.2207
        64        2.0000           -0.4424837             -12.0406
        65        2.0000           -0.4263702             -11.6021
        66        2.0000           -0.3870260             -10.5315
        67        1.9461           -0.3743551             -10.1867 (HOMO)
        68        0.0539           -0.3675405             -10.0013 (LUMO)
        69                         -0.3166966              -8.6178
        70                         -0.2772805              -7.5452
        71                         -0.2502710              -6.8102
        72                         -0.2450898              -6.6692
        73                         -0.2039915              -5.5509
        74                         -0.1646512              -4.4804
        75                         -0.1633912              -4.4461
        76                         -0.1279868              -3.4827
        77                         -0.1254669              -3.4141
        78                         -0.1233307              -3.3560
       ...                                ...                  ...
       134                          0.7541648              20.5219
      -------------------------------------------------------------
                  HL-Gap            0.0068146 Eh            0.1854 eV

Wiberg/Mayer (AO) data.
largest (>0.10) Wiberg bond orders for each atom

     #   Z sym  total        # sym  WBO       # sym  WBO       # sym  WBO
 ---------------------------------------------------------------------------
     1   6 C    3.895 --    26 H    0.987    28 H    0.980    27 H    0.980
                             2 O    0.921
     2   8 O    2.166 --     3 C    1.059     1 C    0.921     4 O    0.113
     3   6 C    3.849 --     4 O    1.584     5 C    1.100     2 O    1.059
     4   8 O    1.853 --     3 C    1.584     2 O    0.113
     5   6 C    3.885 --    24 C    1.260     6 N    1.166     3 C    1.100
                            25 O    0.122
     6   7 N    3.031 --     7 C    1.626     5 C    1.166
     7   6 C    3.918 --     6 N    1.626    21 N    1.092     8 C    0.979
     8   6 C    3.910 --    10 C    0.992     9 C    0.981     7 C    0.979
                            11 N    0.890
     9   6 C    3.985 --    30 H    0.984    29 H    0.984     8 C    0.981
                            31 H    0.980
    10   6 C    3.987 --     8 C    0.992    34 H    0.985    32 H    0.984
                            33 H    0.981
    11   7 N    3.392 --    12 C    1.316     8 C    0.890    35 H    0.889
                            13 O    0.200
    12   6 C    3.921 --    13 O    1.565    11 N    1.316    14 C    0.966
    13   8 O    1.918 --    12 C    1.565    11 N    0.200
    14   6 C    3.805 --    19 N    1.430    15 O    1.118    12 C    0.966
    15   8 O    2.356 --    14 C    1.118    16 C    1.066
    16   6 C    3.839 --    18 N    1.578    15 O    1.066    17 C    1.042
    17   6 C    3.971 --    16 C    1.042    37 H    0.978    38 H    0.953
                            36 H    0.948
    18   7 N    2.963 --    16 C    1.578    19 N    1.154
    19   7 N    3.627 --    14 C    1.430    18 N    1.154    20 C    0.911
    20   6 C    3.883 --    41 H    0.981    39 H    0.965    40 H    0.963
                            19 N    0.911
    21   7 N    3.415 --    22 C    1.147     7 C    1.092    42 H    0.896
                            23 O    0.133
    22   6 C    3.871 --    23 O    1.594    21 N    1.147    24 C    0.963
    23   8 O    1.868 --    22 C    1.594    21 N    0.133
    24   6 C    3.935 --    25 O    1.534     5 C    1.260    22 C    0.963
    25   8 O    1.823 --    24 C    1.534     5 C    0.122
    26   1 H    1.015 --     1 C    0.987
    27   1 H    1.013 --     1 C    0.980
    28   1 H    1.012 --     1 C    0.980
    29   1 H    1.001 --     9 C    0.984
    30   1 H    1.001 --     9 C    0.984
    31   1 H    1.006 --     9 C    0.980
    32   1 H    1.006 --    10 C    0.984
    33   1 H    1.012 --    10 C    0.981
    34   1 H    1.006 --    10 C    0.985
    35   1 H    0.931 --    11 N    0.889
    36   1 H    0.989 --    17 C    0.948
    37   1 H    0.991 --    17 C    0.978
    38   1 H    0.989 --    17 C    0.953
    39   1 H    0.999 --    20 C    0.965
    40   1 H    0.998 --    20 C    0.963
    41   1 H    0.995 --    20 C    0.981
    42   1 H    0.942 --    21 N    0.896
 ---------------------------------------------------------------------------

           -------------------------------------------------
          | TOTAL ENERGY              -82.982464748650 Eh   |
          | GRADIENT NORM               0.000641072795 Eh/α |
          | HOMO-LUMO GAP               0.185433949758 eV   |
           -------------------------------------------------

 * finished run on 2023/06/21 at 17:36:39.299
