   * xtb version 6.5.1 (579679a) compiled by 'ehlert@majestix' on 2022-07-11
          program call               : /lustre/hpc/kemi/ree/PhD/git/ReactivityQM/dep/xtb-6.5.1/bin/xtb --gfn 1 /lustre/hpc/kemi/ree/PhD/git/ReactivityQM/calculations/R02oxygendeprot/reac01prodE08/conf20/R02oxygendeprot_reac01prodE08_conf20_gfn1.xyz --opt --vfukui --chrg -2 --uhf 0 --alpb DMSO

   ID    Z sym.   atoms
    1    6 C      1, 3, 5, 7-10, 12, 14, 15, 18, 19, 22, 24
    2    8 O      2, 4, 13, 20, 23, 25
    3    7 N      6, 11, 16, 17, 21
    4    1 H      26-42

      * Solvation model:               ALPB
        Solvent                        DMSO
        Solvent mass                       7.8130E+01 g/mol
          :  Hamiltonian                  GFN1-xTB          :
 * total energy  :   -83.6209990 Eh     change       -0.3290467E-08 Eh
 * total energy  :   -83.6360777 Eh     change       -0.1507877E-01 Eh
 * total energy  :   -83.6418581 Eh     change       -0.5780344E-02 Eh
 * total energy  :   -83.6429272 Eh     change       -0.1069162E-02 Eh
 * total energy  :   -83.6436389 Eh     change       -0.7116322E-03 Eh
 * total energy  :   -83.6439223 Eh     change       -0.2834784E-03 Eh
 * total energy  :   -83.6441540 Eh     change       -0.2316087E-03 Eh
 * total energy  :   -83.6443307 Eh     change       -0.1767350E-03 Eh
 * total energy  :   -83.6444897 Eh     change       -0.1589897E-03 Eh
 * total energy  :   -83.6446289 Eh     change       -0.1392466E-03 Eh
 * total energy  :   -83.6715984 Eh     change       -0.2164738E-04 Eh
 * total energy  :   -83.6716150 Eh     change       -0.1655347E-04 Eh
 * total energy  :   -83.6716316 Eh     change       -0.1660540E-04 Eh
 * total energy  :   -83.6716492 Eh     change       -0.1759687E-04 Eh
 * total energy  :   -83.6716657 Eh     change       -0.1654621E-04 Eh
 * total energy  :   -83.6716710 Eh     change       -0.5311840E-05 Eh
 * total energy  :   -83.6716795 Eh     change       -0.8478099E-05 Eh
 * total energy  :   -83.6716851 Eh     change       -0.5633599E-05 Eh
 * total energy  :   -83.6716901 Eh     change       -0.4928195E-05 Eh
   *** GEOMETRY OPTIMIZATION CONVERGED AFTER 47 ITERATIONS ***

 final structure:
================
42
 xtb: 6.5.1 (579679a)
C           -6.88693054695478       -0.25430326837378       -0.90873042061709
O           -5.76192651450819       -0.27856006723925       -0.04746587918562
C           -4.58119892934274        0.12276673200093       -0.60301332547755
O           -4.54373589293018        0.45759782212671       -1.78509139067364
C           -3.44889698176442        0.11608156987360        0.30207178505238
N           -2.27615271778151        0.54984200363705       -0.29859088711669
C           -1.18253681559633        0.62807056096701        0.37134892315070
C            0.09091867262852        1.13841528706802       -0.29111039838316
C           -0.20817301227704        1.39560385204681       -1.77812534413150
C            0.50618669282211        2.47178020720029        0.36328025205806
N            1.15698192991162        0.13515045591102       -0.26867631936612
C            1.82050528254574       -0.11143781038283        0.82029173256865
O            1.68645829157421        0.32550453133517        1.99378249495989
C            2.96326271597233       -1.16609902548222        0.58665702707733
C            3.07143347130058       -2.13047782834698        1.76835967414274
N            2.77378364669393       -1.90956461319800       -0.67153309705248
N            3.92163058221694       -1.63306849402794       -1.47893438236605
C            4.67399326448453       -0.86208355603526       -0.80457368522438
C            5.99268145579496       -0.34035976113907       -1.25493022768597
O            4.23135021062898       -0.49839126215102        0.41609361439098
N           -1.13350763177026        0.28100833928893        1.70316754954646
C           -2.19916891478262       -0.17895327357640        2.41470286320689
O           -2.06946966048115       -0.48449165682738        3.60451052922212
C           -3.50793040437246       -0.27570037983630        1.66370993692918
O           -4.52029543922724       -0.68191343267075        2.27499191508060
H           -7.08011417987684        0.76101535343212       -1.27093983815923
H           -6.73425434481084       -0.90958054164430       -1.77287955865411
H           -7.74226432173332       -0.60428652478297       -0.33140370390873
H           -0.99882291064183        2.13711865380202       -1.89394507337206
H            0.69398080494501        1.75413405751585       -2.27208707625382
H           -0.52341026068934        0.46852564972308       -2.25762270222481
H            0.64480785315111        2.36313943458836        1.43760911424686
H           -0.26551792057592        3.22220483835667        0.18691139091886
H            1.44006713384794        2.82249661877734       -0.07536294795388
H            1.98109948275101       -1.48116616515345       -1.17914937507188
H            3.93379809691493       -2.78228519417518        1.64032535738712
H            3.18035333665666       -1.56318420560615        2.69180518827137
H            2.16951124544818       -2.73803817445814        1.82204174996491
H            6.21133908596049       -0.70607671594794       -2.25497428950074
H            6.77593096442337       -0.66549743184264       -0.57112660867657
H            5.98195432100932        0.74917184343778       -1.26044982410300
H           -0.23772114154029        0.35589157179612        2.18556725698822

          :  Hamiltonian                  GFN1-xTB          :
         :: total energy             -83.671690075956 Eh    ::
         :: gradient norm              0.000913711898 Eh/a0 ::
         :: HOMO-LUMO gap              2.479175740103 eV    ::
         :: SCC energy               -84.409457885146 Eh    ::
         :: -> Gsolv                  -0.263272520476 Eh    ::
         :: repulsion energy           0.764106866420 Eh    ::

    * Orbital Energies and Occupations

         #    Occupation            Energy/Eh            Energy/eV
      -------------------------------------------------------------
         1        2.0000           -0.7903717             -21.5071
       ...           ...                  ...                  ...
        56        2.0000           -0.4448107             -12.1039
        57        2.0000           -0.4403691             -11.9831
        58        2.0000           -0.4339352             -11.8080
        59        2.0000           -0.4232482             -11.5172
        60        2.0000           -0.4224750             -11.4961
        61        2.0000           -0.4138743             -11.2621
        62        2.0000           -0.3935207             -10.7082
        63        2.0000           -0.3927896             -10.6883
        64        2.0000           -0.3656155              -9.9489
        65        2.0000           -0.3587074              -9.7609
        66        2.0000           -0.3503360              -9.5331
        67        2.0000           -0.3493421              -9.5061
        68        2.0000           -0.3433377              -9.3427 (HOMO)
        69                         -0.2522296              -6.8635 (LUMO)
        70                         -0.2145805              -5.8390
        71                         -0.2117966              -5.7633
        72                         -0.1792026              -4.8764
        73                         -0.1678299              -4.5669
        74                         -0.1254646              -3.4141
        75                         -0.1167698              -3.1775
        76                         -0.0965889              -2.6283
        77                         -0.0913479              -2.4857
        78                         -0.0885591              -2.4098
        79                         -0.0848616              -2.3092
       ...                                ...                  ...
       134                          0.7618238              20.7303
      -------------------------------------------------------------
                  HL-Gap            0.0911080 Eh            2.4792 eV

Wiberg/Mayer (AO) data.
largest (>0.10) Wiberg bond orders for each atom

     #   Z sym  total        # sym  WBO       # sym  WBO       # sym  WBO
 ---------------------------------------------------------------------------
     1   6 C    3.905 --    28 H    0.987    26 H    0.980    27 H    0.980
                             2 O    0.932
     2   8 O    2.148 --     3 C    1.029     1 C    0.932     4 O    0.105
     3   6 C    3.847 --     4 O    1.560     5 C    1.135     2 O    1.029
     4   8 O    1.839 --     3 C    1.560     2 O    0.105
     5   6 C    3.919 --    24 C    1.280     6 N    1.142     3 C    1.135
                            25 O    0.128
     6   7 N    3.019 --     7 C    1.626     5 C    1.142
     7   6 C    3.925 --     6 N    1.626    21 N    1.108     8 C    0.968
     8   6 C    3.973 --     9 C    0.996    10 C    0.977    11 N    0.970
                             7 C    0.968
     9   6 C    3.997 --     8 C    0.996    30 H    0.988    29 H    0.987
                            31 H    0.985
    10   6 C    3.994 --    33 H    0.988    34 H    0.986    32 H    0.980
                             8 C    0.977
    11   7 N    2.932 --    12 C    1.558     8 C    0.970    13 O    0.211
    12   6 C    3.936 --    11 N    1.558    13 O    1.403    14 C    0.889
    13   8 O    1.806 --    12 C    1.403    11 N    0.211
    14   6 C    3.839 --    15 C    0.992    16 N    0.962    12 C    0.889
                            20 O    0.878
    15   6 C    3.996 --    14 C    0.992    36 H    0.987    38 H    0.986
                            37 H    0.983
    16   7 N    3.025 --    17 N    1.002    14 C    0.962    35 H    0.908
    17   7 N    2.967 --    18 C    1.749    16 N    1.002    20 O    0.125
    18   6 C    3.904 --    17 N    1.749    20 O    1.053    19 C    1.017
    19   6 C    3.994 --    18 C    1.017    39 H    0.986    40 H    0.971
                            41 H    0.971
    20   8 O    2.144 --    18 C    1.053    14 C    0.878    17 N    0.125
    21   7 N    3.450 --    22 C    1.196     7 C    1.108    42 H    0.860
                            23 O    0.138
    22   6 C    3.889 --    23 O    1.548    21 N    1.196    24 C    0.974
    23   8 O    1.828 --    22 C    1.548    21 N    0.138
    24   6 C    3.944 --    25 O    1.498     5 C    1.280    22 C    0.974
    25   8 O    1.802 --    24 C    1.498     5 C    0.128
    26   1 H    1.016 --     1 C    0.980
    27   1 H    1.016 --     1 C    0.980
    28   1 H    1.017 --     1 C    0.987
    29   1 H    1.017 --     9 C    0.987
    30   1 H    1.014 --     9 C    0.988
    31   1 H    1.022 --     9 C    0.985
    32   1 H    1.022 --    10 C    0.980
    33   1 H    1.008 --    10 C    0.988
    34   1 H    1.007 --    10 C    0.986
    35   1 H    1.013 --    16 N    0.908
    36   1 H    1.011 --    15 C    0.987
    37   1 H    1.019 --    15 C    0.983
    38   1 H    1.011 --    15 C    0.986
    39   1 H    1.004 --    19 C    0.986
    40   1 H    1.003 --    19 C    0.971
    41   1 H    1.002 --    19 C    0.971
    42   1 H    0.958 --    21 N    0.860
 ---------------------------------------------------------------------------

           -------------------------------------------------
          | TOTAL ENERGY              -83.671690075956 Eh   |
          | GRADIENT NORM               0.000913711898 Eh/α |
          | HOMO-LUMO GAP               2.479175740103 eV   |
           -------------------------------------------------

 * finished run on 2023/06/21 at 17:10:27.140
