   * xtb version 6.5.1 (579679a) compiled by 'ehlert@majestix' on 2022-07-11
          program call               : /lustre/hpc/kemi/ree/PhD/git/ReactivityQM/dep/xtb-6.5.1/bin/xtb --gfn 1 /lustre/hpc/kemi/ree/PhD/git/ReactivityQM/calculations/R02/reac01prodE04/conf02/R02_reac01prodE04_conf02_gfn1.xyz --opt --vfukui --chrg -1 --uhf 0 --alpb DMSO

   ID    Z sym.   atoms
    1    6 C      1, 3, 5, 6, 8-11, 13, 15, 18, 19, 22, 24
    2    8 O      2, 4, 14, 20, 23, 25
    3    7 N      7, 12, 16, 17, 21
    4    1 H      26-43

      * Solvation model:               ALPB
        Solvent                        DMSO
        Solvent mass                       7.8130E+01 g/mol
          :  Hamiltonian                  GFN1-xTB          :
 * total energy  :   -83.8421985 Eh     change       -0.3402079E-10 Eh
 * total energy  :   -83.8568669 Eh     change       -0.1466835E-01 Eh
 * total energy  :   -83.8629769 Eh     change       -0.6110079E-02 Eh
 * total energy  :   -83.8642711 Eh     change       -0.1294190E-02 Eh
 * total energy  :   -83.8651818 Eh     change       -0.9106531E-03 Eh
 * total energy  :   -83.8656607 Eh     change       -0.4789489E-03 Eh
 * total energy  :   -83.8660211 Eh     change       -0.3604187E-03 Eh
 * total energy  :   -83.8662946 Eh     change       -0.2734776E-03 Eh
 * total energy  :   -83.8665209 Eh     change       -0.2262857E-03 Eh
 * total energy  :   -83.8667188 Eh     change       -0.1979398E-03 Eh
 * total energy  :   -83.8721411 Eh     change       -0.8139042E-05 Eh
 * total energy  :   -83.8721496 Eh     change       -0.8511492E-05 Eh
 * total energy  :   -83.8721589 Eh     change       -0.9282167E-05 Eh
 * total energy  :   -83.8721689 Eh     change       -0.1002456E-04 Eh
 * total energy  :   -83.8721790 Eh     change       -0.1009386E-04 Eh
 * total energy  :   -83.8721881 Eh     change       -0.9082564E-05 Eh
 * total energy  :   -83.8721952 Eh     change       -0.7074832E-05 Eh
 * total energy  :   -83.8722004 Eh     change       -0.5185085E-05 Eh
 * total energy  :   -83.8722043 Eh     change       -0.3912596E-05 Eh
   *** GEOMETRY OPTIMIZATION CONVERGED AFTER 111 ITERATIONS ***

 final structure:
================
43
 xtb: 6.5.1 (579679a)
C           -4.76856375844942       -1.88139554158034       -0.23892053925727
O           -3.70127568073187       -0.93703516500032       -0.27868034868574
C           -3.97191946274940        0.28574854865189        0.21898861068823
O           -5.07007982294222        0.56968260814474        0.67513774230231
C           -2.75495179344101        1.19307222627995        0.34565590035578
C           -3.13815510247458        2.65121191682754        0.06233645202197
N           -1.68684387779610        0.80426749398052       -0.56221878909527
C           -0.80739865067120       -0.02520747849326       -0.14610267814040
C            0.26926100512631       -0.49378995325241       -1.11775394681125
C            0.07323408441424       -1.98845463233676       -1.40106182644035
C            0.20787962800066        0.31965420306985       -2.41337258734619
N            1.56456185512708       -0.27121414000033       -0.45830117254131
C            2.75330983058004       -0.57722072303663       -1.00378016010769
O            2.93194283162914       -1.14923841893724       -2.06703182314092
C            3.86777932543149       -0.11795704716704       -0.12740455022748
N            3.74142928101519        0.52434002924565        0.99406200050718
N            5.00224330693783        0.76605617927349        1.45411221877356
C            5.81650756481856        0.25739604465152        0.58164130255694
C            7.29549625641729        0.26194827202892        0.61797396364191
O            5.16210050846469       -0.31442087002104       -0.44063548057729
N           -0.76581073714341       -0.55993090070227        1.09859708566132
C           -1.49342770128025        0.03658071170483        2.21761973357892
O           -1.11284634458140       -0.31356617642059        3.36154908360483
C           -2.43150949750124        0.94480873155549        1.81140184482598
O           -3.24085851738023        1.64279791160260        2.73282668954692
H           -4.42191446815675       -2.77584143898949       -0.75357775769942
H           -5.65160875051937       -1.48023259076346       -0.74416574937965
H           -5.02970494768778       -2.12352797917585        0.79512929910378
H           -2.31069499049317        3.30665773770485        0.33173488942599
H           -4.01679610914934        2.92868833617715        0.64248998989550
H           -3.35548256118391        2.77567595376611       -0.99804596366242
H            0.80714158669105       -2.34007173447865       -2.12361890276063
H           -0.92540032014274       -2.14669301065016       -1.80653782454904
H            0.17684689484021       -2.56397347508016       -0.48255995332767
H            0.37924420663972        1.37388667066655       -2.19916333501771
H            0.95873125706008       -0.03116365763404       -3.11873105508173
H           -0.78026726112138        0.21057700588888       -2.85839889694170
H            1.56911622732588        0.24681495980426        0.41010556161208
H            7.63715687952017        0.74818700747466        1.52828314500260
H            7.67379570229486       -0.75932779310614        0.58454951063705
H            7.68770251412611        0.79478902666163       -0.24807136104558
H            0.01943024342566       -1.12980992251435        1.36605061175739
H           -4.15939763428122        1.33723007418710        2.66298906633996

          :  Hamiltonian                  GFN1-xTB          :
         :: total energy             -83.872204276489 Eh    ::
         :: gradient norm              0.000237570554 Eh/a0 ::
         :: HOMO-LUMO gap              0.464339991009 eV    ::
         :: SCC energy               -84.636376986800 Eh    ::
         :: -> Gsolv                  -0.117719795538 Eh    ::
         :: repulsion energy           0.791446188339 Eh    ::

    * Orbital Energies and Occupations

         #    Occupation            Energy/Eh            Energy/eV
      -------------------------------------------------------------
         1        2.0000           -0.8588297             -23.3699
       ...           ...                  ...                  ...
        56        2.0000           -0.4746594             -12.9161
        57        2.0000           -0.4696940             -12.7810
        58        2.0000           -0.4656538             -12.6711
        59        2.0000           -0.4584451             -12.4749
        60        2.0000           -0.4551850             -12.3862
        61        2.0000           -0.4540423             -12.3551
        62        2.0000           -0.4444295             -12.0935
        63        2.0000           -0.4371677             -11.8959
        64        2.0000           -0.4334557             -11.7949
        65        2.0000           -0.3967046             -10.7949
        66        2.0000           -0.3910269             -10.6404
        67        2.0000           -0.3775128             -10.2726
        68        1.9997           -0.3198259              -8.7029 (HOMO)
        69        0.0003           -0.3027617              -8.2386 (LUMO)
        70                         -0.2526285              -6.8744
        71                         -0.2336143              -6.3570
        72                         -0.2215652              -6.0291
        73                         -0.1911132              -5.2005
        74                         -0.1407308              -3.8295
        75                         -0.1327896              -3.6134
        76                         -0.1268890              -3.4528
        77                         -0.1121968              -3.0530
        78                         -0.1090798              -2.9682
        79                         -0.0982714              -2.6741
       ...                                ...                  ...
       136                          0.7312385              19.8980
      -------------------------------------------------------------
                  HL-Gap            0.0170642 Eh            0.4643 eV

Wiberg/Mayer (AO) data.
largest (>0.10) Wiberg bond orders for each atom

     #   Z sym  total        # sym  WBO       # sym  WBO       # sym  WBO
 ---------------------------------------------------------------------------
     1   6 C    3.891 --    26 H    0.987    27 H    0.981    28 H    0.981
                             2 O    0.913
     2   8 O    2.170 --     3 C    1.074     1 C    0.913     4 O    0.112
     3   6 C    3.818 --     4 O    1.600     2 O    1.074     5 C    0.934
     4   8 O    1.892 --     3 C    1.600     2 O    0.112
     5   6 C    3.962 --     6 C    0.986     7 N    0.977     3 C    0.934
                            24 C    0.929
     6   6 C    3.996 --    31 H    0.988    29 H    0.987     5 C    0.986
                            30 H    0.985
     7   7 N    2.979 --     8 C    1.677     5 C    0.977    21 N    0.169
     8   6 C    3.952 --     7 N    1.677    21 N    1.194     9 C    0.966
     9   6 C    3.926 --    11 C    0.995    10 C    0.986     8 C    0.966
                            12 N    0.910
    10   6 C    3.993 --    33 H    0.986     9 C    0.986    34 H    0.985
                            32 H    0.981
    11   6 C    3.993 --     9 C    0.995    35 H    0.985    37 H    0.984
                            36 H    0.984
    12   7 N    3.363 --    13 C    1.275     9 C    0.910    38 H    0.897
                            14 O    0.182
    13   6 C    3.921 --    14 O    1.581    12 N    1.275    15 C    0.983
    14   8 O    1.899 --    13 C    1.581    12 N    0.182
    15   6 C    3.871 --    16 N    1.615    20 O    1.063    13 C    0.983
    16   7 N    3.015 --    15 C    1.615    17 N    1.195
    17   7 N    2.981 --    18 C    1.611    16 N    1.195
    18   6 C    3.873 --    17 N    1.611    20 O    1.081    19 C    1.031
    19   6 C    3.987 --    18 C    1.031    39 H    0.983    40 H    0.965
                            41 H    0.964
    20   8 O    2.327 --    18 C    1.081    15 C    1.063
    21   7 N    3.319 --     8 C    1.194    42 H    0.911    22 C    0.899
                             7 N    0.169
    22   6 C    3.913 --    24 C    1.493    23 O    1.399    21 N    0.899
    23   8 O    1.724 --    22 C    1.399    24 C    0.173
    24   6 C    3.783 --    22 C    1.493    25 O    0.951     5 C    0.929
                            23 O    0.173
    25   8 O    1.909 --    24 C    0.951    43 H    0.862
    26   1 H    1.015 --     1 C    0.987
    27   1 H    1.013 --     1 C    0.981
    28   1 H    1.011 --     1 C    0.981
    29   1 H    1.012 --     6 C    0.987
    30   1 H    1.017 --     6 C    0.985
    31   1 H    1.010 --     6 C    0.988
    32   1 H    1.012 --    10 C    0.981
    33   1 H    1.004 --    10 C    0.986
    34   1 H    1.005 --    10 C    0.985
    35   1 H    1.012 --    11 C    0.985
    36   1 H    1.010 --    11 C    0.984
    37   1 H    1.016 --    11 C    0.984
    38   1 H    0.959 --    12 N    0.897
    39   1 H    0.999 --    19 C    0.983
    40   1 H    0.997 --    19 C    0.965
    41   1 H    0.997 --    19 C    0.964
    42   1 H    0.961 --    21 N    0.911
    43   1 H    0.899 --    25 O    0.862
 ---------------------------------------------------------------------------

           -------------------------------------------------
          | TOTAL ENERGY              -83.872204276489 Eh   |
          | GRADIENT NORM               0.000237570554 Eh/α |
          | HOMO-LUMO GAP               0.464339991009 eV   |
           -------------------------------------------------

 * finished run on 2023/06/20 at 14:57:35.404
