   * xtb version 6.5.1 (579679a) compiled by 'ehlert@majestix' on 2022-07-11
          program call               : /lustre/hpc/kemi/ree/PhD/git/ReactivityQM/dep/xtb-6.5.1/bin/xtb --gfn 1 /lustre/hpc/kemi/ree/PhD/git/ReactivityQM/calculations/R02oxygendeprot/reac01prodN05/conf18/R02oxygendeprot_reac01prodN05_conf18_gfn1.xyz --opt --vfukui --chrg 0 --uhf 0 --alpb DMSO

   ID    Z sym.   atoms
    1    6 C      1, 3, 5, 6, 8, 11-14, 16, 18, 21, 22, 25
    2    8 O      2, 4, 7, 9, 17, 23
    3    7 N      10, 15, 19, 20, 24
    4    1 H      26-42

      * Solvation model:               ALPB
        Solvent                        DMSO
        Solvent mass                       7.8130E+01 g/mol
          :  Hamiltonian                  GFN1-xTB          :
 * total energy  :   -82.9693120 Eh     change       -0.3008438E-10 Eh
 * total energy  :   -82.9814394 Eh     change       -0.1212734E-01 Eh
 * total energy  :   -82.9866483 Eh     change       -0.5208964E-02 Eh
 * total energy  :   -82.9879583 Eh     change       -0.1309972E-02 Eh
 * total energy  :   -82.9887838 Eh     change       -0.8254416E-03 Eh
 * total energy  :   -82.9892013 Eh     change       -0.4175722E-03 Eh
 * total energy  :   -82.9895158 Eh     change       -0.3144652E-03 Eh
 * total energy  :   -82.9897746 Eh     change       -0.2588054E-03 Eh
 * total energy  :   -82.9899924 Eh     change       -0.2177707E-03 Eh
 * total energy  :   -82.9901802 Eh     change       -0.1878074E-03 Eh
 * total energy  :   -82.9910324 Eh     change       -0.2302475E-04 Eh
 * total energy  :   -82.9910434 Eh     change       -0.1100086E-04 Eh
 * total energy  :   -82.9910384 Eh     change        0.5033186E-05 Eh
 * total energy  :   -82.9910673 Eh     change       -0.2894684E-04 Eh
 * total energy  :   -82.9910748 Eh     change       -0.7468015E-05 Eh
 * total energy  :   -82.9910852 Eh     change       -0.1043918E-04 Eh
 * total energy  :   -82.9910923 Eh     change       -0.7036513E-05 Eh
 * total energy  :   -82.9910978 Eh     change       -0.5575369E-05 Eh
 * total energy  :   -82.9911026 Eh     change       -0.4775655E-05 Eh
   *** GEOMETRY OPTIMIZATION CONVERGED AFTER 44 ITERATIONS ***

 final structure:
================
42
 xtb: 6.5.1 (579679a)
C           -6.48341238598014       -1.18185850855459       -0.30421576959140
O           -5.31567038743486       -0.68776336198933        0.35199102864892
C           -4.24817340261681       -0.48251643217578       -0.42496745328826
O           -4.28399936097843       -0.69599807243873       -1.62693450780073
C           -3.05966009066791       -0.04350150301936        0.31657858693867
C           -2.94105675281641       -0.26496422163483        1.71694524534424
O           -3.83534711311982       -0.65503381141715        2.46818682824414
C           -1.57006876783171       -0.02175023705327        2.29918310855324
O           -1.28231447932931       -0.08683683852412        3.47605499838099
N           -0.58039593455316        0.24356866165068        1.36603853750780
C           -0.74839009921036        0.48947881839301        0.04727082863665
C            0.54327308920058        0.84827237804664       -0.69092067082806
C            0.75241311474802        2.36527653967035       -0.59619334492040
C            0.62438247631496        0.34526955078640       -2.14048290401217
N            1.59300277903253        0.12406636877103        0.04489533986697
C            2.91233591317543        0.47077199832971        0.06321070325819
O            3.38151507049689        1.54249361465102       -0.25401702454649
C            3.71874590246981       -0.65742185822645        0.59063844923666
N            3.26289271393386       -1.81700430952263        0.96063425029470
N            4.33471546144781       -2.54860810103858        1.36800702179333
C            5.37978355088882       -1.79008567953362        1.21722463119154
C            6.79172947310255       -2.12891652357208        1.49935983920479
O            5.05371249654578       -0.58420497669353        0.73123267990571
N           -1.96833148514931        0.42966689927255       -0.43945507828978
C           -2.26453707425119        0.98459244013190       -1.76635475161307
H           -6.82789706250917       -0.46311188618083       -1.05185026134198
H           -7.24184613900325       -1.31619368778818        0.46526052878587
H           -6.26890281274350       -2.13453286654310       -0.79537760892678
H            0.35610097757087        0.34275467836446        1.73668999746566
H           -0.15575850663019        2.88097716315364       -0.90237136568038
H            1.56463394079913        2.67492985976852       -1.24959654597157
H            0.98871427773760        2.64770645881554        0.42797484907600
H            0.18437438777484       -0.64593793858318       -2.22958613084913
H            0.13697855730423        1.02410548666412       -2.83419376657781
H            1.67544447318984        0.28565285606870       -2.41993011284631
H            1.41683150907909       -0.86735738685608        0.15196873578345
H            7.32430330383632       -2.29826216973899        0.56280042146510
H            6.84027729924783       -3.03070543162932        2.10475924269557
H            7.27683295099466       -1.30460416048338        2.01938105086189
H           -1.56130269528261        1.77941550819637       -1.98658893455251
H           -2.21079938526394        0.20375870384106       -2.52178125919290
H           -3.26513178352668        1.40826797862282       -1.75146941231381

          :  Hamiltonian                  GFN1-xTB          :
         :: total energy             -82.991102614107 Eh    ::
         :: gradient norm              0.000369513303 Eh/a0 ::
         :: HOMO-LUMO gap              2.492107381624 eV    ::
         :: SCC energy               -83.771709098450 Eh    ::
         :: -> Gsolv                  -0.068950632352 Eh    ::
         :: repulsion energy           0.807237749330 Eh    ::

    * Orbital Energies and Occupations

         #    Occupation            Energy/Eh            Energy/eV
      -------------------------------------------------------------
         1        2.0000           -0.8682419             -23.6261
       ...           ...                  ...                  ...
        55        2.0000           -0.5107032             -13.8969
        56        2.0000           -0.5100987             -13.8805
        57        2.0000           -0.4952065             -13.4753
        58        2.0000           -0.4913195             -13.3695
        59        2.0000           -0.4892435             -13.3130
        60        2.0000           -0.4876554             -13.2698
        61        2.0000           -0.4747762             -12.9193
        62        2.0000           -0.4726273             -12.8608
        63        2.0000           -0.4690220             -12.7627
        64        2.0000           -0.4577281             -12.4554
        65        2.0000           -0.4559459             -12.4069
        66        2.0000           -0.4267130             -11.6115
        67        2.0000           -0.4161324             -11.3235 (HOMO)
        68                         -0.3245492              -8.8314 (LUMO)
        69                         -0.3194109              -8.6916
        70                         -0.3048601              -8.2957
        71                         -0.2608795              -7.0989
        72                         -0.2389398              -6.5019
        73                         -0.2075764              -5.6484
        74                         -0.1689794              -4.5982
        75                         -0.1521292              -4.1396
        76                         -0.1435884              -3.9072
        77                         -0.1386244              -3.7722
        78                         -0.1335629              -3.6344
       ...                                ...                  ...
       134                          0.7510184              20.4363
      -------------------------------------------------------------
                  HL-Gap            0.0915833 Eh            2.4921 eV

Wiberg/Mayer (AO) data.
largest (>0.10) Wiberg bond orders for each atom

     #   Z sym  total        # sym  WBO       # sym  WBO       # sym  WBO
 ---------------------------------------------------------------------------
     1   6 C    3.877 --    27 H    0.986    26 H    0.980    28 H    0.980
                             2 O    0.903
     2   8 O    2.200 --     3 C    1.103     1 C    0.903     4 O    0.120
     3   6 C    3.866 --     4 O    1.581     2 O    1.103     5 C    1.084
     4   8 O    1.894 --     3 C    1.581     2 O    0.120
     5   6 C    3.848 --     6 C    1.260     3 C    1.084    24 N    1.049
                             7 O    0.140
     6   6 C    3.944 --     7 O    1.572     5 C    1.260     8 C    0.952
     7   8 O    1.883 --     6 C    1.572     5 C    0.140
     8   6 C    3.867 --     9 O    1.660    10 N    1.091     6 C    0.952
     9   8 O    1.930 --     8 C    1.660    10 N    0.116
    10   7 N    3.457 --    11 C    1.211     8 C    1.091    29 H    0.871
                             9 O    0.116
    11   6 C    3.914 --    24 N    1.437    10 N    1.211    12 C    0.974
    12   6 C    3.931 --    14 C    0.985    13 C    0.979    11 C    0.974
                            15 N    0.929
    13   6 C    3.981 --    32 H    0.982    30 H    0.979    12 C    0.979
                            31 H    0.976
    14   6 C    3.986 --    12 C    0.985    33 H    0.984    35 H    0.979
                            34 H    0.979
    15   7 N    3.305 --    16 C    1.200    12 C    0.929    36 H    0.894
                            17 O    0.164
    16   6 C    3.910 --    17 O    1.629    15 N    1.200    18 C    0.993
    17   8 O    1.937 --    16 C    1.629    15 N    0.164
    18   6 C    3.878 --    19 N    1.604    23 O    1.066    16 C    0.993
    19   7 N    3.022 --    18 C    1.604    20 N    1.206
    20   7 N    2.981 --    21 C    1.597    19 N    1.206
    21   6 C    3.869 --    20 N    1.597    23 O    1.086    22 C    1.032
    22   6 C    3.985 --    21 C    1.032    38 H    0.981    39 H    0.969
                            37 H    0.957
    23   8 O    2.335 --    21 C    1.086    18 C    1.066
    24   7 N    3.586 --    11 C    1.437     5 C    1.049    25 C    0.917
    25   6 C    3.911 --    40 H    0.977    42 H    0.975    41 H    0.971
                            24 N    0.917
    26   1 H    1.009 --     1 C    0.980
    27   1 H    1.012 --     1 C    0.986
    28   1 H    1.009 --     1 C    0.980
    29   1 H    0.934 --    10 N    0.871
    30   1 H    1.001 --    13 C    0.979
    31   1 H    1.009 --    13 C    0.976
    32   1 H    1.001 --    13 C    0.982
    33   1 H    0.998 --    14 C    0.984
    34   1 H    1.000 --    14 C    0.979
    35   1 H    0.997 --    14 C    0.979
    36   1 H    0.952 --    15 N    0.894
    37   1 H    0.996 --    22 C    0.957
    38   1 H    0.998 --    22 C    0.981
    39   1 H    0.996 --    22 C    0.969
    40   1 H    1.005 --    25 C    0.977
    41   1 H    1.012 --    25 C    0.971
    42   1 H    1.005 --    25 C    0.975
 ---------------------------------------------------------------------------

           -------------------------------------------------
          | TOTAL ENERGY              -82.991102614107 Eh   |
          | GRADIENT NORM               0.000369513303 Eh/α |
          | HOMO-LUMO GAP               2.492107381624 eV   |
           -------------------------------------------------

 * finished run on 2023/06/21 at 17:21:03.910
