   * xtb version 6.5.1 (579679a) compiled by 'ehlert@majestix' on 2022-07-11
          program call               : /lustre/hpc/kemi/ree/PhD/git/ReactivityQM/dep/xtb-6.5.1/bin/xtb --gfn 1 /lustre/hpc/kemi/ree/PhD/git/ReactivityQM/calculations/R01/reac02prodN07/conf18/R01_reac02prodN07_conf18_gfn1.xyz --opt --vfukui --chrg 1 --uhf 0 --alpb DMSO

   ID    Z sym.   atoms
    1    6 C      1, 3, 5, 6, 8, 11-15
    2    8 O      2, 4, 7, 9
    3    7 N      10, 16, 17
    4    1 H      18-33

      * Solvation model:               ALPB
        Solvent                        DMSO
        Solvent mass                       7.8130E+01 g/mol
          :  Hamiltonian                  GFN1-xTB          :
 * total energy  :   -57.7886520 Eh     change       -0.1669775E-11 Eh
 * total energy  :   -57.8029917 Eh     change       -0.1433974E-01 Eh
 * total energy  :   -57.8083777 Eh     change       -0.5386003E-02 Eh
 * total energy  :   -57.8095414 Eh     change       -0.1163656E-02 Eh
 * total energy  :   -57.8107651 Eh     change       -0.1223739E-02 Eh
 * total energy  :   -57.8115755 Eh     change       -0.8103647E-03 Eh
 * total energy  :   -57.8125046 Eh     change       -0.9291003E-03 Eh
 * total energy  :   -57.8128920 Eh     change       -0.3873781E-03 Eh
 * total energy  :   -57.8140460 Eh     change       -0.1153996E-02 Eh
 * total energy  :   -57.8148962 Eh     change       -0.8502544E-03 Eh
 * total energy  :   -57.8691560 Eh     change       -0.1508454E-04 Eh
 * total energy  :   -57.8691649 Eh     change       -0.8925737E-05 Eh
 * total energy  :   -57.8692358 Eh     change       -0.7082941E-04 Eh
 * total energy  :   -57.8692576 Eh     change       -0.2179333E-04 Eh
 * total energy  :   -57.8693032 Eh     change       -0.4564393E-04 Eh
 * total energy  :   -57.8693150 Eh     change       -0.1185121E-04 Eh
 * total energy  :   -57.8693223 Eh     change       -0.7208277E-05 Eh
 * total energy  :   -57.8693273 Eh     change       -0.5080056E-05 Eh
 * total energy  :   -57.8693321 Eh     change       -0.4751118E-05 Eh
   *** GEOMETRY OPTIMIZATION CONVERGED AFTER 109 ITERATIONS ***

 final structure:
================
33
 xtb: 6.5.1 (579679a)
C            4.19633132851703       -0.88841525241166        1.42416197839034
O            3.52034567119400        0.02350046990179        0.55132637617271
C            2.22445393879617       -0.18583799746894        0.36308367184524
O            1.61901503660310       -1.09579203203020        0.89090563054417
C            1.58623898572107        0.79603032988898       -0.55949783953857
C            2.18520307530009        1.91500115561505       -1.07015963955564
O            3.44031389252148        2.29021252733353       -0.80378102387473
C            1.44461536190294        2.80128360919746       -1.96678268173378
O            1.92459937992327        3.81679787689507       -2.44577414391280
N            0.16161629411053        2.38574185752924       -2.22751217701331
C           -0.38050408128457        1.25790711259821       -1.68234762333101
C           -1.78949438814144        0.93647200502405       -2.04889125861874
C           -2.58471545126816       -1.82494212856230        1.16048461783487
C           -1.14175029429383       -1.55718066108034        1.24069297865136
C           -3.55418761933383       -0.76579943075597        1.51343513112713
N           -3.01264266783972       -2.98002363327233        0.77248416177583
N            0.28071408062841        0.49289673642896       -0.88076500820987
H            5.24474534334702       -0.59677343053097        1.42800393905844
H            4.08493618370806       -1.91029472736654        1.05533438600945
H            3.77731069555359       -0.82095347177812        2.43036027341156
H            3.62768217374410        3.12608615308714       -1.27107210018762
H           -0.39448542707832        2.96205821068995       -2.83933908011829
H           -2.46469197516310        1.68562574716570       -1.63541041779841
H           -1.91168987090909        0.93123522829643       -3.13159840308512
H           -2.05554302724750       -0.03927936352082       -1.64999665212696
H           -0.54792969050232       -2.46831789866058        1.23295263175825
H           -0.90135315594553       -0.95601062523608        2.11653962845835
H           -0.84558899004948       -0.95587832957522        0.36901164922486
H           -3.54226680763519       -0.63221535719594        2.59801156287236
H           -4.56518337792584       -1.01721080392138        1.20076287891151
H           -3.24963358638111        0.18251260131685        1.07117876670754
H           -3.99466401200543       -3.17973591947963        0.68433051283753
H           -2.38179801856361       -3.72869855813550        0.53634527350618

          :  Hamiltonian                  GFN1-xTB          :
         :: total energy             -57.869332085195 Eh    ::
         :: gradient norm              0.000906276945 Eh/a0 ::
         :: HOMO-LUMO gap              2.294242785542 eV    ::
         :: SCC energy               -58.485961316556 Eh    ::
         :: -> Gsolv                  -0.116884544359 Eh    ::
         :: repulsion energy           0.633442468243 Eh    ::

    * Orbital Energies and Occupations

         #    Occupation            Energy/Eh            Energy/eV
      -------------------------------------------------------------
         1        2.0000           -0.8680387             -23.6205
       ...           ...                  ...                  ...
        35        2.0000           -0.5510987             -14.9962
        36        2.0000           -0.5460044             -14.8575
        37        2.0000           -0.5418192             -14.7436
        38        2.0000           -0.5401760             -14.6989
        39        2.0000           -0.5353763             -14.5683
        40        2.0000           -0.5265036             -14.3269
        41        2.0000           -0.5188545             -14.1187
        42        2.0000           -0.5028745             -13.6839
        43        2.0000           -0.4941681             -13.4470
        44        2.0000           -0.4932870             -13.4230
        45        2.0000           -0.4689769             -12.7615
        46        2.0000           -0.4585378             -12.4774
        47        2.0000           -0.4372916             -11.8993 (HOMO)
        48                         -0.3529797              -9.6051 (LUMO)
        49                         -0.3303109              -8.9882
        50                         -0.2882011              -7.8424
        51                         -0.2473939              -6.7319
        52                         -0.1736919              -4.7264
        53                         -0.1709328              -4.6513
        54                         -0.1647734              -4.4837
        55                         -0.1525057              -4.1499
        56                         -0.1450665              -3.9475
        57                         -0.1412406              -3.8434
        58                         -0.1200131              -3.2657
       ...                                ...                  ...
       100                          0.7191224              19.5683
      -------------------------------------------------------------
                  HL-Gap            0.0843119 Eh            2.2942 eV

Wiberg/Mayer (AO) data.
largest (>0.10) Wiberg bond orders for each atom

     #   Z sym  total        # sym  WBO       # sym  WBO       # sym  WBO
 ---------------------------------------------------------------------------
     1   6 C    3.868 --    18 H    0.986    19 H    0.979    20 H    0.979
                             2 O    0.893
     2   8 O    2.215 --     3 C    1.130     1 C    0.893     4 O    0.133
     3   6 C    3.850 --     4 O    1.633     2 O    1.130     5 C    1.003
     4   8 O    1.930 --     3 C    1.633     2 O    0.133
     5   6 C    3.963 --     6 C    1.509    17 N    1.167     3 C    1.003
     6   6 C    3.921 --     5 C    1.509     7 O    1.110     8 C    1.059
     7   8 O    2.087 --     6 C    1.110    21 H    0.805
     8   6 C    3.911 --     9 O    1.581    10 N    1.139     6 C    1.059
     9   8 O    1.905 --     8 C    1.581    10 N    0.134
    10   7 N    3.463 --    11 C    1.167     8 C    1.139    22 H    0.878
                             9 O    0.134
    11   6 C    3.929 --    17 N    1.581    10 N    1.167    12 C    1.026
    12   6 C    3.989 --    11 C    1.026    25 H    0.983    24 H    0.967
                            23 H    0.962
    13   6 C    3.856 --    16 N    1.623    14 C    1.079    15 C    1.063
    14   6 C    3.978 --    13 C    1.079    26 H    0.972    27 H    0.955
                            28 H    0.899
    15   6 C    3.983 --    13 C    1.063    30 H    0.976    31 H    0.955
                            29 H    0.933
    16   7 N    3.504 --    13 C    1.623    32 H    0.875    33 H    0.874
    17   7 N    3.057 --    11 C    1.581     5 C    1.167
    18   1 H    1.010 --     1 C    0.986
    19   1 H    1.007 --     1 C    0.979
    20   1 H    1.006 --     1 C    0.979
    21   1 H    0.844 --     7 O    0.805
    22   1 H    0.916 --    10 N    0.878
    23   1 H    0.996 --    12 C    0.962
    24   1 H    0.994 --    12 C    0.967
    25   1 H    1.004 --    12 C    0.983
    26   1 H    1.001 --    14 C    0.972
    27   1 H    0.998 --    14 C    0.955
    28   1 H    1.031 --    14 C    0.899
    29   1 H    0.989 --    15 C    0.933
    30   1 H    0.990 --    15 C    0.976
    31   1 H    0.993 --    15 C    0.955
    32   1 H    0.905 --    16 N    0.875
    33   1 H    0.905 --    16 N    0.874
 ---------------------------------------------------------------------------

           -------------------------------------------------
          | TOTAL ENERGY              -57.869332085195 Eh   |
          | GRADIENT NORM               0.000906276945 Eh/α |
          | HOMO-LUMO GAP               2.294242785542 eV   |
           -------------------------------------------------

 * finished run on 2023/06/20 at 15:08:10.375
