   * xtb version 6.5.1 (579679a) compiled by 'ehlert@majestix' on 2022-07-11
          program call               : /lustre/hpc/kemi/ree/PhD/git/ReactivityQM/dep/xtb-6.5.1/bin/xtb --gfn 1 /lustre/hpc/kemi/ree/PhD/git/ReactivityQM/calculations/R02oxygendeprot/reac01prodE12/conf04/R02oxygendeprot_reac01prodE12_conf04_gfn1.xyz --opt --vfukui --chrg -2 --uhf 0 --alpb DMSO

   ID    Z sym.   atoms
    1    6 C      1, 3, 5, 6, 8, 9, 12-15, 17, 19, 22, 23
    2    8 O      2, 4, 7, 10, 18, 24
    3    7 N      11, 16, 20, 21, 25
    4    1 H      26-42

      * Solvation model:               ALPB
        Solvent                        DMSO
        Solvent mass                       7.8130E+01 g/mol
          :  Hamiltonian                  GFN1-xTB          :
 * total energy  :   -83.6008857 Eh     change       -0.1645674E-08 Eh
 * total energy  :   -83.6164682 Eh     change       -0.1558256E-01 Eh
 * total energy  :   -83.6231961 Eh     change       -0.6727858E-02 Eh
 * total energy  :   -83.6246695 Eh     change       -0.1473436E-02 Eh
 * total energy  :   -83.6256892 Eh     change       -0.1019698E-02 Eh
 * total energy  :   -83.6262142 Eh     change       -0.5249862E-03 Eh
 * total energy  :   -83.6266326 Eh     change       -0.4184306E-03 Eh
 * total energy  :   -83.6268622 Eh     change       -0.2295671E-03 Eh
 * total energy  :   -83.6270343 Eh     change       -0.1720746E-03 Eh
 * total energy  :   -83.6272185 Eh     change       -0.1842306E-03 Eh
 * total energy  :   -83.6286311 Eh     change       -0.9485549E-05 Eh
 * total energy  :   -83.6286378 Eh     change       -0.6683495E-05 Eh
 * total energy  :   -83.6286431 Eh     change       -0.5322234E-05 Eh
 * total energy  :   -83.6286485 Eh     change       -0.5402727E-05 Eh
 * total energy  :   -83.6286548 Eh     change       -0.6307742E-05 Eh
 * total energy  :   -83.6286620 Eh     change       -0.7171987E-05 Eh
 * total energy  :   -83.6286693 Eh     change       -0.7381256E-05 Eh
 * total energy  :   -83.6286761 Eh     change       -0.6743518E-05 Eh
 * total energy  :   -83.6286789 Eh     change       -0.2848325E-05 Eh
   *** GEOMETRY OPTIMIZATION CONVERGED AFTER 44 ITERATIONS ***

 final structure:
================
42
 xtb: 6.5.1 (579679a)
C           -6.23792617981279        0.10389674623781        2.14364240862386
O           -5.21476965914080        0.45830551350346        1.23824919301321
C           -4.08793771347842       -0.35458514550042        1.26903964080631
O           -4.06301367430265       -1.29631320979194        2.07821556002542
C           -3.06572324021251       -0.00912391506036        0.34243648536280
C           -3.10699892357140        1.06850167985550       -0.58150095982164
O           -4.00914315039969        1.93324434855332       -0.64053055933124
C           -1.95930641364334        1.12180340815862       -1.66368935594234
C           -1.63767588032701        2.63387531167496       -1.92925320561789
O           -2.19410408712425        0.42090455967423       -2.73927093127916
N           -0.68213464868127        0.60647242634813       -0.92332477867855
C           -0.87819989909136       -0.56920458295742       -0.22751002822500
C            0.30058815271999       -1.53729191075695       -0.17901195066416
C            0.36812221255381       -2.29548046842182       -1.51275616784014
C            0.14824646840582       -2.50978695986782        0.99454102910712
N            1.52481774961608       -0.73679574925885        0.00141766861835
C            2.76486708731964       -1.23653009650095        0.05322176510074
O            3.07545102268749       -2.41831785536100       -0.02706468587341
C            3.77170399431446       -0.15062886729956        0.23019538949353
N            3.52037890923556        1.11927265241213        0.34639426992625
N            4.72480463545671        1.74928785129409        0.47795244200158
C            5.63123646835667        0.82396996137728        0.43246548285137
C            7.09824503851344        0.99130604798243        0.53108763067391
O            5.09630221819104       -0.39757287818125        0.27903141687722
N           -1.94875977339598       -0.88490691658720        0.39332727194019
H           -6.61153402275136       -0.90928936929278        1.94940453852087
H           -7.05286015014778        0.81729942619973        2.01194086291029
H           -5.88658556466749        0.14642136228641        3.18201564992039
H           -0.83597672410254        2.70438877131815       -2.66292704595979
H           -1.33620924584388        3.14079583114626       -1.01252364245770
H           -2.52866219256642        3.11554831746352       -2.33238877747697
H            0.06074556068950        0.53181388294516       -1.60779905483983
H           -0.55352864858687       -2.86180636697558       -1.64651437843976
H            1.20944887052214       -2.98558127078443       -1.52836389109516
H            0.47079815251776       -1.59088029174736       -2.33791181541885
H            0.93393379882223       -3.26278705633805        0.97981289665394
H            0.19345131267367       -1.96497669026082        1.93742164400562
H           -0.82219330664036       -3.00191401434063        0.92417374877491
H            1.41895748792161        0.26633506772483        0.08678029921257
H            7.47508572030014        0.47663767025732        1.41472747381142
H            7.34180341310377        2.04848351280732        0.59738288046537
H            7.58425282456580        0.55828626606704       -0.34253641973417

          :  Hamiltonian                  GFN1-xTB          :
         :: total energy             -83.628678935355 Eh    ::
         :: gradient norm              0.000274831992 Eh/a0 ::
         :: HOMO-LUMO gap              0.244219600787 eV    ::
         :: SCC energy               -84.366673022600 Eh    ::
         :: -> Gsolv                  -0.300977101791 Eh    ::
         :: repulsion energy           0.763467757644 Eh    ::

    * Orbital Energies and Occupations

         #    Occupation            Energy/Eh            Energy/eV
      -------------------------------------------------------------
         1        2.0000           -0.8513029             -23.1651
       ...           ...                  ...                  ...
        56        2.0000           -0.4422778             -12.0350
        57        2.0000           -0.4376897             -11.9101
        58        2.0000           -0.4349242             -11.8349
        59        2.0000           -0.4267648             -11.6129
        60        2.0000           -0.4240191             -11.5381
        61        2.0000           -0.4201711             -11.4334
        62        2.0000           -0.3994462             -10.8695
        63        2.0000           -0.3936761             -10.7125
        64        2.0000           -0.3702402             -10.0747
        65        2.0000           -0.3543589              -9.6426
        66        2.0000           -0.3307568              -9.0003
        67        2.0000           -0.3096363              -8.4256
        68        1.9824           -0.3018552              -8.2139 (HOMO)
        69        0.0176           -0.2928803              -7.9697 (LUMO)
        70                         -0.2462957              -6.7020
        71                         -0.2016138              -5.4862
        72                         -0.1897895              -5.1644
        73                         -0.1806217              -4.9150
        74                         -0.1379103              -3.7527
        75                         -0.1087244              -2.9585
        76                         -0.0977521              -2.6600
        77                         -0.0965207              -2.6265
        78                         -0.0860220              -2.3408
        79                         -0.0725214              -1.9734
       ...                                ...                  ...
       134                          0.7343524              19.9827
      -------------------------------------------------------------
                  HL-Gap            0.0089749 Eh            0.2442 eV

Wiberg/Mayer (AO) data.
largest (>0.10) Wiberg bond orders for each atom

     #   Z sym  total        # sym  WBO       # sym  WBO       # sym  WBO
 ---------------------------------------------------------------------------
     1   6 C    3.919 --    27 H    0.987    26 H    0.980    28 H    0.980
                             2 O    0.949
     2   8 O    2.105 --     3 C    0.973     1 C    0.949
     3   6 C    3.852 --     4 O    1.493     5 C    1.246     2 O    0.973
     4   8 O    1.791 --     3 C    1.493
     5   6 C    3.881 --     6 C    1.272     3 C    1.246    25 N    1.048
     6   6 C    3.888 --     7 O    1.530     5 C    1.272     8 C    0.881
     7   8 O    1.810 --     6 C    1.530
     8   6 C    3.915 --    10 O    1.221     9 C    0.938     6 C    0.881
                            11 N    0.777
     9   6 C    3.985 --    30 H    0.991    29 H    0.989    31 H    0.986
                             8 C    0.938
    10   8 O    1.494 --     8 C    1.221
    11   7 N    3.166 --    12 C    1.135    32 H    0.935     8 C    0.777
                            25 N    0.145
    12   6 C    3.954 --    25 N    1.675    11 N    1.135    13 C    0.962
    13   6 C    3.915 --    15 C    0.994    14 C    0.984    12 C    0.962
                            16 N    0.902
    14   6 C    3.993 --    33 H    0.986    13 C    0.984    35 H    0.984
                            34 H    0.983
    15   6 C    3.995 --    13 C    0.994    37 H    0.987    36 H    0.985
                            38 H    0.983
    16   7 N    3.377 --    17 C    1.296    13 C    0.902    39 H    0.896
                            18 O    0.186
    17   6 C    3.918 --    18 O    1.559    16 N    1.296    19 C    0.983
    18   8 O    1.876 --    17 C    1.559    16 N    0.186
    19   6 C    3.859 --    20 N    1.611    24 O    1.058    17 C    0.983
    20   7 N    3.000 --    19 C    1.611    21 N    1.189
    21   7 N    2.980 --    22 C    1.617    20 N    1.189
    22   6 C    3.872 --    21 N    1.617    24 O    1.079    23 C    1.030
    23   6 C    3.988 --    22 C    1.030    41 H    0.983    42 H    0.966
                            40 H    0.964
    24   8 O    2.318 --    22 C    1.079    19 C    1.058
    25   7 N    3.006 --    12 C    1.675     5 C    1.048    11 N    0.145
    26   1 H    1.021 --     1 C    0.980
    27   1 H    1.020 --     1 C    0.987
    28   1 H    1.021 --     1 C    0.980
    29   1 H    1.018 --     9 C    0.989
    30   1 H    1.017 --     9 C    0.991
    31   1 H    1.027 --     9 C    0.986
    32   1 H    0.985 --    11 N    0.935
    33   1 H    1.008 --    14 C    0.986
    34   1 H    1.013 --    14 C    0.983
    35   1 H    1.009 --    14 C    0.984
    36   1 H    1.013 --    15 C    0.985
    37   1 H    1.012 --    15 C    0.987
    38   1 H    1.026 --    15 C    0.983
    39   1 H    0.970 --    16 N    0.896
    40   1 H    0.998 --    23 C    0.964
    41   1 H    1.000 --    23 C    0.983
    42   1 H    0.998 --    23 C    0.966
 ---------------------------------------------------------------------------

           -------------------------------------------------
          | TOTAL ENERGY              -83.628678935355 Eh   |
          | GRADIENT NORM               0.000274831992 Eh/α |
          | HOMO-LUMO GAP               0.244219600787 eV   |
           -------------------------------------------------

 * finished run on 2023/06/21 at 17:14:29.517
