                         Program Version 5.0.1 -  RELEASE  -
|  1> # ORCA input file
|  2> ! SP r2SCAN-3c CPCM
|  3>
|  4> %maxcore 1875.0
|  5> %pal nprocs 4 end
|  6> %cpcm smd true SMDsolvent "DMSO" end
|  7>
|  8> *xyz 0 1
|  9> C       2.415373    1.632828    4.016846
| 10> O       2.895732    0.867778    2.918556
| 11> C       1.992909    0.580360    1.956297
| 12> O       0.829462    0.971846    2.041615
| 13> C       2.507507   -0.211232    0.850884
| 14> N       1.533410   -0.478398   -0.087690
| 15> C       1.770779   -1.163708   -1.143644
| 16> C       0.625467   -1.410650   -2.116101
| 17> C       0.908769   -0.797245   -3.491582
| 18> C       0.299736   -2.903977   -2.229203
| 19> N      -0.489924   -0.707899   -1.483401
| 20> C      -1.750918   -0.610273   -1.876834
| 21> O      -2.277984   -1.071174   -2.871127
| 22> C      -2.523191    0.210770   -0.863046
| 23> N      -3.771625    0.567836   -0.834321
| 24> N      -3.899565    1.288758    0.301991
| 25> C      -5.189069    1.836148    0.659251
| 26> C      -2.744044    1.350969    0.932170
| 27> C      -2.362766    2.008745    2.192405
| 28> O      -1.868976    0.681813    0.216314
| 29> N       3.018343   -1.675247   -1.404384
| 30> C       4.093586   -1.491255   -0.562311
| 31> O       5.180556   -1.973389   -0.859222
| 32> C       3.836792   -0.683641    0.697920
| 33> O       4.779870   -0.497283    1.483474
| 34> H       3.251897    1.771253    4.701212
| 35> H       2.047499    2.604810    3.676403
| 36> H       1.601672    1.106966    4.524431
| 37> H       1.121217    0.266039   -3.389464
| 38> H       1.766144   -1.291192   -3.944498
| 39> H       0.042697   -0.927826   -4.138836
| 40> H      -0.559568   -3.046952   -2.882698
| 41> H       1.153436   -3.435383   -2.645598
| 42> H       0.071354   -3.310959   -1.245302
| 43> H      -0.185862   -0.263191   -0.606722
| 44> H      -5.627600    2.289493   -0.227358
| 45> H      -5.826553    1.028496    1.017321
| 46> H      -5.046851    2.577588    1.439943
| 47> H      -2.579604    3.075491    2.141352
| 48> H      -2.930378    1.588883    3.022692
| 49> H      -1.294144    1.850652    2.355594
| 50> H       3.184420   -2.206643   -2.243332
| 51> **                         ****END OF INPUT****

CARTESIAN COORDINATES (ANGSTROEM)
---------------------------------
  C      2.415373    1.632828    4.016846
  O      2.895732    0.867778    2.918556
  C      1.992909    0.580360    1.956297
  O      0.829462    0.971846    2.041615
  C      2.507507   -0.211232    0.850884
  N      1.533410   -0.478398   -0.087690
  C      1.770779   -1.163708   -1.143644
  C      0.625467   -1.410650   -2.116101
  C      0.908769   -0.797245   -3.491582
  C      0.299736   -2.903977   -2.229203
  N     -0.489924   -0.707899   -1.483401
  C     -1.750918   -0.610273   -1.876834
  O     -2.277984   -1.071174   -2.871127
  C     -2.523191    0.210770   -0.863046
  N     -3.771625    0.567836   -0.834321
  N     -3.899565    1.288758    0.301991
  C     -5.189069    1.836148    0.659251
  C     -2.744044    1.350969    0.932170
  C     -2.362766    2.008745    2.192405
  O     -1.868976    0.681813    0.216314
  N      3.018343   -1.675247   -1.404384
  C      4.093586   -1.491255   -0.562311
  O      5.180556   -1.973389   -0.859222
  C      3.836792   -0.683641    0.697920
  O      4.779870   -0.497283    1.483474
  H      3.251897    1.771253    4.701212
  H      2.047499    2.604810    3.676403
  H      1.601672    1.106966    4.524431
  H      1.121217    0.266039   -3.389464
  H      1.766144   -1.291192   -3.944498
  H      0.042697   -0.927826   -4.138836
  H     -0.559568   -3.046952   -2.882698
  H      1.153436   -3.435383   -2.645598
  H      0.071354   -3.310959   -1.245302
  H     -0.185862   -0.263191   -0.606722
  H     -5.627600    2.289493   -0.227358
  H     -5.826553    1.028496    1.017321
  H     -5.046851    2.577588    1.439943
  H     -2.579604    3.075491    2.141352
  H     -2.930378    1.588883    3.022692
  H     -1.294144    1.850652    2.355594
  H      3.184420   -2.206643   -2.243332

 Total Charge           Charge          ....    0
 Multiplicity           Mult            ....    1
 Number of Electrons    NEL             ....  184
 Basis Dimension        Dim             ....  615

ORBITAL ENERGIES
----------------

  NO   OCC          E(Eh)            E(eV)
   0   2.0000     -19.103063      -519.8208
   1   2.0000     -18.975570      -516.3515
   2   2.0000     -18.937455      -515.3144
   3   2.0000     -18.911968      -514.6208
   4   2.0000     -18.909462      -514.5526
   5   2.0000     -18.883354      -513.8422
   6   2.0000     -14.316618      -389.5750
   7   2.0000     -14.248996      -387.7349
   8   2.0000     -14.205942      -386.5633
   9   2.0000     -14.194287      -386.2462
  10   2.0000     -14.149168      -385.0184
  11   2.0000     -10.208254      -277.7807
  12   2.0000     -10.180310      -277.0203
  13   2.0000     -10.164507      -276.5903
  14   2.0000     -10.132211      -275.7115
  15   2.0000     -10.121006      -275.4066
  16   2.0000     -10.100869      -274.8586
  17   2.0000     -10.099981      -274.8344
  18   2.0000     -10.088971      -274.5349
  19   2.0000     -10.079224      -274.2696
  20   2.0000     -10.065277      -273.8901
  21   2.0000     -10.062058      -273.8025
  22   2.0000     -10.042021      -273.2573
  23   2.0000     -10.022161      -272.7169
  24   2.0000     -10.022028      -272.7132
  25   2.0000      -1.209111       -32.9016
  26   2.0000      -1.049443       -28.5568
  27   2.0000      -1.046797       -28.4848
  28   2.0000      -1.027457       -27.9585
  29   2.0000      -1.004262       -27.3274
  30   2.0000      -0.954455       -25.9720
  31   2.0000      -0.946265       -25.7492
  32   2.0000      -0.944397       -25.6983
  33   2.0000      -0.913972       -24.8704
  34   2.0000      -0.893982       -24.3265
  35   2.0000      -0.855228       -23.2719
  36   2.0000      -0.787120       -21.4186
  37   2.0000      -0.768771       -20.9193
  38   2.0000      -0.724784       -19.7224
  39   2.0000      -0.716706       -19.5026
  40   2.0000      -0.699873       -19.0445
  41   2.0000      -0.674721       -18.3601
  42   2.0000      -0.661409       -17.9979
  43   2.0000      -0.636414       -17.3177
  44   2.0000      -0.632125       -17.2010
  45   2.0000      -0.616409       -16.7733
  46   2.0000      -0.597819       -16.2675
  47   2.0000      -0.564279       -15.3548
  48   2.0000      -0.544305       -14.8113
  49   2.0000      -0.526800       -14.3349
  50   2.0000      -0.525840       -14.3088
  51   2.0000      -0.511376       -13.9152
  52   2.0000      -0.495204       -13.4752
  53   2.0000      -0.477774       -13.0009
  54   2.0000      -0.465001       -12.6533
  55   2.0000      -0.462293       -12.5796
  56   2.0000      -0.448743       -12.2109
  57   2.0000      -0.442493       -12.0408
  58   2.0000      -0.438113       -11.9217
  59   2.0000      -0.436169       -11.8688
  60   2.0000      -0.429112       -11.6767
  61   2.0000      -0.422712       -11.5026
  62   2.0000      -0.418235       -11.3808
  63   2.0000      -0.416016       -11.3204
  64   2.0000      -0.405427       -11.0322
  65   2.0000      -0.403849       -10.9893
  66   2.0000      -0.395455       -10.7609
  67   2.0000      -0.393386       -10.7046
  68   2.0000      -0.383083       -10.4242
  69   2.0000      -0.383070       -10.4239
  70   2.0000      -0.370652       -10.0860
  71   2.0000      -0.363460        -9.8902
  72   2.0000      -0.356714        -9.7067
  73   2.0000      -0.356317        -9.6959
  74   2.0000      -0.354030        -9.6337
  75   2.0000      -0.351117        -9.5544
  76   2.0000      -0.335210        -9.1215
  77   2.0000      -0.330997        -9.0069
  78   2.0000      -0.326804        -8.8928
  79   2.0000      -0.317366        -8.6360
  80   2.0000      -0.312432        -8.5017
  81   2.0000      -0.303947        -8.2708
  82   2.0000      -0.296248        -8.0613
  83   2.0000      -0.258983        -7.0473
  84   2.0000      -0.257632        -7.0105
  85   2.0000      -0.251280        -6.8377
  86   2.0000      -0.248962        -6.7746
  87   2.0000      -0.244690        -6.6584
  88   2.0000      -0.232928        -6.3383
  89   2.0000      -0.216853        -5.9009
  90   2.0000      -0.179004        -4.8709
  91   2.0000      -0.162959        -4.4343
  92   0.0000      -0.102903        -2.8001
  93   0.0000      -0.079653        -2.1675
  94   0.0000      -0.056931        -1.5492
  95   0.0000      -0.012895        -0.3509
  96   0.0000       0.034029         0.9260

MULLIKEN ATOMIC CHARGES
-----------------------
   0 C :   -0.328102
   1 O :   -0.152285
   2 C :    0.209394
   3 O :   -0.459133
   4 C :   -0.086337
   5 N :   -0.203751
   6 C :    0.362286
   7 C :   -0.272519
   8 C :   -0.574326
   9 C :   -0.575662
  10 N :    0.058685
  11 C :   -0.116104
  12 O :   -0.435443
  13 C :    0.452724
  14 N :   -0.375379
  15 N :    0.447427
  16 C :   -0.391215
  17 C :    0.301588
  18 C :   -0.637085
  19 O :   -0.001262
  20 N :   -0.024152
  21 C :    0.052725
  22 O :   -0.390236
  23 C :   -0.095410
  24 O :   -0.369463
  25 H :    0.166579
  26 H :    0.163944
  27 H :    0.163820
  28 H :    0.184352
  29 H :    0.185948
  30 H :    0.194452
  31 H :    0.195362
  32 H :    0.185808
  33 H :    0.184514
  34 H :    0.348214
  35 H :    0.211280
  36 H :    0.214432
  37 H :    0.207685
  38 H :    0.226947
  39 H :    0.229164
  40 H :    0.236357
  41 H :    0.304178
Sum of atomic charges:    0.0000000

LOEWDIN ATOMIC CHARGES
----------------------
   0 C :   -0.053165
   1 O :   -0.596470
   2 C :    0.395113
   3 O :   -0.496981
   4 C :    0.130531
   5 N :   -0.623136
   6 C :    0.334319
   7 C :    0.109383
   8 C :   -0.347237
   9 C :   -0.347102
  10 N :   -0.588071
  11 C :    0.380132
  12 O :   -0.447696
  13 C :    0.476731
  14 N :   -0.199905
  15 N :   -0.509302
  16 C :   -0.021652
  17 C :    0.482938
  18 C :   -0.299467
  19 O :   -0.347010
  20 N :   -0.471624
  21 C :    0.360035
  22 O :   -0.468504
  23 C :    0.231798
  24 O :   -0.559672
  25 H :    0.178979
  26 H :    0.174433
  27 H :    0.174610
  28 H :    0.174046
  29 H :    0.171356
  30 H :    0.176222
  31 H :    0.176651
  32 H :    0.171412
  33 H :    0.174220
  34 H :    0.325361
  35 H :    0.216213
  36 H :    0.213541
  37 H :    0.214898
  38 H :    0.208910
  39 H :    0.209664
  40 H :    0.215341
  41 H :    0.300155

  Mayer bond orders larger than 0.100000
B(  0-C ,  1-O ) :   0.8455 B(  0-C , 25-H ) :   0.9681 B(  0-C , 26-H ) :   0.9618
B(  0-C , 27-H ) :   0.9618 B(  1-O ,  2-C ) :   1.1325 B(  2-C ,  3-O ) :   1.7777
B(  2-C ,  4-C ) :   1.1619 B(  4-C ,  5-N ) :   0.9961 B(  4-C , 23-C ) :   0.9461
B(  4-C , 24-O ) :  -0.1034 B(  5-N ,  6-C ) :   1.7100 B(  5-N , 34-H ) :   0.1331
B(  6-C ,  7-C ) :   0.7615 B(  6-C , 10-N ) :  -0.1309 B(  6-C , 20-N ) :   1.0702
B(  7-C ,  8-C ) :   0.9318 B(  7-C ,  9-C ) :   0.9265 B(  7-C , 10-N ) :   0.9550
B(  8-C , 28-H ) :   0.9662 B(  8-C , 29-H ) :   0.9585 B(  8-C , 30-H ) :   0.9604
B(  9-C , 31-H ) :   0.9601 B(  9-C , 32-H ) :   0.9583 B(  9-C , 33-H ) :   0.9670
B( 10-N , 11-C ) :   1.2265 B( 10-N , 34-H ) :   0.7483 B( 11-C , 12-O ) :   1.9112
B( 11-C , 13-C ) :   0.7945 B( 13-C , 14-N ) :   1.7129 B( 13-C , 17-C ) :   0.1082
B( 13-C , 19-O ) :   1.0977 B( 14-N , 15-N ) :   1.3138 B( 14-N , 17-C ) :   0.1498
B( 15-N , 16-C ) :   0.9092 B( 15-N , 17-C ) :   1.4882 B( 16-C , 35-H ) :   0.9275
B( 16-C , 36-H ) :   0.9170 B( 16-C , 37-H ) :   0.9347 B( 17-C , 18-C ) :   0.8509
B( 17-C , 19-O ) :   1.1365 B( 18-C , 38-H ) :   0.9296 B( 18-C , 39-H ) :   0.9262
B( 18-C , 40-H ) :   0.9539 B( 20-N , 21-C ) :   0.9873 B( 20-N , 41-H ) :   0.8837
B( 21-C , 22-O ) :   2.0832 B( 21-C , 23-C ) :   0.8784 B( 23-C , 24-O ) :   1.9613

Dispersion correction           -0.019066915
FINAL SINGLE POINT ENERGY     -1268.632857749534

DIPOLE MOMENT
-------------
                                X             Y             Z
Electronic contribution:      4.99420      -2.12450      -1.33785
Nuclear contribution   :    -15.42862       5.55770       2.05139
                        -----------------------------------------
Total Dipole Moment    :    -10.43442       3.43320       0.71354
                        -----------------------------------------
Magnitude (a.u.)       :     11.00787
Magnitude (Debye)      :     27.97977

Rotational constants in cm-1:     0.010021     0.005269     0.003539
Rotational constants in MHz :   300.415010   157.974518   106.106472

                             ****ORCA TERMINATED NORMALLY****
TOTAL RUN TIME: 0 days 0 hours 2 minutes 16 seconds 497 msec
