   * xtb version 6.5.1 (579679a) compiled by 'ehlert@majestix' on 2022-07-11
          program call               : /lustre/hpc/kemi/ree/PhD/git/ReactivityQM/dep/xtb-6.5.1/bin/xtb --gfn 1 /lustre/hpc/kemi/ree/PhD/git/ReactivityQM/calculations/R02methylcation/reac01prodN07/conf05/R02methylcation_reac01prodN07_conf05_gfn1.xyz --opt --vfukui --chrg 0 --uhf 0 --alpb DMSO

   ID    Z sym.   atoms
    1    6 C      1, 3, 5, 7-10, 12, 14, 17-19, 22, 24
    2    8 O      2, 4, 13, 20, 23, 25
    3    7 N      6, 11, 15, 16, 21
    4    1 H      26-42

      * Solvation model:               ALPB
        Solvent                        DMSO
        Solvent mass                       7.8130E+01 g/mol
          :  Hamiltonian                  GFN1-xTB          :
 * total energy  :   -82.9533002 Eh     change       -0.1170406E-08 Eh
 * total energy  :   -82.9700419 Eh     change       -0.1674166E-01 Eh
 * total energy  :   -82.9767683 Eh     change       -0.6726410E-02 Eh
 * total energy  :   -82.9776803 Eh     change       -0.9120035E-03 Eh
 * total energy  :   -82.9782920 Eh     change       -0.6117325E-03 Eh
 * total energy  :   -82.9785443 Eh     change       -0.2522614E-03 Eh
 * total energy  :   -82.9788623 Eh     change       -0.3179655E-03 Eh
 * total energy  :   -82.9791764 Eh     change       -0.3141080E-03 Eh
 * total energy  :   -82.9794806 Eh     change       -0.3042788E-03 Eh
 * total energy  :   -82.9797975 Eh     change       -0.3168793E-03 Eh
 * total energy  :   -82.9839499 Eh     change       -0.7507444E-04 Eh
 * total energy  :   -82.9840036 Eh     change       -0.5373761E-04 Eh
 * total energy  :   -82.9840384 Eh     change       -0.3479911E-04 Eh
 * total energy  :   -82.9840494 Eh     change       -0.1096408E-04 Eh
 * total energy  :   -82.9840628 Eh     change       -0.1343005E-04 Eh
 * total energy  :   -82.9840782 Eh     change       -0.1535365E-04 Eh
 * total energy  :   -82.9840913 Eh     change       -0.1318547E-04 Eh
 * total energy  :   -82.9840983 Eh     change       -0.7000241E-05 Eh
 * total energy  :   -82.9841022 Eh     change       -0.3847735E-05 Eh
   *** GEOMETRY OPTIMIZATION CONVERGED AFTER 73 ITERATIONS ***

 final structure:
================
42
 xtb: 6.5.1 (579679a)
C            2.41537250761710        1.63282753257994        4.01684587735427
O            2.89573178956268        0.86777811573318        2.91855567602143
C            1.99290855401204        0.58035973395231        1.95629707016321
O            0.82946189697791        0.97184636339487        2.04161472855439
C            2.50750693620339       -0.21123232119610        0.85088423963443
N            1.53340950493153       -0.47839780174636       -0.08768970349592
C            1.77077855691641       -1.16370842127362       -1.14364409965151
C            0.62546707317422       -1.41064962096900       -2.11610052177824
C            0.90876923320129       -0.79724470831944       -3.49158239427079
C            0.29973613905620       -2.90397727065464       -2.22920279323742
N           -0.48992391670121       -0.70789853161337       -1.48340127165094
C           -1.75091757847035       -0.61027301050070       -1.87683410552327
O           -2.27798431169699       -1.07117437603078       -2.87112713585143
C           -2.52319055941041        0.21077044904829       -0.86304555574477
N           -3.77162483744661        0.56783586658639       -0.83432116151247
N           -3.89956549045544        1.28875783137325        0.30199120896668
C           -5.18906918904143        1.83614781541509        0.65925055356171
C           -2.74404446898868        1.35096890799583        0.93217027007111
C           -2.36276588475202        2.00874502351177        2.19240482737708
O           -1.86897601248622        0.68181252240824        0.21631398336728
N            3.01834276306272       -1.67524732818672       -1.40438431997384
C            4.09358550082802       -1.49125543481444       -0.56231063053739
O            5.18055633272614       -1.97338864508927       -0.85922168415727
C            3.83679174675297       -0.68364144418816        0.69792034347164
O            4.77987022737344       -0.49728326571176        1.48347391374348
H            3.25189710571279        1.77125255229628        4.70121239461126
H            2.04749905395921        2.60481033844649        3.67640334325645
H            1.60167164041574        1.10696567883869        4.52443084218482
H            1.12121745702180        0.26603908192945       -3.38946359795399
H            1.76614423813854       -1.29119167644673       -3.94449818208291
H            0.04269679385438       -0.92782607785594       -4.13883576553283
H           -0.55956828725676       -3.04695240847679       -2.88269812400739
H            1.15343634458770       -3.43538263502849       -2.64559755546032
H            0.07135437173833       -3.31095925886844       -1.24530211827076
H           -0.18586196823424       -0.26319122114102       -0.60672247023134
H           -5.62760023348786        2.28949337065317       -0.22735791171799
H           -5.82655305991024        1.02849634390358        1.01732053594298
H           -5.04685126158029        2.57758779910944        1.43994331238461
H           -2.57960447751613        3.07549062488496        2.14135245809221
H           -2.93037817851945        1.58888325634972        3.02269249160251
H           -1.29414429823391        1.85065172817715        2.35559388826610
H            3.18442024638055       -2.20664347846906       -2.24333185601576

          :  Hamiltonian                  GFN1-xTB          :
         :: total energy             -82.984102185992 Eh    ::
         :: gradient norm              0.000376976275 Eh/a0 ::
         :: HOMO-LUMO gap              0.772185022481 eV    ::
         :: SCC energy               -83.769625573757 Eh    ::
         :: -> Gsolv                  -0.096976303231 Eh    ::
         :: repulsion energy           0.811759364766 Eh    ::

    * Orbital Energies and Occupations

         #    Occupation            Energy/Eh            Energy/eV
      -------------------------------------------------------------
         1        2.0000           -0.9288392             -25.2750
       ...           ...                  ...                  ...
        55        2.0000           -0.5080547             -13.8249
        56        2.0000           -0.4991917             -13.5837
        57        2.0000           -0.4949972             -13.4696
        58        2.0000           -0.4924171             -13.3993
        59        2.0000           -0.4783406             -13.0163
        60        2.0000           -0.4713380             -12.8258
        61        2.0000           -0.4633215             -12.6076
        62        2.0000           -0.4591589             -12.4944
        63        2.0000           -0.4496717             -12.2362
        64        2.0000           -0.4464502             -12.1485
        65        2.0000           -0.4277554             -11.6398
        66        2.0000           -0.3874321             -10.5426
        67        2.0000           -0.3740472             -10.1783 (HOMO)
        68        0.0000           -0.3456699              -9.4062 (LUMO)
        69                         -0.3350825              -9.1181
        70                         -0.2781399              -7.5686
        71                         -0.2493840              -6.7861
        72                         -0.2277656              -6.1978
        73                         -0.2057194              -5.5979
        74                         -0.1790322              -4.8717
        75                         -0.1631901              -4.4406
        76                         -0.1339982              -3.6463
        77                         -0.1247426              -3.3944
        78                         -0.1245704              -3.3897
       ...                                ...                  ...
       134                          0.7552340              20.5510
      -------------------------------------------------------------
                  HL-Gap            0.0283773 Eh            0.7722 eV

Wiberg/Mayer (AO) data.
largest (>0.10) Wiberg bond orders for each atom

     #   Z sym  total        # sym  WBO       # sym  WBO       # sym  WBO
 ---------------------------------------------------------------------------
     1   6 C    3.894 --    26 H    0.987    27 H    0.981    28 H    0.980
                             2 O    0.920
     2   8 O    2.171 --     3 C    1.064     1 C    0.920     4 O    0.109
     3   6 C    3.850 --     4 O    1.553     5 C    1.117     2 O    1.064
     4   8 O    1.862 --     3 C    1.553     2 O    0.109
     5   6 C    3.910 --    24 C    1.266     6 N    1.146     3 C    1.117
                            25 O    0.128
     6   7 N    3.092 --     7 C    1.620     5 C    1.146
     7   6 C    3.935 --     6 N    1.620    21 N    1.110     8 C    0.973
     8   6 C    3.926 --     9 C    0.983    10 C    0.983     7 C    0.973
                            11 N    0.920
     9   6 C    3.988 --    29 H    0.985    30 H    0.984     8 C    0.983
                            31 H    0.982
    10   6 C    3.988 --    34 H    0.985    33 H    0.984     8 C    0.983
                            32 H    0.982
    11   7 N    3.411 --    12 C    1.334     8 C    0.920    35 H    0.830
                            13 O    0.208
    12   6 C    3.930 --    13 O    1.580    11 N    1.334    14 C    0.942
    13   8 O    1.909 --    12 C    1.580    11 N    0.208
    14   6 C    3.832 --    15 N    1.620    20 O    1.055    12 C    0.942
    15   7 N    2.975 --    14 C    1.620    16 N    1.140
    16   7 N    3.625 --    18 C    1.422    15 N    1.140    17 C    0.915
    17   6 C    3.892 --    38 H    0.981    36 H    0.972    37 H    0.966
                            16 N    0.915
    18   6 C    3.837 --    16 N    1.422    20 O    1.152    19 C    1.038
    19   6 C    3.957 --    18 C    1.038    41 H    0.962    39 H    0.948
                            40 H    0.947
    20   8 O    2.386 --    18 C    1.152    14 C    1.055
    21   7 N    3.425 --    22 C    1.146     7 C    1.110    42 H    0.895
                            23 O    0.133
    22   6 C    3.875 --    23 O    1.595    21 N    1.146    24 C    0.961
    23   8 O    1.874 --    22 C    1.595    21 N    0.133
    24   6 C    3.942 --    25 O    1.533     5 C    1.266    22 C    0.961
    25   8 O    1.838 --    24 C    1.533     5 C    0.128
    26   1 H    1.014 --     1 C    0.987
    27   1 H    1.012 --     1 C    0.981
    28   1 H    1.013 --     1 C    0.980
    29   1 H    1.002 --     9 C    0.985
    30   1 H    1.000 --     9 C    0.984
    31   1 H    1.004 --     9 C    0.982
    32   1 H    1.005 --    10 C    0.982
    33   1 H    1.000 --    10 C    0.984
    34   1 H    1.002 --    10 C    0.985
    35   1 H    0.959 --    11 N    0.830
    36   1 H    0.992 --    17 C    0.972
    37   1 H    0.991 --    17 C    0.966
    38   1 H    0.991 --    17 C    0.981
    39   1 H    0.989 --    19 C    0.948
    40   1 H    0.988 --    19 C    0.947
    41   1 H    1.009 --    19 C    0.962
    42   1 H    0.942 --    21 N    0.895
 ---------------------------------------------------------------------------

           -------------------------------------------------
          | TOTAL ENERGY              -82.984102185992 Eh   |
          | GRADIENT NORM               0.000376976275 Eh/α |
          | HOMO-LUMO GAP               0.772185022481 eV   |
           -------------------------------------------------

 * finished run on 2023/06/21 at 17:38:00.501
