   * xtb version 6.5.1 (579679a) compiled by 'ehlert@majestix' on 2022-07-11
          program call               : /lustre/hpc/kemi/ree/PhD/git/ReactivityQM/dep/xtb-6.5.1/bin/xtb --gfn 1 /lustre/hpc/kemi/ree/PhD/git/ReactivityQM/calculations/R02oxygendeprot/reac01prodN19/conf06/R02oxygendeprot_reac01prodN19_conf06_gfn1.xyz --opt --vfukui --chrg 0 --uhf 0 --alpb DMSO

   ID    Z sym.   atoms
    1    6 C      1, 3, 5, 7-10, 12, 14, 17, 18, 21, 23, 24
    2    8 O      2, 4, 13, 19, 22, 25
    3    7 N      6, 11, 15, 16, 20
    4    1 H      26-42

      * Solvation model:               ALPB
        Solvent                        DMSO
        Solvent mass                       7.8130E+01 g/mol
          :  Hamiltonian                  GFN1-xTB          :
 * total energy  :   -82.9729193 Eh     change       -0.3581135E-10 Eh
 * total energy  :   -82.9876657 Eh     change       -0.1474633E-01 Eh
 * total energy  :   -82.9928899 Eh     change       -0.5224281E-02 Eh
 * total energy  :   -82.9944091 Eh     change       -0.1519205E-02 Eh
 * total energy  :   -82.9955176 Eh     change       -0.1108428E-02 Eh
 * total energy  :   -82.9960937 Eh     change       -0.5761566E-03 Eh
 * total energy  :   -82.9964358 Eh     change       -0.3421206E-03 Eh
 * total energy  :   -82.9966122 Eh     change       -0.1763860E-03 Eh
 * total energy  :   -82.9966918 Eh     change       -0.7954071E-04 Eh
 * total energy  :   -82.9967409 Eh     change       -0.4917885E-04 Eh
 * total energy  :   -82.9971391 Eh     change       -0.7165866E-05 Eh
 * total energy  :   -82.9971476 Eh     change       -0.8492694E-05 Eh
 * total energy  :   -82.9971549 Eh     change       -0.7270056E-05 Eh
 * total energy  :   -82.9971626 Eh     change       -0.7729281E-05 Eh
 * total energy  :   -82.9971711 Eh     change       -0.8491512E-05 Eh
 * total energy  :   -82.9971790 Eh     change       -0.7893576E-05 Eh
 * total energy  :   -82.9971856 Eh     change       -0.6624699E-05 Eh
 * total energy  :   -82.9971911 Eh     change       -0.5419765E-05 Eh
 * total energy  :   -82.9971957 Eh     change       -0.4606030E-05 Eh
   *** GEOMETRY OPTIMIZATION CONVERGED AFTER 37 ITERATIONS ***

 final structure:
================
42
 xtb: 6.5.1 (579679a)
C           -4.90353370124128       -3.49548813128831        0.29311610326963
O           -3.87581680076796       -2.52077873414299        0.11318796340197
C           -4.16151078513701       -1.27613178680591        0.53682927086722
O           -5.22432231120050       -0.99611885744483        1.04541337125049
C           -3.04003302456521       -0.33858887794786        0.29521196774132
N           -1.94273091234174       -0.87907602836957       -0.28071086971852
C           -0.90566629877150       -0.15862931864974       -0.55725899298315
C            0.30424807535415       -0.74303795788864       -1.24698243369443
C            0.26421522735075       -0.33339422780032       -2.72759195757731
C            0.30977101508489       -2.26657605895843       -1.09013954339105
N            1.49265950477599       -0.17038401578349       -0.60195689758670
C            2.75558091171679       -0.42473816616719       -1.01816623056759
O            3.06267728719870       -1.05977676656411       -2.00900801368381
C            3.74273229386569        0.19849983913235       -0.10041523634159
N            3.46864392019641        0.85102771977772        0.98968113891989
N            4.65879398582605        1.24612098657601        1.52042875574333
C            5.58424214650110        0.80879274376631        0.71998417203234
C            7.04782117362168        0.97911360791498        0.85197397696200
O            5.06801431227798        0.13819311514532       -0.32010318545118
N           -0.91089954248736        1.18966851730623       -0.29020616755181
C           -1.93878284014169        1.80560898459855        0.28755917275697
O           -1.74427246035992        3.10148499152558        0.46201562078290
C           -2.72521187205540        3.94861686834816        1.07752677078061
C           -3.14145043114273        1.04507097814018        0.65125956647748
O           -4.10846822795251        1.59370769680444        1.19749227834892
H           -5.13816077546598       -3.60808920276308        1.35504649443092
H           -4.52048588920969       -4.43196852359792       -0.10758136402671
H           -5.80725672160070       -3.19704794933380       -0.24517839199966
H            1.08347174834024       -0.79791936072260       -3.27238731098204
H            0.34679622843944        0.74833754443887       -2.81435667144391
H           -0.68015706814624       -0.65496747965943       -3.16411832881203
H            0.37363894589930       -2.53009830537269       -0.03548490300308
H            1.16047120527319       -2.69127901295571       -1.61946593302418
H           -0.61191871894925       -2.67478552177497       -1.50188691255433
H            1.38341399001426        0.26821800272644        0.29955962719776
H            7.26954246263231        1.56074962876584        1.74338621748159
H            7.44287005984248        1.48995239051871       -0.02633056177542
H            7.53139432608231        0.00453982705076        0.92138830875539
H           -0.10990610028527        1.75409892420220       -0.53580793433222
H           -2.28247847941885        4.94436052941490        1.08318364095790
H           -3.64940845294533        3.95115425638889        0.49721060709856
H           -2.92852840610874        3.62155613145130        2.09863681524651

          :  Hamiltonian                  GFN1-xTB          :
         :: total energy             -82.997195659676 Eh    ::
         :: gradient norm              0.000383625134 Eh/a0 ::
         :: HOMO-LUMO gap              2.196599810447 eV    ::
         :: SCC energy               -83.775788174041 Eh    ::
         :: -> Gsolv                  -0.060339772025 Eh    ::
         :: repulsion energy           0.803354530804 Eh    ::

    * Orbital Energies and Occupations

         #    Occupation            Energy/Eh            Energy/eV
      -------------------------------------------------------------
         1        2.0000           -0.8660829             -23.5673
       ...           ...                  ...                  ...
        55        2.0000           -0.5075735             -13.8118
        56        2.0000           -0.5040134             -13.7149
        57        2.0000           -0.4955636             -13.4850
        58        2.0000           -0.4883133             -13.2877
        59        2.0000           -0.4853569             -13.2072
        60        2.0000           -0.4729800             -12.8704
        61        2.0000           -0.4718584             -12.8399
        62        2.0000           -0.4664758             -12.6935
        63        2.0000           -0.4640385             -12.6271
        64        2.0000           -0.4549249             -12.3791
        65        2.0000           -0.4514950             -12.2858
        66        2.0000           -0.4235825             -11.5263
        67        2.0000           -0.4147883             -11.2870 (HOMO)
        68                         -0.3340647              -9.0904 (LUMO)
        69                         -0.3144096              -8.5555
        70                         -0.2847284              -7.7479
        71                         -0.2590714              -7.0497
        72                         -0.2425143              -6.5991
        73                         -0.2024139              -5.5080
        74                         -0.1553966              -4.2286
        75                         -0.1440269              -3.9192
        76                         -0.1430956              -3.8938
        77                         -0.1344324              -3.6581
        78                         -0.1341677              -3.6509
       ...                                ...                  ...
       134                          0.7289205              19.8349
      -------------------------------------------------------------
                  HL-Gap            0.0807236 Eh            2.1966 eV

Wiberg/Mayer (AO) data.
largest (>0.10) Wiberg bond orders for each atom

     #   Z sym  total        # sym  WBO       # sym  WBO       # sym  WBO
 ---------------------------------------------------------------------------
     1   6 C    3.879 --    27 H    0.986    26 H    0.980    28 H    0.980
                             2 O    0.906
     2   8 O    2.178 --     3 C    1.083     1 C    0.906     4 O    0.127
     3   6 C    3.854 --     4 O    1.648     2 O    1.083     5 C    1.033
     4   8 O    1.916 --     3 C    1.648     2 O    0.127
     5   6 C    3.949 --     6 N    1.281    24 C    1.214     3 C    1.033
                            25 O    0.130
     6   7 N    3.044 --     7 C    1.544     5 C    1.281
     7   6 C    3.915 --     6 N    1.544    20 N    1.118     8 C    0.984
     8   6 C    3.932 --    10 C    0.990     7 C    0.984     9 C    0.977
                            11 N    0.921
     9   6 C    3.986 --    31 H    0.985    30 H    0.985    29 H    0.977
                             8 C    0.977
    10   6 C    3.989 --     8 C    0.990    32 H    0.985    34 H    0.983
                            33 H    0.982
    11   7 N    3.327 --    12 C    1.237     8 C    0.921    35 H    0.895
                            13 O    0.174
    12   6 C    3.915 --    13 O    1.605    11 N    1.237    14 C    0.990
    13   8 O    1.920 --    12 C    1.605    11 N    0.174
    14   6 C    3.876 --    15 N    1.608    19 O    1.065    12 C    0.990
    15   7 N    3.018 --    14 C    1.608    16 N    1.202
    16   7 N    2.981 --    17 C    1.602    15 N    1.202
    17   6 C    3.870 --    16 N    1.602    19 O    1.084    18 C    1.032
    18   6 C    3.986 --    17 C    1.032    36 H    0.982    37 H    0.963
                            38 H    0.963
    19   8 O    2.332 --    17 C    1.084    14 C    1.065
    20   7 N    3.529 --    21 C    1.320     7 C    1.118    39 H    0.877
    21   6 C    3.856 --    20 N    1.320    22 O    1.143    24 C    1.068
    22   8 O    2.226 --    21 C    1.143    23 C    0.876
    23   6 C    3.846 --    40 H    0.984    42 H    0.977    41 H    0.977
                            22 O    0.876
    24   6 C    3.950 --    25 O    1.513     5 C    1.214    21 C    1.068
    25   8 O    1.862 --    24 C    1.513     5 C    0.130
    26   1 H    1.008 --     1 C    0.980
    27   1 H    1.012 --     1 C    0.986
    28   1 H    1.009 --     1 C    0.980
    29   1 H    1.009 --     9 C    0.977
    30   1 H    1.001 --     9 C    0.985
    31   1 H    1.001 --     9 C    0.985
    32   1 H    1.004 --    10 C    0.985
    33   1 H    1.006 --    10 C    0.982
    34   1 H    1.009 --    10 C    0.983
    35   1 H    0.952 --    11 N    0.895
    36   1 H    0.998 --    18 C    0.982
    37   1 H    0.996 --    18 C    0.963
    38   1 H    0.996 --    18 C    0.963
    39   1 H    0.925 --    20 N    0.877
    40   1 H    1.009 --    23 C    0.984
    41   1 H    1.015 --    23 C    0.977
    42   1 H    1.015 --    23 C    0.977
 ---------------------------------------------------------------------------

           -------------------------------------------------
          | TOTAL ENERGY              -82.997195659676 Eh   |
          | GRADIENT NORM               0.000383625134 Eh/α |
          | HOMO-LUMO GAP               2.196599810447 eV   |
           -------------------------------------------------

 * finished run on 2023/06/21 at 17:40:09.874
