   * xtb version 6.5.1 (579679a) compiled by 'ehlert@majestix' on 2022-07-11
          program call               : /lustre/hpc/kemi/ree/PhD/git/ReactivityQM/dep/xtb-6.5.1/bin/xtb --gfn 1 /lustre/hpc/kemi/ree/PhD/git/ReactivityQM/calculations/R01/reac02prodE05/conf06/R01_reac02prodE05_conf06_gfn1.xyz --opt --vfukui --chrg -1 --uhf 0 --alpb DMSO

   ID    Z sym.   atoms
    1    6 C      1, 3, 5, 6, 8, 11-15
    2    8 O      2, 4, 7, 9
    3    7 N      10, 16, 17
    4    1 H      18-33

      * Solvation model:               ALPB
        Solvent                        DMSO
        Solvent mass                       7.8130E+01 g/mol
          :  Hamiltonian                  GFN1-xTB          :
 * total energy  :   -58.5506562 Eh     change       -0.2010836E-11 Eh
 * total energy  :   -58.5572839 Eh     change       -0.6627642E-02 Eh
 * total energy  :   -58.5590666 Eh     change       -0.1782687E-02 Eh
 * total energy  :   -58.5592947 Eh     change       -0.2280851E-03 Eh
 * total energy  :   -58.5594603 Eh     change       -0.1656821E-03 Eh
 * total energy  :   -58.5595065 Eh     change       -0.4611441E-04 Eh
 * total energy  :   -58.5595546 Eh     change       -0.4819285E-04 Eh
 * total energy  :   -58.5595815 Eh     change       -0.2681591E-04 Eh
 * total energy  :   -58.5595968 Eh     change       -0.1532371E-04 Eh
 * total energy  :   -58.5596064 Eh     change       -0.9567842E-05 Eh
 * total energy  :   -58.5596128 Eh     change       -0.6483962E-05 Eh
 * total energy  :   -58.5596203 Eh     change       -0.7431820E-05 Eh
 * total energy  :   -58.5596261 Eh     change       -0.5852044E-05 Eh
 * total energy  :   -58.5596312 Eh     change       -0.5083491E-05 Eh
 * total energy  :   -58.5596370 Eh     change       -0.5747952E-05 Eh
 * total energy  :   -58.5596429 Eh     change       -0.5994851E-05 Eh
 * total energy  :   -58.5596487 Eh     change       -0.5763817E-05 Eh
 * total energy  :   -58.5596538 Eh     change       -0.5062165E-05 Eh
 * total energy  :   -58.5596585 Eh     change       -0.4676825E-05 Eh
   *** GEOMETRY OPTIMIZATION CONVERGED AFTER 19 ITERATIONS ***

 final structure:
================
33
 xtb: 6.5.1 (579679a)
C            3.88317209270033        1.32367544929449        1.80664903559007
O            2.67984485747169        0.88345011327458        1.18702707755071
C            2.81916395598098        0.18555351555212        0.04681495027741
O            3.92896925792590       -0.04471028828965       -0.41334234049998
C            1.53410982850357       -0.25196044226487       -0.54424409216103
C            1.52329002607204       -0.92866938210477       -1.77087114104260
O            2.68074258076034       -1.30574171346303       -2.45404046577857
C            0.27753376819583       -1.18947291183616       -2.42023619896760
O            0.11531499984219       -1.70546074626470       -3.54152283737616
N           -0.83602920713812       -0.71170713109550       -1.73445814877706
C           -0.80840635484357       -0.50101323206601       -0.29031458850091
C           -1.00844721059209       -1.86393446731480        0.42277276004800
C           -1.92100393633047        0.53221275298807        0.08007158707442
C           -1.88325751707938        0.83944855855379        1.58739191336985
C           -3.33028303489928        0.07759448248452       -0.31378959630649
N           -1.61622674208556        1.74956173465865       -0.67753225722976
N            0.44863354820225        0.06099214564810        0.15658524616045
H            4.52649106284287        0.47100364184518        2.04212400923604
H            4.42638504056050        2.00616995666115        1.14665934655782
H            3.59916994883097        1.83971852196535        2.72236223771959
H            3.45795102240735       -1.02013234217807       -1.94108555785739
H           -1.70911124898133       -1.08256255040331       -2.08107794642580
H           -1.96643997809660       -2.30887448093156        0.16188165004434
H           -0.95233782433309       -1.73403343593155        1.50133550527272
H           -0.21478078213967       -2.54484253865719        0.11496985479196
H           -0.85818921653978        1.04497048904661        1.89835781916646
H           -2.49659557180689        1.71432122140004        1.80185638787823
H           -2.26939515042463        0.00141890792463        2.16699078350482
H           -3.59945384575954       -0.85261043489042        0.18426331452423
H           -4.05291158814874        0.83960489991656       -0.02055159840586
H           -3.40666099162170       -0.06154077039986       -1.39209428677975
H           -2.27820223194889        2.46822672070026       -0.41842005615225
H           -0.69303755752794        2.06934775617761       -0.39096736650546

          :  Hamiltonian                  GFN1-xTB          :
         :: total energy             -58.559658451080 Eh    ::
         :: gradient norm              0.000304491902 Eh/a0 ::
         :: HOMO-LUMO gap              1.265546738896 eV    ::
         :: SCC energy               -59.092438086452 Eh    ::
         :: -> Gsolv                  -0.104784356866 Eh    ::
         :: repulsion energy           0.552680411890 Eh    ::

    * Orbital Energies and Occupations

         #    Occupation            Energy/Eh            Energy/eV
      -------------------------------------------------------------
         1        2.0000           -0.8100947             -22.0438
       ...           ...                  ...                  ...
        36        2.0000           -0.4817809             -13.1099
        37        2.0000           -0.4771317             -12.9834
        38        2.0000           -0.4753995             -12.9363
        39        2.0000           -0.4693999             -12.7730
        40        2.0000           -0.4591312             -12.4936
        41        2.0000           -0.4480930             -12.1932
        42        2.0000           -0.4367454             -11.8844
        43        2.0000           -0.4230201             -11.5110
        44        2.0000           -0.3996081             -10.8739
        45        2.0000           -0.3850882             -10.4788
        46        2.0000           -0.3844824             -10.4623
        47        2.0000           -0.3704900             -10.0815
        48        2.0000           -0.3145887              -8.5604 (HOMO)
        49                         -0.2680807              -7.2948 (LUMO)
        50                         -0.1864482              -5.0735
        51                         -0.1253331              -3.4105
        52                         -0.1144672              -3.1148
        53                         -0.1079576              -2.9377
        54                         -0.1026806              -2.7941
        55                         -0.0996055              -2.7104
        56                         -0.0776870              -2.1140
        57                         -0.0650248              -1.7694
        58                         -0.0626608              -1.7051
        59                         -0.0618511              -1.6831
       ...                                ...                  ...
       100                          0.7317723              19.9125
      -------------------------------------------------------------
                  HL-Gap            0.0465080 Eh            1.2655 eV

Wiberg/Mayer (AO) data.
largest (>0.10) Wiberg bond orders for each atom

     #   Z sym  total        # sym  WBO       # sym  WBO       # sym  WBO
 ---------------------------------------------------------------------------
     1   6 C    3.891 --    20 H    0.987    19 H    0.980    18 H    0.980
                             2 O    0.916
     2   8 O    2.188 --     3 C    1.090     1 C    0.916     4 O    0.117
     3   6 C    3.817 --     4 O    1.597     2 O    1.090     5 C    1.027
     4   8 O    1.916 --     3 C    1.597     2 O    0.117
     5   6 C    3.971 --    17 N    1.404     6 C    1.324     3 C    1.027
     6   6 C    3.873 --     5 C    1.324     8 C    1.184     7 O    0.983
                            17 N    0.190
     7   8 O    1.954 --     6 C    0.983    21 H    0.830
     8   6 C    3.917 --     9 O    1.480     6 C    1.184    10 N    1.102
     9   8 O    1.781 --     8 C    1.480    10 N    0.109
    10   7 N    3.210 --     8 C    1.102    11 C    0.936    22 H    0.921
                             9 O    0.109
    11   6 C    3.942 --    17 N    1.001    12 C    0.970    13 C    0.952
                            10 N    0.936
    12   6 C    3.995 --    25 H    0.985    23 H    0.984    24 H    0.984
                            11 C    0.970
    13   6 C    3.963 --    15 C    1.001    14 C    0.992    16 N    0.983
                            11 C    0.952
    14   6 C    3.996 --    13 C    0.992    27 H    0.986    28 H    0.984
                            26 H    0.981
    15   6 C    3.996 --    13 C    1.001    30 H    0.984    29 H    0.984
                            31 H    0.982
    16   7 N    2.957 --    13 C    0.983    32 H    0.956    33 H    0.946
    17   7 N    2.926 --     5 C    1.404    11 C    1.001     6 C    0.190
    18   1 H    1.012 --     1 C    0.980
    19   1 H    1.012 --     1 C    0.980
    20   1 H    1.014 --     1 C    0.987
    21   1 H    0.893 --     7 O    0.830
    22   1 H    0.972 --    10 N    0.921
    23   1 H    1.007 --    12 C    0.984
    24   1 H    1.012 --    12 C    0.984
    25   1 H    1.009 --    12 C    0.985
    26   1 H    1.028 --    14 C    0.981
    27   1 H    1.007 --    14 C    0.986
    28   1 H    1.006 --    14 C    0.984
    29   1 H    1.007 --    15 C    0.984
    30   1 H    1.004 --    15 C    0.984
    31   1 H    1.010 --    15 C    0.982
    32   1 H    0.972 --    16 N    0.956
    33   1 H    0.986 --    16 N    0.946
 ---------------------------------------------------------------------------

           -------------------------------------------------
          | TOTAL ENERGY              -58.559658451080 Eh   |
          | GRADIENT NORM               0.000304491902 Eh/α |
          | HOMO-LUMO GAP               1.265546738896 eV   |
           -------------------------------------------------

 * finished run on 2023/06/20 at 15:00:31.866
