                         Program Version 5.0.1 -  RELEASE  -
|  1> # ORCA input file
|  2> ! SP r2SCAN-3c CPCM
|  3>
|  4> %maxcore 1875.0
|  5> %pal nprocs 4 end
|  6> %cpcm smd true SMDsolvent "DMSO" end
|  7>
|  8> *xyz 1 1
|  9> C      -3.406395    0.144450    2.336870
| 10> N      -2.521745   -0.346260    1.267078
| 11> C      -2.494225    0.268929   -0.006342
| 12> C      -3.600461    1.039551   -0.633369
| 13> C      -4.967112    1.250872   -0.027200
| 14> C      -3.220469    2.088256   -1.655942
| 15> N      -3.360108   -0.355341   -1.079046
| 16> N      -1.208563    0.517555   -0.550221
| 17> C      -0.239445   -0.266118   -0.280751
| 18> C       1.079580    0.096271   -0.941891
| 19> O       1.225837    1.194711   -1.454573
| 20> N       1.999912   -0.872784   -0.972123
| 21> C       3.279527   -0.659702   -1.649680
| 22> C       4.254666    0.045125   -0.732072
| 23> C       5.078063   -0.692086    0.115274
| 24> C       5.964434   -0.050970    0.969814
| 25> C       6.002055    1.331728    0.957808
| 26> F       6.856844    1.959747    1.780328
| 27> C       5.194711    2.093970    0.132418
| 28> C       4.315177    1.436804   -0.715873
| 29> C      -0.448286   -1.487465    0.578711
| 30> O       0.736832   -1.864662    1.222565
| 31> C      -1.491807   -1.163375    1.651706
| 32> C      -0.969104   -2.648488   -0.296929
| 33> O      -1.386362   -1.616317    2.769649
| 34> H      -4.373892   -0.349601    2.277181
| 35> H      -2.937700   -0.100618    3.290026
| 36> H      -3.520165    1.222064    2.249833
| 37> H      -5.676847    1.448833   -0.830700
| 38> H      -5.306723    0.376553    0.520773
| 39> H      -4.951338    2.113768    0.636927
| 40> H      -3.166371    3.056888   -1.159224
| 41> H      -3.980123    2.134952   -2.434066
| 42> H      -2.255050    1.864915   -2.106746
| 43> H      -2.931612   -0.508370   -1.980813
| 44> H      -4.020077   -1.058624   -0.786062
| 45> H       1.869846   -1.735654   -0.470730
| 46> H       3.659060   -1.639618   -1.944227
| 47> H       3.089639   -0.057944   -2.543471
| 48> H       5.030001   -1.774271    0.107986
| 49> H       6.612074   -0.611005    1.631587
| 50> H       5.254382    3.174488    0.154697
| 51> H       3.667490    2.009698   -1.369273
| 52> H       0.518922   -2.227546    2.099416
| 53> H      -1.136494   -3.516907    0.337355
| 54> H      -1.897819   -2.373872   -0.787252
| 55> H      -0.220759   -2.892527   -1.048012
| 56> **                         ****END OF INPUT****

CARTESIAN COORDINATES (ANGSTROEM)
---------------------------------
  C     -3.406395    0.144450    2.336870
  N     -2.521745   -0.346260    1.267078
  C     -2.494225    0.268929   -0.006342
  C     -3.600461    1.039551   -0.633369
  C     -4.967112    1.250872   -0.027200
  C     -3.220469    2.088256   -1.655942
  N     -3.360108   -0.355341   -1.079046
  N     -1.208563    0.517555   -0.550221
  C     -0.239445   -0.266118   -0.280751
  C      1.079580    0.096271   -0.941891
  O      1.225837    1.194711   -1.454573
  N      1.999912   -0.872784   -0.972123
  C      3.279527   -0.659702   -1.649680
  C      4.254666    0.045125   -0.732072
  C      5.078063   -0.692086    0.115274
  C      5.964434   -0.050970    0.969814
  C      6.002055    1.331728    0.957808
  F      6.856844    1.959747    1.780328
  C      5.194711    2.093970    0.132418
  C      4.315177    1.436804   -0.715873
  C     -0.448286   -1.487465    0.578711
  O      0.736832   -1.864662    1.222565
  C     -1.491807   -1.163375    1.651706
  C     -0.969104   -2.648488   -0.296929
  O     -1.386362   -1.616317    2.769649
  H     -4.373892   -0.349601    2.277181
  H     -2.937700   -0.100618    3.290026
  H     -3.520165    1.222064    2.249833
  H     -5.676847    1.448833   -0.830700
  H     -5.306723    0.376553    0.520773
  H     -4.951338    2.113768    0.636927
  H     -3.166371    3.056888   -1.159224
  H     -3.980123    2.134952   -2.434066
  H     -2.255050    1.864915   -2.106746
  H     -2.931612   -0.508370   -1.980813
  H     -4.020077   -1.058624   -0.786062
  H      1.869846   -1.735654   -0.470730
  H      3.659060   -1.639618   -1.944227
  H      3.089639   -0.057944   -2.543471
  H      5.030001   -1.774271    0.107986
  H      6.612074   -0.611005    1.631587
  H      5.254382    3.174488    0.154697
  H      3.667490    2.009698   -1.369273
  H      0.518922   -2.227546    2.099416
  H     -1.136494   -3.516907    0.337355
  H     -1.897819   -2.373872   -0.787252
  H     -0.220759   -2.892527   -1.048012

 Total Charge           Charge          ....    1
 Multiplicity           Mult            ....    1
 Number of Electrons    NEL             ....  184
 Basis Dimension        Dim             ....  625

ORBITAL ENERGIES
----------------

  NO   OCC          E(Eh)            E(eV)
   0   2.0000     -24.504363      -666.7976
   1   2.0000     -18.975767      -516.3569
   2   2.0000     -18.956417      -515.8303
   3   2.0000     -18.927075      -515.0319
   4   2.0000     -14.271407      -388.3447
   5   2.0000     -14.235731      -387.3739
   6   2.0000     -14.198702      -386.3663
   7   2.0000     -14.194891      -386.2626
   8   2.0000     -10.192729      -277.3583
   9   2.0000     -10.161344      -276.5042
  10   2.0000     -10.144617      -276.0491
  11   2.0000     -10.134180      -275.7651
  12   2.0000     -10.133079      -275.7351
  13   2.0000     -10.124364      -275.4979
  14   2.0000     -10.121018      -275.4069
  15   2.0000     -10.073253      -274.1071
  16   2.0000     -10.067260      -273.9441
  17   2.0000     -10.047483      -273.4059
  18   2.0000     -10.044302      -273.3193
  19   2.0000     -10.042746      -273.2770
  20   2.0000     -10.042384      -273.2672
  21   2.0000     -10.042311      -273.2652
  22   2.0000     -10.041919      -273.2545
  23   2.0000     -10.041283      -273.2372
  24   2.0000     -10.036345      -273.1028
  25   2.0000      -1.195827       -32.5401
  26   2.0000      -1.061674       -28.8896
  27   2.0000      -1.038889       -28.2696
  28   2.0000      -1.020709       -27.7749
  29   2.0000      -1.012000       -27.5379
  30   2.0000      -0.950254       -25.8577
  31   2.0000      -0.909596       -24.7514
  32   2.0000      -0.904479       -24.6121
  33   2.0000      -0.836709       -22.7680
  34   2.0000      -0.782285       -21.2870
  35   2.0000      -0.764756       -20.8101
  36   2.0000      -0.746232       -20.3060
  37   2.0000      -0.728890       -19.8341
  38   2.0000      -0.725039       -19.7293
  39   2.0000      -0.691313       -18.8116
  40   2.0000      -0.686819       -18.6893
  41   2.0000      -0.679408       -18.4876
  42   2.0000      -0.646850       -17.6017
  43   2.0000      -0.623323       -16.9615
  44   2.0000      -0.609413       -16.5830
  45   2.0000      -0.597393       -16.2559
  46   2.0000      -0.582047       -15.8383
  47   2.0000      -0.565461       -15.3870
  48   2.0000      -0.559552       -15.2262
  49   2.0000      -0.534154       -14.5351
  50   2.0000      -0.518883       -14.1195
  51   2.0000      -0.516729       -14.0609
  52   2.0000      -0.509634       -13.8678
  53   2.0000      -0.500496       -13.6192
  54   2.0000      -0.464628       -12.6432
  55   2.0000      -0.463982       -12.6256
  56   2.0000      -0.459365       -12.5000
  57   2.0000      -0.458528       -12.4772
  58   2.0000      -0.452012       -12.2999
  59   2.0000      -0.441182       -12.0052
  60   2.0000      -0.437017       -11.8918
  61   2.0000      -0.430041       -11.7020
  62   2.0000      -0.426314       -11.6006
  63   2.0000      -0.422610       -11.4998
  64   2.0000      -0.414490       -11.2789
  65   2.0000      -0.403665       -10.9843
  66   2.0000      -0.399110       -10.8603
  67   2.0000      -0.395853       -10.7717
  68   2.0000      -0.393081       -10.6963
  69   2.0000      -0.387146       -10.5348
  70   2.0000      -0.381126       -10.3710
  71   2.0000      -0.379836       -10.3359
  72   2.0000      -0.374891       -10.2013
  73   2.0000      -0.366207        -9.9650
  74   2.0000      -0.363946        -9.9035
  75   2.0000      -0.357983        -9.7412
  76   2.0000      -0.350679        -9.5425
  77   2.0000      -0.347358        -9.4521
  78   2.0000      -0.342390        -9.3169
  79   2.0000      -0.340812        -9.2740
  80   2.0000      -0.338702        -9.2165
  81   2.0000      -0.331494        -9.0204
  82   2.0000      -0.313200        -8.5226
  83   2.0000      -0.307874        -8.3777
  84   2.0000      -0.292006        -7.9459
  85   2.0000      -0.270432        -7.3588
  86   2.0000      -0.259246        -7.0544
  87   2.0000      -0.250408        -6.8139
  88   2.0000      -0.249901        -6.8002
  89   2.0000      -0.246621        -6.7109
  90   2.0000      -0.236064        -6.4236
  91   2.0000      -0.226219        -6.1557
  92   0.0000      -0.110441        -3.0053
  93   0.0000      -0.043897        -1.1945
  94   0.0000      -0.041419        -1.1271
  95   0.0000      -0.032561        -0.8860
  96   0.0000       0.024515         0.6671

MULLIKEN ATOMIC CHARGES
-----------------------
   0 C :   -0.468479
   1 N :    0.324907
   2 C :   -0.332385
   3 C :    0.215770
   4 C :   -0.542652
   5 C :   -0.574729
   6 N :   -0.066860
   7 N :   -0.158129
   8 C :    0.232691
   9 C :    0.084376
  10 O :   -0.432663
  11 N :   -0.063386
  12 C :   -0.355117
  13 C :    0.083345
  14 C :   -0.205025
  15 C :   -0.294362
  16 C :    0.363634
  17 F :   -0.235384
  18 C :   -0.317082
  19 C :   -0.157926
  20 C :    0.340944
  21 O :   -0.453492
  22 C :    0.073747
  23 C :   -0.488558
  24 O :   -0.450759
  25 H :    0.200063
  26 H :    0.198806
  27 H :    0.194351
  28 H :    0.197593
  29 H :    0.182059
  30 H :    0.215892
  31 H :    0.202203
  32 H :    0.196803
  33 H :    0.195536
  34 H :    0.336709
  35 H :    0.343130
  36 H :    0.308482
  37 H :    0.190736
  38 H :    0.198091
  39 H :    0.190176
  40 H :    0.197064
  41 H :    0.197061
  42 H :    0.200332
  43 H :    0.342308
  44 H :    0.198406
  45 H :    0.195165
  46 H :    0.196609
Sum of atomic charges:    1.0000000

LOEWDIN ATOMIC CHARGES
----------------------
   0 C :   -0.080048
   1 N :   -0.650616
   2 C :    0.421841
   3 C :    0.129369
   4 C :   -0.343311
   5 C :   -0.337973
   6 N :   -0.399319
   7 N :   -0.503797
   8 C :    0.306492
   9 C :    0.363051
  10 O :   -0.454804
  11 N :   -0.574913
  12 C :    0.003868
  13 C :   -0.081410
  14 C :   -0.141030
  15 C :   -0.160080
  16 C :    0.201465
  17 F :   -0.295737
  18 C :   -0.160103
  19 C :   -0.138037
  20 C :    0.161929
  21 O :   -0.561403
  22 C :    0.396365
  23 C :   -0.314725
  24 O :   -0.444771
  25 H :    0.188496
  26 H :    0.211482
  27 H :    0.199132
  28 H :    0.183846
  29 H :    0.179252
  30 H :    0.186521
  31 H :    0.186343
  32 H :    0.180720
  33 H :    0.191718
  34 H :    0.311039
  35 H :    0.309998
  36 H :    0.297679
  37 H :    0.204339
  38 H :    0.208342
  39 H :    0.187683
  40 H :    0.194244
  41 H :    0.194099
  42 H :    0.193463
  43 H :    0.303386
  44 H :    0.183541
  45 H :    0.181116
  46 H :    0.181258

  Mayer bond orders larger than 0.100000
B(  0-C ,  1-N ) :   0.8412 B(  0-C , 25-H ) :   0.9452 B(  0-C , 26-H ) :   0.9384
B(  0-C , 27-H ) :   0.9327 B(  1-N ,  2-C ) :   1.0785 B(  1-N , 22-C ) :   1.1411
B(  2-C ,  3-C ) :   0.9319 B(  2-C ,  5-C ) :   0.1078 B(  2-C ,  6-N ) :   0.7227
B(  2-C ,  7-N ) :   0.8999 B(  2-C ,  8-C ) :   0.1149 B(  3-C ,  4-C ) :   0.8241
B(  3-C ,  5-C ) :   0.7814 B(  3-C ,  6-N ) :   0.7362 B(  4-C , 28-H ) :   0.9457
B(  4-C , 29-H ) :   0.9635 B(  4-C , 30-H ) :   0.9592 B(  5-C , 31-H ) :   0.9482
B(  5-C , 32-H ) :   0.9564 B(  5-C , 33-H ) :   0.9738 B(  6-N , 34-H ) :   0.8760
B(  6-N , 35-H ) :   0.8665 B(  7-N ,  8-C ) :   1.6031 B(  8-C ,  9-C ) :   0.9804
B(  8-C , 20-C ) :   0.8812 B(  9-C , 10-O ) :   1.8873 B(  9-C , 11-N ) :   1.2052
B( 11-N , 12-C ) :   0.8421 B( 11-N , 36-H ) :   0.8696 B( 12-C , 13-C ) :   0.8244
B( 12-C , 37-H ) :   0.9715 B( 12-C , 38-H ) :   0.9806 B( 13-C , 14-C ) :   1.4024
B( 13-C , 19-C ) :   1.3903 B( 14-C , 15-C ) :   1.3720 B( 14-C , 39-H ) :   0.9418
B( 15-C , 16-C ) :   1.4008 B( 15-C , 40-H ) :   0.9358 B( 16-C , 17-F ) :   0.8834
B( 16-C , 18-C ) :   1.3930 B( 18-C , 19-C ) :   1.3763 B( 18-C , 41-H ) :   0.9358
B( 19-C , 42-H ) :   0.9372 B( 20-C , 21-O ) :   0.8628 B( 20-C , 22-C ) :   0.8836
B( 20-C , 23-C ) :   1.0274 B( 21-O , 43-H ) :   0.8424 B( 22-C , 24-O ) :   1.9197
B( 23-C , 44-H ) :   0.9393 B( 23-C , 45-H ) :   0.9394 B( 23-C , 46-H ) :   0.9284

Dispersion correction           -0.021739354
FINAL SINGLE POINT ENERGY     -1205.211366557206

DIPOLE MOMENT
-------------
                                X             Y             Z
Electronic contribution:     26.20280       1.97907       6.19855
Nuclear contribution   :    -34.66863      -4.24983      -8.30111
                        -----------------------------------------
Total Dipole Moment    :     -8.46584      -2.27076      -2.10256
                        -----------------------------------------
Magnitude (a.u.)       :      9.01374
Magnitude (Debye)      :     22.91110

Rotational constants in cm-1:     0.014559     0.003478     0.003297
Rotational constants in MHz :   436.460784   104.262289    98.831502

                             ****ORCA TERMINATED NORMALLY****
TOTAL RUN TIME: 0 days 0 hours 2 minutes 12 seconds 21 msec
