   * xtb version 6.5.1 (579679a) compiled by 'ehlert@majestix' on 2022-07-11
          program call               : /lustre/hpc/kemi/ree/PhD/git/ReactivityQM/dep/xtb-6.5.1/bin/xtb --gfn 1 /lustre/hpc/kemi/ree/PhD/git/ReactivityQM/calculations/RaltegravirCLI/reac02prodN13/conf10/RaltegravirCLI_reac02prodN13_conf10_gfn1.xyz --opt --vfukui --chrg 1 --uhf 0 --alpb DMSO

   ID    Z sym.   atoms
    1    6 C      1, 3-6, 9, 10, 13-17, 19-21, 23, 24
    2    7 N      2, 7, 8, 12
    3    8 O      11, 22, 25
    4    9 F      18
    5    1 H      26-47

      * Solvation model:               ALPB
        Solvent                        DMSO
        Solvent mass                       7.8130E+01 g/mol
          :  Hamiltonian                  GFN1-xTB          :
 * total energy  :   -79.3948441 Eh     change       -0.6025402E-10 Eh
 * total energy  :   -79.4146409 Eh     change       -0.1979677E-01 Eh
 * total energy  :   -79.4248813 Eh     change       -0.1024044E-01 Eh
 * total energy  :   -79.4284993 Eh     change       -0.3617981E-02 Eh
 * total energy  :   -79.4309160 Eh     change       -0.2416743E-02 Eh
 * total energy  :   -79.4319316 Eh     change       -0.1015593E-02 Eh
 * total energy  :   -79.4326006 Eh     change       -0.6689951E-03 Eh
 * total energy  :   -79.4331504 Eh     change       -0.5497768E-03 Eh
 * total energy  :   -79.4334783 Eh     change       -0.3278874E-03 Eh
 * total energy  :   -79.4336913 Eh     change       -0.2130172E-03 Eh
 * total energy  :   -79.5068694 Eh     change       -0.3098973E-04 Eh
 * total energy  :   -79.5068936 Eh     change       -0.2428475E-04 Eh
 * total energy  :   -79.5069064 Eh     change       -0.1280495E-04 Eh
 * total energy  :   -79.5069260 Eh     change       -0.1951641E-04 Eh
 * total energy  :   -79.5069363 Eh     change       -0.1032215E-04 Eh
 * total energy  :   -79.5069472 Eh     change       -0.1091728E-04 Eh
 * total energy  :   -79.5069545 Eh     change       -0.7263986E-05 Eh
 * total energy  :   -79.5069597 Eh     change       -0.5262538E-05 Eh
 * total energy  :   -79.5069642 Eh     change       -0.4520714E-05 Eh
   *** GEOMETRY OPTIMIZATION CONVERGED AFTER 143 ITERATIONS ***

 final structure:
================
47
 xtb: 6.5.1 (579679a)
C           -3.40639527104452        0.14445040338401        2.33687012194493
N           -2.52174532109971       -0.34626046042903        1.26707759712359
C           -2.49422490225653        0.26892918814859       -0.00634156329716
C           -3.60046137115993        1.03955065602278       -0.63336858153473
C           -4.96711172695450        1.25087199362048       -0.02720001439273
C           -3.22046931952701        2.08825562675398       -1.65594249017413
N           -3.36010783496151       -0.35534082589717       -1.07904641259257
N           -1.20856300240123        0.51755470423097       -0.55022102415861
C           -0.23944546535279       -0.26611834849206       -0.28075144849054
C            1.07957974504292        0.09627117879632       -0.94189142894199
O            1.22583731725957        1.19471063341114       -1.45457260419189
N            1.99991182663764       -0.87278413440091       -0.97212286789211
C            3.27952711500669       -0.65970177549962       -1.64968037200118
C            4.25466590321755        0.04512512961812       -0.73207196037043
C            5.07806349205310       -0.69208580294354        0.11527439391379
C            5.96443407422383       -0.05096979829295        0.96981369375504
C            6.00205452851516        1.33172785425431        0.95780802400599
F            6.85684419843700        1.95974679248328        1.78032795826544
C            5.19471135592544        2.09397040193556        0.13241758767054
C            4.31517709360392        1.43680394134265       -0.71587252848280
C           -0.44828596102287       -1.48746499210100        0.57871053353006
O            0.73683214249091       -1.86466175254326        1.22256460163142
C           -1.49180728964224       -1.16337539407074        1.65170640593653
C           -0.96910402118641       -2.64848790502897       -0.29692921428560
O           -1.38636223006207       -1.61631700435377        2.76964896022222
H           -4.37389217086591       -0.34960088649200        2.27718090394415
H           -2.93769989646946       -0.10061754898417        3.29002588816432
H           -3.52016483238608        1.22206440827375        2.24983324761682
H           -5.67684704857499        1.44883263537264       -0.83069981034110
H           -5.30672283667383        0.37655331086029        0.52077304732195
H           -4.95133821731588        2.11376845042373        0.63692724279790
H           -3.16637070928655        3.05688827212428       -1.15922386619123
H           -3.98012260184857        2.13495176850451       -2.43406636114718
H           -2.25505004205483        1.86491483404224       -2.10674604258877
H           -2.93161176371291       -0.50836962622594       -1.98081287333685
H           -4.02007684274176       -1.05862388108552       -0.78606163532241
H            1.86984618672103       -1.73565385477926       -0.47073044734145
H            3.65905954333639       -1.63961847404496       -1.94422684391401
H            3.08963887057292       -0.05794409268110       -2.54347074403252
H            5.03000127507558       -1.77427113842460        0.10798647389278
H            6.61207395432655       -0.61100515110873        1.63158653738207
H            5.25438184349907        3.17448843413654        0.15469665240433
H            3.66748993970368        2.00969762067450       -1.36927299044528
H            0.51892245610976       -2.22754639553582        2.09941599557778
H           -1.13649393480951       -3.51690687750856        0.33735519420342
H           -1.89781857384537       -2.37387219612291       -0.78725248556881
H           -0.22075867448160       -2.89252692137750       -1.04801245027495

          :  Hamiltonian                  GFN1-xTB          :
         :: total energy             -79.506964249802 Eh    ::
         :: gradient norm              0.000454711042 Eh/a0 ::
         :: HOMO-LUMO gap              2.425267104894 eV    ::
         :: SCC energy               -80.391188349212 Eh    ::
         :: -> Gsolv                  -0.124242459420 Eh    ::
         :: repulsion energy           0.915402326043 Eh    ::

    * Orbital Energies and Occupations

         #    Occupation            Energy/Eh            Energy/eV
      -------------------------------------------------------------
         1        2.0000           -0.8910295             -24.2461
       ...           ...                  ...                  ...
        55        2.0000           -0.5203826             -14.1603
        56        2.0000           -0.5157164             -14.0334
        57        2.0000           -0.5122694             -13.9396
        58        2.0000           -0.5087922             -13.8449
        59        2.0000           -0.5075497             -13.8111
        60        2.0000           -0.4904953             -13.3471
        61        2.0000           -0.4779376             -13.0053
        62        2.0000           -0.4769664             -12.9789
        63        2.0000           -0.4749869             -12.9251
        64        2.0000           -0.4602691             -12.5246
        65        2.0000           -0.4557424             -12.4014
        66        2.0000           -0.4547066             -12.3732
        67        2.0000           -0.4415624             -12.0155 (HOMO)
        68                         -0.3524355              -9.5903 (LUMO)
        69                         -0.2914453              -7.9306
        70                         -0.2771469              -7.5416
        71                         -0.2715613              -7.3896
        72                         -0.2335537              -6.3553
        73                         -0.2085724              -5.6755
        74                         -0.1838250              -5.0021
        75                         -0.1697861              -4.6201
        76                         -0.1554889              -4.2311
        77                         -0.1504091              -4.0928
        78                         -0.1423379              -3.8732
       ...                                ...                  ...
       144                          0.6989414              19.0192
      -------------------------------------------------------------
                  HL-Gap            0.0891269 Eh            2.4253 eV

Wiberg/Mayer (AO) data.
largest (>0.10) Wiberg bond orders for each atom

     #   Z sym  total        # sym  WBO       # sym  WBO       # sym  WBO
 ---------------------------------------------------------------------------
     1   6 C    3.912 --    28 H    0.984    26 H    0.980    27 H    0.973
                             2 N    0.910
     2   7 N    3.345 --    23 C    1.182     3 C    1.003     1 C    0.910
                            25 O    0.145
     3   6 C    3.870 --     8 N    1.017     2 N    1.003     4 C    0.933
                             7 N    0.801
     4   6 C    3.851 --     5 C    1.010     6 C    1.007     3 C    0.933
                             7 N    0.834
     5   6 C    3.980 --     4 C    1.010    30 H    0.977    29 H    0.972
                            31 H    0.972
     6   6 C    3.979 --     4 C    1.007    33 H    0.976    34 H    0.976
                            32 H    0.973
     7   7 N    3.496 --    36 H    0.874    35 H    0.872     4 C    0.834
                             3 C    0.801
     8   7 N    3.049 --     9 C    1.795     3 C    1.017
     9   6 C    3.924 --     8 N    1.795    21 C    0.975    10 C    0.952
    10   6 C    3.917 --    11 O    1.584    12 N    1.304     9 C    0.952
    11   8 O    1.902 --    10 C    1.584    12 N    0.192
    12   7 N    3.392 --    10 C    1.304    13 C    0.930    37 H    0.883
                            11 O    0.192
    13   6 C    3.937 --    14 C    0.992    38 H    0.975    39 H    0.971
                            12 N    0.930
    14   6 C    3.986 --    15 C    1.420    20 C    1.418    13 C    0.992
    15   6 C    3.993 --    16 C    1.443    14 C    1.420    40 H    0.971
                            19 C    0.110
    16   6 C    3.991 --    15 C    1.443    17 C    1.401    41 H    0.969
                            20 C    0.111
    17   6 C    3.861 --    16 C    1.401    19 C    1.400    18 F    0.927
    18   9 F    1.055 --    17 C    0.927
    19   6 C    3.992 --    20 C    1.444    17 C    1.400    42 H    0.969
                            15 C    0.110
    20   6 C    3.992 --    19 C    1.444    14 C    1.418    43 H    0.969
                            16 C    0.111
    21   6 C    3.931 --    22 O    0.978     9 C    0.975    24 C    0.937
                            23 C    0.924
    22   8 O    1.914 --    21 C    0.978    44 H    0.813
    23   6 C    3.887 --    25 O    1.658     2 N    1.182    21 C    0.924
    24   6 C    3.984 --    46 H    0.984    47 H    0.980    45 H    0.978
                            21 C    0.937
    25   8 O    1.969 --    23 C    1.658     2 N    0.145
    26   1 H    1.003 --     1 C    0.980
    27   1 H    1.001 --     1 C    0.973
    28   1 H    0.998 --     1 C    0.984
    29   1 H    0.993 --     5 C    0.972
    30   1 H    0.997 --     5 C    0.977
    31   1 H    0.996 --     5 C    0.972
    32   1 H    0.994 --     6 C    0.973
    33   1 H    0.995 --     6 C    0.976
    34   1 H    1.009 --     6 C    0.976
    35   1 H    0.909 --     7 N    0.872
    36   1 H    0.910 --     7 N    0.874
    37   1 H    0.942 --    12 N    0.883
    38   1 H    1.001 --    13 C    0.975
    39   1 H    1.005 --    13 C    0.971
    40   1 H    0.998 --    15 C    0.971
    41   1 H    0.997 --    16 C    0.969
    42   1 H    0.998 --    19 C    0.969
    43   1 H    1.010 --    20 C    0.969
    44   1 H    0.850 --    22 O    0.813
    45   1 H    0.996 --    24 C    0.978
    46   1 H    0.998 --    24 C    0.984
    47   1 H    0.999 --    24 C    0.980
 ---------------------------------------------------------------------------

           -------------------------------------------------
          | TOTAL ENERGY              -79.506964249802 Eh   |
          | GRADIENT NORM               0.000454711042 Eh/α |
          | HOMO-LUMO GAP               2.425267104894 eV   |
           -------------------------------------------------

 * finished run on 2023/06/20 at 15:34:44.784
