   * xtb version 6.5.1 (579679a) compiled by 'ehlert@majestix' on 2022-07-11
          program call               : /lustre/hpc/kemi/ree/PhD/git/ReactivityQM/dep/xtb-6.5.1/bin/xtb --gfn 1 /lustre/hpc/kemi/ree/PhD/git/ReactivityQM/calculations/RaltegravirCLI/reac01prodE03/conf08/RaltegravirCLI_reac01prodE03_conf08_gfn1.xyz --opt --vfukui --chrg -1 --uhf 0 --alpb DMSO

   ID    Z sym.   atoms
    1    6 C      1, 2, 4, 5, 10
    2    8 O      3, 6
    3   17 Cl     7
    4    7 N      8, 9
    5    1 H      11-16

      * Solvation model:               ALPB
        Solvent                        DMSO
        Solvent mass                       7.8130E+01 g/mol
          :  Hamiltonian                  GFN1-xTB          :
 * total energy  :   -34.0942587 Eh     change       -0.2638956E-10 Eh
 * total energy  :   -34.1038720 Eh     change       -0.9613224E-02 Eh
 * total energy  :   -34.1086914 Eh     change       -0.4819452E-02 Eh
 * total energy  :   -34.1096397 Eh     change       -0.9483129E-03 Eh
 * total energy  :   -34.1110894 Eh     change       -0.1449647E-02 Eh
 * total energy  :   -34.1114090 Eh     change       -0.3196303E-03 Eh
 * total energy  :   -34.1115279 Eh     change       -0.1189429E-03 Eh
 * total energy  :   -34.1115570 Eh     change       -0.2900932E-04 Eh
 * total energy  :   -34.1115731 Eh     change       -0.1612170E-04 Eh
 * total energy  :   -34.1115848 Eh     change       -0.1171094E-04 Eh
 * total energy  :   -34.1115897 Eh     change       -0.4914239E-05 Eh
   *** GEOMETRY OPTIMIZATION CONVERGED AFTER 11 ITERATIONS ***

 final structure:
================
16
 xtb: 6.5.1 (579679a)
C           -1.60806550314990       -1.29402350964042        0.56767907014732
C           -0.38104695696533       -0.54742932478689        0.19498718555605
O            0.84041465854113       -1.14110810723972        0.16979498575667
C            1.73147991482621       -0.08113170365012       -0.22061932060112
C            3.04189234815836       -0.18817730902101       -0.43191950345792
O            3.98538215257560        0.54202892941490       -0.75138876089949
Cl           3.60022718838339       -2.09594742385349       -0.05034231291474
N            0.97317554025900        1.11526638616474       -0.40460405427211
N           -0.26922297187822        0.71581107374374       -0.12570839640026
C           -1.34062776300056        1.67772516831187       -0.21634140158231
H           -1.38890207833001       -2.36003574265478        0.57721452990944
H           -1.96352080891365       -1.00169689052798        1.55815387958374
H           -2.40902363744514       -1.09941578058478       -0.14555092604613
H           -1.95562685505233        1.62907436365142        0.68031290262459
H           -1.95795754223585        1.46229387158238       -1.08821350043654
H           -0.89857968577268        2.66676699909020       -0.31345337696724

          :  Hamiltonian                  GFN1-xTB          :
         :: total energy             -34.111589699503 Eh    ::
         :: gradient norm              0.000881742207 Eh/a0 ::
         :: HOMO-LUMO gap              1.323014419877 eV    ::
         :: SCC energy               -34.385316259175 Eh    ::
         :: -> Gsolv                  -0.116553122555 Eh    ::
         :: repulsion energy           0.281000471596 Eh    ::

    * Orbital Energies and Occupations

         #    Occupation            Energy/Eh            Energy/eV
      -------------------------------------------------------------
         1        2.0000           -0.8260381             -22.4776
       ...           ...                  ...                  ...
        16        2.0000           -0.5288161             -14.3898
        17        2.0000           -0.5228506             -14.2275
        18        2.0000           -0.5183084             -14.1039
        19        2.0000           -0.5012689             -13.6402
        20        2.0000           -0.4965305             -13.5113
        21        2.0000           -0.4921410             -13.3918
        22        2.0000           -0.4697251             -12.7819
        23        2.0000           -0.4366075             -11.8807
        24        2.0000           -0.4351986             -11.8424
        25        2.0000           -0.4203455             -11.4382
        26        2.0000           -0.4086818             -11.1208
        27        2.0000           -0.3947544             -10.7418
        28        2.0000           -0.2867564              -7.8030 (HOMO)
        29                         -0.2381365              -6.4800 (LUMO)
        30                         -0.1890495              -5.1443
        31                         -0.1454812              -3.9587
        32                         -0.1304831              -3.5506
        33                         -0.1261385              -3.4324
        34                         -0.0864678              -2.3529
        35                         -0.0754130              -2.0521
        36                         -0.0594138              -1.6167
        37                         -0.0543334              -1.4785
        38                          0.0332625               0.9051
        39                          0.0355721               0.9680
       ...                                ...                  ...
        57                          0.8443100              22.9748
      -------------------------------------------------------------
                  HL-Gap            0.0486199 Eh            1.3230 eV

Wiberg/Mayer (AO) data.
largest (>0.10) Wiberg bond orders for each atom

     #   Z sym  total        # sym  WBO       # sym  WBO       # sym  WBO
 ---------------------------------------------------------------------------
     1   6 C    3.992 --     2 C    1.025    11 H    0.981    13 H    0.975
                            12 H    0.967
     2   6 C    3.878 --     9 N    1.419     3 O    1.048     1 C    1.025
                             8 N    0.294
     3   8 O    2.149 --     2 C    1.048     4 C    0.872
     4   6 C    3.771 --     5 C    1.622     8 N    1.043     3 O    0.872
                             6 O    0.175
     5   6 C    3.847 --     4 C    1.622     6 O    1.537     7 Cl   0.514
     6   8 O    1.883 --     5 C    1.537     4 C    0.175     7 Cl   0.114
     7  17 Cl   0.669 --     5 C    0.514     6 O    0.114
     8   7 N    2.720 --     9 N    1.155     4 C    1.043     2 C    0.294
     9   7 N    3.644 --     2 C    1.419     8 N    1.155    10 C    0.948
    10   6 C    3.948 --    16 H    0.984    14 H    0.983    15 H    0.978
                             9 N    0.948
    11   1 H    1.000 --     1 C    0.981
    12   1 H    1.002 --     1 C    0.967
    13   1 H    1.002 --     1 C    0.975
    14   1 H    1.001 --    10 C    0.983
    15   1 H    1.002 --    10 C    0.978
    16   1 H    1.011 --    10 C    0.984
 ---------------------------------------------------------------------------

           -------------------------------------------------
          | TOTAL ENERGY              -34.111589699503 Eh   |
          | GRADIENT NORM               0.000881742207 Eh/α |
          | HOMO-LUMO GAP               1.323014419877 eV   |
           -------------------------------------------------

 * finished run on 2023/06/20 at 14:53:00.978
