   * xtb version 6.5.1 (579679a) compiled by 'ehlert@majestix' on 2022-07-11
          program call               : /lustre/hpc/kemi/ree/PhD/git/ReactivityQM/dep/xtb-6.5.1/bin/xtb --gfn 1 /lustre/hpc/kemi/ree/PhD/git/ReactivityQM/calculations/R02oxygendeprot/reac01/conf17/R02oxygendeprot_reac01_conf17_gfn1.xyz --opt --vfukui --chrg -1 --uhf 0 --alpb DMSO

   ID    Z sym.   atoms
    1    6 C      1, 3, 5, 7-10, 12, 14, 17, 18, 21, 23
    2    8 O      2, 4, 13, 19, 22, 24
    3    7 N      6, 11, 15, 16, 20
    4    1 H      25-38

      * Solvation model:               ALPB
        Solvent                        DMSO
        Solvent mass                       7.8130E+01 g/mol
          :  Hamiltonian                  GFN1-xTB          :
 * total energy  :   -79.6048425 Eh     change       -0.3836931E-10 Eh
 * total energy  :   -79.6170076 Eh     change       -0.1216510E-01 Eh
 * total energy  :   -79.6214811 Eh     change       -0.4473499E-02 Eh
 * total energy  :   -79.6223404 Eh     change       -0.8592968E-03 Eh
 * total energy  :   -79.6231837 Eh     change       -0.8432625E-03 Eh
 * total energy  :   -79.6237877 Eh     change       -0.6040358E-03 Eh
 * total energy  :   -79.6243458 Eh     change       -0.5580265E-03 Eh
 * total energy  :   -79.6247506 Eh     change       -0.4048118E-03 Eh
 * total energy  :   -79.6249613 Eh     change       -0.2107159E-03 Eh
 * total energy  :   -79.6250691 Eh     change       -0.1077796E-03 Eh
 * total energy  :   -79.6271825 Eh     change       -0.1205525E-04 Eh
 * total energy  :   -79.6271931 Eh     change       -0.1058047E-04 Eh
 * total energy  :   -79.6272026 Eh     change       -0.9539167E-05 Eh
 * total energy  :   -79.6272113 Eh     change       -0.8726386E-05 Eh
 * total energy  :   -79.6272201 Eh     change       -0.8731501E-05 Eh
 * total energy  :   -79.6272303 Eh     change       -0.1019773E-04 Eh
 * total energy  :   -79.6272409 Eh     change       -0.1059989E-04 Eh
 * total energy  :   -79.6272490 Eh     change       -0.8141205E-05 Eh
 * total energy  :   -79.6272539 Eh     change       -0.4850280E-05 Eh
   *** GEOMETRY OPTIMIZATION CONVERGED AFTER 60 ITERATIONS ***

 final structure:
================
38
 xtb: 6.5.1 (579679a)
C           -6.48363315992976       -0.99917471421100        0.26502283162536
O           -5.21740445324919       -0.79069052710085        0.87206752150880
C           -4.23868067406520       -0.32316137821779        0.05437305404305
O           -4.46975544561320       -0.10689499275403       -1.13042395941067
C           -2.95286131116382       -0.11542314390972        0.70150567127194
N           -1.98386555808040        0.35019602333180       -0.17157523632821
C           -0.79790787096741        0.58470737046816        0.24362703906668
C            0.26643924460077        1.13169260290499       -0.68543318291183
C           -0.13258244134685        0.90505401554748       -2.14587891227504
C            0.47169777004650        2.62321757664287       -0.40333406216356
N            1.53944992292029        0.45502881950353       -0.39973628162768
C            1.67072642303659       -0.88507899393862       -0.43566060571504
O            0.77060927758392       -1.67494908946103       -0.66956490024861
C            3.05203863781192       -1.33921815750188       -0.12424934166152
N            3.47825023367533       -2.56065184989152       -0.03346544426887
N            4.79991461230971       -2.49279938550970        0.29698068550225
C            5.09736034092657       -1.23472786742657        0.38746354010793
C            6.40577805565691       -0.63307434074729        0.72306747398287
O            4.03621445138356       -0.45075640944596        0.13387360031032
N           -0.43086503141655        0.40533010977397        1.56240511430063
C           -1.27990562761925       -0.06303267664360        2.53002262223204
O           -0.87346847189038       -0.21059050767041        3.68096524948563
C           -2.69214041498669       -0.36230790714289        2.07499672566213
O           -3.50624051039564       -0.78914315852503        2.91545164820808
H           -6.41639558057467       -1.75371058393630       -0.52545551953639
H           -7.16028841627449       -1.34440589665902        1.04601994866623
H           -6.86404386262130       -0.06905415673684       -0.16878472403018
H           -0.26005924486540       -0.15909227087958       -2.34229523924518
H           -1.07611449062270        1.41332765866333       -2.34170470178512
H            0.63490741709902        1.30288896713208       -2.80612601946714
H            0.76279190136866        2.77367218617361        0.63475809868503
H            1.24996889386834        3.02480992165928       -1.04915592510014
H           -0.45550887869719        3.16307355345670       -0.59091658192783
H            2.35596667779822        1.02232289925247       -0.26215594617458
H            6.70298519802667        0.06777750042649       -0.05601236215078
H            7.15572459865016       -1.41427092277514        0.81991202883604
H            6.33202220853979       -0.08096052030217        1.66004373404193
H            0.50887657908067        0.63006824644600        1.84244235848885

          :  Hamiltonian                  GFN1-xTB          :
         :: total energy             -79.627253864704 Eh    ::
         :: gradient norm              0.000279689229 Eh/a0 ::
         :: HOMO-LUMO gap              1.632022649979 eV    ::
         :: SCC energy               -80.355354077224 Eh    ::
         :: -> Gsolv                  -0.142328198226 Eh    ::
         :: repulsion energy           0.751345988657 Eh    ::

    * Orbital Energies and Occupations

         #    Occupation            Energy/Eh            Energy/eV
      -------------------------------------------------------------
         1        2.0000           -0.8606836             -23.4204
       ...           ...                  ...                  ...
        52        2.0000           -0.4813823             -13.0991
        53        2.0000           -0.4748931             -12.9225
        54        2.0000           -0.4639606             -12.6250
        55        2.0000           -0.4590906             -12.4925
        56        2.0000           -0.4544582             -12.3664
        57        2.0000           -0.4539930             -12.3538
        58        2.0000           -0.4465956             -12.1525
        59        2.0000           -0.4417524             -12.0207
        60        2.0000           -0.4369337             -11.8896
        61        2.0000           -0.4346896             -11.8285
        62        2.0000           -0.4134192             -11.2497
        63        2.0000           -0.3770455             -10.2599
        64        2.0000           -0.3638329              -9.9004 (HOMO)
        65                         -0.3038572              -8.2684 (LUMO)
        66                         -0.2684067              -7.3037
        67                         -0.2524711              -6.8701
        68                         -0.2358139              -6.4168
        69                         -0.1953874              -5.3168
        70                         -0.1916695              -5.2156
        71                         -0.1394898              -3.7957
        72                         -0.1243259              -3.3831
        73                         -0.1214438              -3.3047
        74                         -0.1132619              -3.0820
        75                         -0.1069977              -2.9116
       ...                                ...                  ...
       124                          0.7551556              20.5488
      -------------------------------------------------------------
                  HL-Gap            0.0599757 Eh            1.6320 eV

Wiberg/Mayer (AO) data.
largest (>0.10) Wiberg bond orders for each atom

     #   Z sym  total        # sym  WBO       # sym  WBO       # sym  WBO
 ---------------------------------------------------------------------------
     1   6 C    3.900 --    26 H    0.987    25 H    0.980    27 H    0.980
                             2 O    0.926
     2   8 O    2.159 --     3 C    1.045     1 C    0.926     4 O    0.109
     3   6 C    3.850 --     4 O    1.573     5 C    1.117     2 O    1.045
     4   8 O    1.849 --     3 C    1.573     2 O    0.109
     5   6 C    3.916 --    23 C    1.274     6 N    1.149     3 C    1.117
                            24 O    0.130
     6   7 N    3.030 --     7 C    1.641     5 C    1.149
     7   6 C    3.933 --     6 N    1.641    20 N    1.090     8 C    0.973
     8   6 C    3.931 --     9 C    0.992    10 C    0.989     7 C    0.973
                            11 N    0.915
     9   6 C    3.991 --     8 C    0.992    30 H    0.987    29 H    0.984
                            28 H    0.981
    10   6 C    3.991 --     8 C    0.989    31 H    0.984    33 H    0.984
                            32 H    0.984
    11   7 N    3.355 --    12 C    1.265     8 C    0.915    34 H    0.895
                            13 O    0.180
    12   6 C    3.920 --    13 O    1.583    11 N    1.265    14 C    0.988
    13   8 O    1.887 --    12 C    1.583    11 N    0.180
    14   6 C    3.870 --    15 N    1.625    19 O    1.048    12 C    0.988
    15   7 N    2.997 --    14 C    1.625    16 N    1.195
    16   7 N    2.981 --    17 C    1.614    15 N    1.195
    17   6 C    3.870 --    16 N    1.614    19 O    1.072    18 C    1.031
    18   6 C    3.987 --    17 C    1.031    36 H    0.983    35 H    0.965
                            37 H    0.962
    19   8 O    2.316 --    17 C    1.072    14 C    1.048
    20   7 N    3.427 --    21 C    1.165     7 C    1.090    38 H    0.898
                            22 O    0.136
    21   6 C    3.879 --    22 O    1.574    20 N    1.165    23 C    0.968
    22   8 O    1.855 --    21 C    1.574    20 N    0.136
    23   6 C    3.943 --    24 O    1.516     5 C    1.274    21 C    0.968
    24   8 O    1.822 --    23 C    1.516     5 C    0.130
    25   1 H    1.014 --     1 C    0.980
    26   1 H    1.016 --     1 C    0.987
    27   1 H    1.014 --     1 C    0.980
    28   1 H    1.014 --     9 C    0.981
    29   1 H    1.013 --     9 C    0.984
    30   1 H    1.003 --     9 C    0.987
    31   1 H    1.000 --    10 C    0.984
    32   1 H    0.998 --    10 C    0.984
    33   1 H    1.003 --    10 C    0.984
    34   1 H    0.937 --    11 N    0.895
    35   1 H    0.997 --    18 C    0.965
    36   1 H    0.999 --    18 C    0.983
    37   1 H    0.997 --    18 C    0.962
    38   1 H    0.949 --    20 N    0.898
 ---------------------------------------------------------------------------

           -------------------------------------------------
          | TOTAL ENERGY              -79.627253864704 Eh   |
          | GRADIENT NORM               0.000279689229 Eh/α |
          | HOMO-LUMO GAP               1.632022649979 eV   |
           -------------------------------------------------

 * finished run on 2023/06/21 at 17:00:41.398
