   * xtb version 6.5.1 (579679a) compiled by 'ehlert@majestix' on 2022-07-11
          program call               : /lustre/hpc/kemi/ree/PhD/git/ReactivityQM/dep/xtb-6.5.1/bin/xtb --gfn 1 /lustre/hpc/kemi/ree/PhD/git/ReactivityQM/calculations/R03/reac02prodN05/conf10/R03_reac02prodN05_conf10_gfn1.xyz --opt --vfukui --chrg 1 --uhf 0 --alpb DMSO

   ID    Z sym.   atoms
    1    6 C      1, 3, 5, 6, 8, 11-15, 17, 19, 22, 23, 26
    2    8 O      2, 4, 7, 9, 18, 24
    3    7 N      10, 16, 20, 21, 25
    4    1 H      27-46

      * Solvation model:               ALPB
        Solvent                        DMSO
        Solvent mass                       7.8130E+01 g/mol
          :  Hamiltonian                  GFN1-xTB          :
 * total energy  :   -86.3085445 Eh     change       -0.4574474E-10 Eh
 * total energy  :   -86.3278616 Eh     change       -0.1931710E-01 Eh
 * total energy  :   -86.3349493 Eh     change       -0.7087655E-02 Eh
 * total energy  :   -86.3364523 Eh     change       -0.1503011E-02 Eh
 * total energy  :   -86.3374476 Eh     change       -0.9952913E-03 Eh
 * total energy  :   -86.3381735 Eh     change       -0.7259709E-03 Eh
 * total energy  :   -86.3388462 Eh     change       -0.6726941E-03 Eh
 * total energy  :   -86.3393828 Eh     change       -0.5365307E-03 Eh
 * total energy  :   -86.3398593 Eh     change       -0.4765109E-03 Eh
 * total energy  :   -86.3402691 Eh     change       -0.4097723E-03 Eh
 * total energy  :   -86.3421901 Eh     change       -0.3050129E-04 Eh
 * total energy  :   -86.3422021 Eh     change       -0.1203243E-04 Eh
 * total energy  :   -86.3422137 Eh     change       -0.1163800E-04 Eh
 * total energy  :   -86.3422215 Eh     change       -0.7733219E-05 Eh
 * total energy  :   -86.3422313 Eh     change       -0.9816022E-05 Eh
 * total energy  :   -86.3422368 Eh     change       -0.5517701E-05 Eh
 * total energy  :   -86.3422436 Eh     change       -0.6797188E-05 Eh
 * total energy  :   -86.3422463 Eh     change       -0.2686136E-05 Eh
 * total energy  :   -86.3422493 Eh     change       -0.2964090E-05 Eh
   *** GEOMETRY OPTIMIZATION CONVERGED AFTER 41 ITERATIONS ***

 final structure:
================
46
 xtb: 6.5.1 (579679a)
C           -5.69200317963157        2.03752576838475        1.44691592427647
O           -4.50698334986568        1.92450075574751        0.63011225165424
C           -3.76082121689095        0.84837237397033        0.83270468838175
O           -4.01023392366719        0.00857071132500        1.65879186823812
C           -2.54399073833941        0.83507714669430       -0.04899774296712
C           -2.01069943472726        1.96199234406175       -0.60622363357416
O           -2.51689228417321        3.18064755945578       -0.55473261966151
C           -0.76036744356184        1.88506993267724       -1.36725087288890
O           -0.29346156058750        2.79079218910033       -2.01283179751809
N           -0.10048284718341        0.64008264675887       -1.28206095484088
C            1.14003661353610        0.62871189709641       -2.07836370475690
C           -0.58894696348746       -0.42831470724823       -0.62440870653845
C            0.32477661888369       -1.62721021073710       -0.32056824100655
C            0.32685049308101       -2.63377949982564       -1.48310917071033
C           -0.01022233856786       -2.32832219044999        1.01009943117898
N            1.65035865616637       -1.03815022855654       -0.11118728904378
C            2.81147190353494       -1.75514696387621       -0.15067260132692
O            2.92007663108312       -2.90786834751252       -0.51271919627300
C            3.96493093586848       -0.92546915058879        0.26169557404077
N            5.20750367311182       -1.27580865610990        0.36968735416160
N            5.89471800497541       -0.17156111565879        0.76879257709641
C            5.03121555241793        0.78987803585234        0.87845274580186
C            5.27594069322123        2.19022464234346        1.28428384375326
O            3.78847114400513        0.37999972204084        0.57002056554471
N           -1.84348821993280       -0.37081296755267       -0.17110739190972
C           -2.62973995208157       -1.59882872591125        0.04824696568699
H           -5.40475766037703        2.10637577402027        2.49714699467678
H           -6.19947979590373        2.94244757688208        1.12329888329069
H           -6.32243377565456        1.16100565062634        1.29140299541946
H           -3.36691535891858        3.23423198160860       -0.07982864961061
H            1.40337668893622       -0.38262426642477       -2.35566265727663
H            1.94218075399554        1.09377974866941       -1.50839163067869
H            0.94703497118774        1.21567508742534       -2.97644854206241
H           -0.68194050208901       -2.75570530293687       -1.87077890594963
H            0.68710960390987       -3.59802340675070       -1.13022178072860
H            0.97096568159364       -2.29998451483825       -2.29296822979076
H            0.89545824039012       -2.82853299738768        1.35224260160080
H           -0.31267809212108       -1.60535078549370        1.76416231709705
H           -0.77798162163023       -3.08717882119614        0.89467036017976
H            1.66477520904921       -0.19457827681463        0.43969343042165
H            4.70400447837788        2.41922331525535        2.18341921762279
H            6.33638519313335        2.33844612955529        1.47617534171247
H            4.94617311889936        2.86737553693298        0.49658359711848
H           -2.19220443082431       -2.40848849416142       -0.52357357277845
H           -2.67238442012331       -1.84484142554518        1.10624459071410
H           -3.63471074902229       -1.41342647091572       -0.32274022777560

          :  Hamiltonian                  GFN1-xTB          :
         :: total energy             -86.342249262690 Eh    ::
         :: gradient norm              0.000760124809 Eh/a0 ::
         :: HOMO-LUMO gap              2.618113738963 eV    ::
         :: SCC energy               -87.176045417752 Eh    ::
         :: -> Gsolv                  -0.119156229595 Eh    ::
         :: repulsion energy           0.864617366613 Eh    ::

    * Orbital Energies and Occupations

         #    Occupation            Energy/Eh            Energy/eV
      -------------------------------------------------------------
         1        2.0000           -0.8881649             -24.1682
       ...           ...                  ...                  ...
        58        2.0000           -0.5302483             -14.4288
        59        2.0000           -0.5266953             -14.3321
        60        2.0000           -0.5210150             -14.1775
        61        2.0000           -0.5203052             -14.1582
        62        2.0000           -0.5153180             -14.0225
        63        2.0000           -0.5143120             -13.9951
        64        2.0000           -0.4984984             -13.5648
        65        2.0000           -0.4905865             -13.3495
        66        2.0000           -0.4812104             -13.0944
        67        2.0000           -0.4771553             -12.9841
        68        2.0000           -0.4740898             -12.9006
        69        2.0000           -0.4622910             -12.5796
        70        2.0000           -0.4617680             -12.5653 (HOMO)
        71                         -0.3655541              -9.9472 (LUMO)
        72                         -0.3610012              -9.8233
        73                         -0.3257302              -8.8636
        74                         -0.2831382              -7.7046
        75                         -0.2653252              -7.2199
        76                         -0.2180381              -5.9331
        77                         -0.2128992              -5.7933
        78                         -0.1633299              -4.4444
        79                         -0.1559984              -4.2449
        80                         -0.1489645              -4.0535
        81                         -0.1483707              -4.0374
       ...                                ...                  ...
       144                          0.7288320              19.8325
      -------------------------------------------------------------
                  HL-Gap            0.0962139 Eh            2.6181 eV

Wiberg/Mayer (AO) data.
largest (>0.10) Wiberg bond orders for each atom

     #   Z sym  total        # sym  WBO       # sym  WBO       # sym  WBO
 ---------------------------------------------------------------------------
     1   6 C    3.836 --    28 H    0.984    29 H    0.978    27 H    0.978
                             2 O    0.862
     2   8 O    2.230 --     3 C    1.130     1 C    0.862     4 O    0.138
     3   6 C    3.864 --     4 O    1.671     2 O    1.130     5 C    0.987
     4   8 O    1.968 --     3 C    1.671     2 O    0.138
     5   6 C    3.918 --     6 C    1.518    25 N    1.073     3 C    0.987
                             7 O    0.106
     6   6 C    3.927 --     5 C    1.518     7 O    1.156     8 C    1.036
     7   8 O    2.129 --     6 C    1.156    30 H    0.778     5 C    0.106
     8   6 C    3.903 --     9 O    1.675    10 N    1.049     6 C    1.036
     9   8 O    1.975 --     8 C    1.675    10 N    0.117
    10   7 N    3.531 --    12 C    1.302     8 C    1.049    11 C    0.905
                             9 O    0.117
    11   6 C    3.889 --    31 H    0.977    32 H    0.971    33 H    0.966
                            10 N    0.905
    12   6 C    3.898 --    25 N    1.367    10 N    1.302    13 C    0.970
    13   6 C    3.927 --    15 C    0.980    14 C    0.974    12 C    0.970
                            16 N    0.938
    14   6 C    3.979 --    34 H    0.979    35 H    0.975    13 C    0.974
                            36 H    0.973
    15   6 C    3.981 --    38 H    0.983    13 C    0.980    39 H    0.979
                            37 H    0.976
    16   7 N    3.301 --    17 C    1.196    13 C    0.938    40 H    0.891
                            18 O    0.164
    17   6 C    3.908 --    18 O    1.623    16 N    1.196    19 C    1.000
    18   8 O    1.931 --    17 C    1.623    16 N    0.164
    19   6 C    3.875 --    20 N    1.620    24 O    1.042    17 C    1.000
    20   7 N    3.005 --    19 C    1.620    21 N    1.204
    21   7 N    2.984 --    22 C    1.606    20 N    1.204
    22   6 C    3.865 --    21 N    1.606    24 O    1.069    23 C    1.033
    23   6 C    3.985 --    22 C    1.033    42 H    0.982    43 H    0.962
                            41 H    0.961
    24   8 O    2.314 --    22 C    1.069    19 C    1.042
    25   7 N    3.555 --    12 C    1.367     5 C    1.073    26 C    0.899
    26   6 C    3.888 --    44 H    0.977    46 H    0.971    45 H    0.967
                            25 N    0.899
    27   1 H    1.002 --     1 C    0.978
    28   1 H    1.005 --     1 C    0.984
    29   1 H    1.002 --     1 C    0.978
    30   1 H    0.830 --     7 O    0.778
    31   1 H    1.006 --    11 C    0.977
    32   1 H    1.002 --    11 C    0.971
    33   1 H    0.999 --    11 C    0.966
    34   1 H    1.000 --    14 C    0.979
    35   1 H    1.007 --    14 C    0.975
    36   1 H    1.002 --    14 C    0.973
    37   1 H    0.997 --    15 C    0.976
    38   1 H    0.995 --    15 C    0.983
    39   1 H    0.999 --    15 C    0.979
    40   1 H    0.933 --    16 N    0.891
    41   1 H    0.996 --    23 C    0.961
    42   1 H    0.997 --    23 C    0.982
    43   1 H    0.996 --    23 C    0.962
    44   1 H    1.001 --    26 C    0.977
    45   1 H    1.006 --    26 C    0.967
    46   1 H    0.996 --    26 C    0.971
 ---------------------------------------------------------------------------

           -------------------------------------------------
          | TOTAL ENERGY              -86.342249262690 Eh   |
          | GRADIENT NORM               0.000760124809 Eh/α |
          | HOMO-LUMO GAP               2.618113738963 eV   |
           -------------------------------------------------

 * finished run on 2023/06/20 at 15:40:22.076
