   * xtb version 6.5.1 (579679a) compiled by 'ehlert@majestix' on 2022-07-11
          program call               : /lustre/hpc/kemi/ree/PhD/git/ReactivityQM/dep/xtb-6.5.1/bin/xtb --gfn 1 /lustre/hpc/kemi/ree/PhD/git/ReactivityQM/calculations/R03/reac01prodE04/conf04/R03_reac01prodE04_conf04_gfn1.xyz --opt --vfukui --chrg -1 --uhf 0 --alpb DMSO

   ID    Z sym.   atoms
    1    6 C      1, 2, 4-7, 9, 10
    2    9 F      3
    3    7 N      8
    4    1 H      11-21

      * Solvation model:               ALPB
        Solvent                        DMSO
        Solvent mass                       7.8130E+01 g/mol
          :  Hamiltonian                  GFN1-xTB          :
 * total energy  :   -31.4693496 Eh     change       -0.1957545E-10 Eh
 * total energy  :   -31.4753589 Eh     change       -0.6009258E-02 Eh
 * total energy  :   -31.4784013 Eh     change       -0.3042397E-02 Eh
 * total energy  :   -31.4802916 Eh     change       -0.1890342E-02 Eh
 * total energy  :   -31.4827805 Eh     change       -0.2488869E-02 Eh
 * total energy  :   -31.4880505 Eh     change       -0.5270011E-02 Eh
 * total energy  :   -31.4945404 Eh     change       -0.6489909E-02 Eh
 * total energy  :   -31.4975276 Eh     change       -0.2987160E-02 Eh
 * total energy  :   -31.5008333 Eh     change       -0.3305738E-02 Eh
 * total energy  :   -31.5029696 Eh     change       -0.2136304E-02 Eh
 * total energy  :   -31.5123356 Eh     change       -0.3360548E-04 Eh
 * total energy  :   -31.5123725 Eh     change       -0.3688591E-04 Eh
 * total energy  :   -31.5124294 Eh     change       -0.5690011E-04 Eh
 * total energy  :   -31.5124727 Eh     change       -0.4325876E-04 Eh
 * total energy  :   -31.5125139 Eh     change       -0.4123924E-04 Eh
 * total energy  :   -31.5125405 Eh     change       -0.2654344E-04 Eh
 * total energy  :   -31.5125649 Eh     change       -0.2445377E-04 Eh
 * total energy  :   -31.5125699 Eh     change       -0.5007215E-05 Eh
 * total energy  :   -31.5125744 Eh     change       -0.4499895E-05 Eh
   *** GEOMETRY OPTIMIZATION CONVERGED AFTER 58 ITERATIONS ***

 final structure:
================
21
 xtb: 6.5.1 (579679a)
C           -3.10735975343107       -0.01751860716371        0.26648029749677
C           -1.62949855366464        0.09484130215412        0.03860526600548
F           -3.46370641926841       -1.28696995067296        3.02615945546285
C           -0.93178136679309       -0.90156713470716       -0.64327890163426
C            0.43871463021723       -0.80576441187048       -0.83496771242338
C            1.15049369311458        0.28750514521233       -0.34634722597543
C            2.64518365913488        0.37911209782632       -0.54086762161707
N            3.34096337736900       -0.54625218734152        0.36698834779351
C            0.45662391250234        1.28340205827508        0.33592777609708
C           -0.91505153792719        1.18995040407230        0.52319231603021
H           -3.57501880926868       -0.63319400665540       -0.50285099005262
H           -3.57666990252355        0.96718925634381        0.26444908267712
H           -3.29499416325686       -0.48518742829289        1.24752810216292
H           -1.46517212409399       -1.75845668655275       -1.04224941708870
H            0.95997399030548       -1.58526341285908       -1.37972877548033
H            2.98982935094237        1.39316782580439       -0.31479518356816
H            2.90288474065775        0.15419177129474       -1.58675100841635
H            4.33119462453708       -0.36976291863525        0.28047049899608
H            3.18748744198926       -1.49302583138091        0.04048490525781
H            0.99132435419214        2.14800782209664        0.71588769231036
H           -1.43542214481181        1.98559789326267        1.04728409608787

          :  Hamiltonian                  GFN1-xTB          :
         :: total energy             -31.512574424085 Eh    ::
         :: gradient norm              0.000905373398 Eh/a0 ::
         :: HOMO-LUMO gap              2.428469612606 eV    ::
         :: SCC energy               -31.915492503598 Eh    ::
         :: -> Gsolv                  -0.131030693518 Eh    ::
         :: repulsion energy           0.412513195270 Eh    ::

    * Orbital Energies and Occupations

         #    Occupation            Energy/Eh            Energy/eV
      -------------------------------------------------------------
         1        2.0000           -0.7368044             -20.0495
       ...           ...                  ...                  ...
        16        2.0000           -0.5060586             -13.7706
        17        2.0000           -0.4947445             -13.4627
        18        2.0000           -0.4831321             -13.1467
        19        2.0000           -0.4747483             -12.9186
        20        2.0000           -0.4731391             -12.8748
        21        2.0000           -0.4490477             -12.2192
        22        2.0000           -0.4468502             -12.1594
        23        2.0000           -0.4214003             -11.4669
        24        2.0000           -0.4070614             -11.0767
        25        2.0000           -0.3955748             -10.7641
        26        2.0000           -0.3329948              -9.0613
        27        2.0000           -0.3329928              -9.0612
        28        2.0000           -0.3325380              -9.0488 (HOMO)
        29                         -0.2432934              -6.6204 (LUMO)
        30                         -0.2397298              -6.5234
        31                         -0.1199511              -3.2640
        32                         -0.1045023              -2.8437
        33                         -0.1000293              -2.7219
        34                         -0.0978519              -2.6627
        35                         -0.0856532              -2.3307
        36                         -0.0790918              -2.1522
        37                         -0.0728375              -1.9820
        38                         -0.0569470              -1.5496
        39                         -0.0419055              -1.1403
       ...                                ...                  ...
        62                          0.6642942              18.0764
      -------------------------------------------------------------
                  HL-Gap            0.0892446 Eh            2.4285 eV

Wiberg/Mayer (AO) data.
largest (>0.10) Wiberg bond orders for each atom

     #   Z sym  total        # sym  WBO       # sym  WBO       # sym  WBO
 ---------------------------------------------------------------------------
     1   6 C    3.989 --     2 C    1.030    11 H    0.985    12 H    0.983
                            13 H    0.930
     2   6 C    3.987 --    10 C    1.406     4 C    1.405     1 C    1.030
                             6 C    0.106
     3   9 F    0.096
     4   6 C    3.995 --     5 C    1.453     2 C    1.405    14 H    0.973
                             9 C    0.107
     5   6 C    3.996 --     4 C    1.453     6 C    1.413    15 H    0.974
                            10 C    0.108
     6   6 C    3.988 --     9 C    1.416     5 C    1.413     7 C    1.004
                             2 C    0.106
     7   6 C    3.979 --     6 C    1.004     8 N    0.984    16 H    0.981
                            17 H    0.972
     8   7 N    2.932 --     7 C    0.984    19 H    0.954    18 H    0.950
     9   6 C    3.995 --    10 C    1.450     6 C    1.416    20 H    0.973
                             4 C    0.107
    10   6 C    3.995 --     9 C    1.450     2 C    1.406    21 H    0.974
                             5 C    0.108
    11   1 H    1.006 --     1 C    0.985
    12   1 H    1.007 --     1 C    0.983
    13   1 H    1.039 --     1 C    0.930
    14   1 H    1.004 --     4 C    0.973
    15   1 H    1.002 --     5 C    0.974
    16   1 H    1.013 --     7 C    0.981
    17   1 H    1.005 --     7 C    0.972
    18   1 H    0.963 --     8 N    0.950
    19   1 H    0.969 --     8 N    0.954
    20   1 H    1.004 --     9 C    0.973
    21   1 H    1.003 --    10 C    0.974
 ---------------------------------------------------------------------------

           -------------------------------------------------
          | TOTAL ENERGY              -31.512574424085 Eh   |
          | GRADIENT NORM               0.000905373398 Eh/α |
          | HOMO-LUMO GAP               2.428469612606 eV   |
           -------------------------------------------------

 * finished run on 2023/06/20 at 15:13:48.353
