   * xtb version 6.5.1 (579679a) compiled by 'ehlert@majestix' on 2022-07-11
          program call               : /lustre/hpc/kemi/ree/PhD/git/ReactivityQM/dep/xtb-6.5.1/bin/xtb --gfn 1 /lustre/hpc/kemi/ree/PhD/git/ReactivityQM/calculations/R02oxygendeprot/reac01prodE09/conf16/R02oxygendeprot_reac01prodE09_conf16_gfn1.xyz --opt --vfukui --chrg -2 --uhf 0 --alpb DMSO

   ID    Z sym.   atoms
    1    6 C      1, 3, 5, 7-10, 12, 14, 16, 17, 20, 22, 24
    2    8 O      2, 4, 13, 15, 23, 25
    3    7 N      6, 11, 18, 19, 21
    4    1 H      26-42

      * Solvation model:               ALPB
        Solvent                        DMSO
        Solvent mass                       7.8130E+01 g/mol
          :  Hamiltonian                  GFN1-xTB          :
 * total energy  :   -83.5977774 Eh     change       -0.2516572E-08 Eh
 * total energy  :   -83.6119224 Eh     change       -0.1414506E-01 Eh
 * total energy  :   -83.6171948 Eh     change       -0.5272379E-02 Eh
 * total energy  :   -83.6146239 Eh     change        0.2570867E-02 Eh
 * total energy  :   -83.6190090 Eh     change       -0.4385087E-02 Eh
 * total energy  :   -83.6211343 Eh     change       -0.2125313E-02 Eh
 * total energy  :   -83.6251909 Eh     change       -0.4056537E-02 Eh
 * total energy  :   -83.6269345 Eh     change       -0.1743581E-02 Eh
 * total energy  :   -83.6293105 Eh     change       -0.2376043E-02 Eh
 * total energy  :   -83.6311328 Eh     change       -0.1822323E-02 Eh
 * total energy  :   -83.6348421 Eh     change       -0.1067570E-04 Eh
 * total energy  :   -83.6348573 Eh     change       -0.1526053E-04 Eh
 * total energy  :   -83.6348802 Eh     change       -0.2280859E-04 Eh
 * total energy  :   -83.6348997 Eh     change       -0.1956506E-04 Eh
 * total energy  :   -83.6349169 Eh     change       -0.1716202E-04 Eh
 * total energy  :   -83.6349241 Eh     change       -0.7174586E-05 Eh
 * total energy  :   -83.6349369 Eh     change       -0.1284337E-04 Eh
 * total energy  :   -83.6349451 Eh     change       -0.8242132E-05 Eh
 * total energy  :   -83.6349500 Eh     change       -0.4855737E-05 Eh
   *** GEOMETRY OPTIMIZATION CONVERGED AFTER 42 ITERATIONS ***

 final structure:
================
42
 xtb: 6.5.1 (579679a)
C           -5.81038588818723        0.91747312985539        1.96980572650440
O           -4.66800217175358        0.51938970856916        1.23012409358164
C           -4.80778627183126        0.55115433914403       -0.13571006729842
O           -5.86846216819142        0.90726973783071       -0.63096075620827
C           -3.60690070204101        0.12872960701080       -0.82953987747777
N           -2.54586363035499       -0.22817310709186       -0.01299321225075
C           -1.43819263842196       -0.62336749551319       -0.52381208466537
C           -0.29010583517912       -1.10556852505442        0.34624958763592
C           -0.37628220229242       -0.43873447943209        1.72817475896392
C           -0.44752185292637       -2.63241090628660        0.47392886353791
N            0.95190519462930       -0.76859512496271       -0.35385998046242
C            2.20324374152960       -1.01156112604019        0.35965193967325
O            2.31589801646909       -2.00848091560684        1.14252038586677
C            3.15709598718849       -0.05807106515532        0.16151493582735
O            3.06357371257105        0.99851848856586       -0.79460853823418
C            4.31825084760982        1.43919805507723       -0.93087229300992
C            4.57334197291212        2.56949387164007       -1.86856778801015
N            5.22368896459658        0.85612263667840       -0.24234075201872
N            4.57448173529051       -0.18624386482544        0.51310611786963
C            4.81877871468015        0.07212843885127        1.94132648255641
N           -1.26392963450883       -0.72334321960438       -1.88870209678518
C           -2.22102455319953       -0.40738072352432       -2.81002986693672
O           -1.98064955473822       -0.52425891354736       -4.01347566495682
C           -3.54157601348694        0.06858355053671       -2.24659866999139
O           -4.45868260129257        0.36570206159994       -3.03817829257280
H           -6.66337184375428        0.26566304159069        1.75269217853225
H           -6.08942070615176        1.94986490857188        1.73365379319791
H           -5.55230586242789        0.84143609309099        3.02542001177158
H            0.38279566534999       -0.85028667925819        2.39196913908541
H           -1.36168535972662       -0.61469269113135        2.15991921698913
H           -0.22387883854144        0.63655317928454        1.63572810352918
H           -0.27853678215098       -3.10218356538073       -0.49493957590682
H            0.26578116201496       -3.03734377979670        1.18970986602790
H           -1.45743333935440       -2.86916239498883        0.81086383819683
H            0.92576905844460        0.20965401070540       -0.63233627385323
H            4.30457850034201        2.28473352693450       -2.88560544391784
H            3.96811240325995        3.43035142705588       -1.58729621228400
H            5.62546447472844        2.84139014069351       -1.83740860919302
H            4.32957288465861       -0.72192514710167        2.50551479359855
H            4.42107009755841        1.04438707950821        2.25019023895333
H            5.89265160972735        0.04341052319777        2.12236430992799
H           -0.36405329304305       -1.02942483168925       -2.23427432579287

          :  Hamiltonian                  GFN1-xTB          :
         :: total energy             -83.634949996948 Eh    ::
         :: gradient norm              0.000673534836 Eh/a0 ::
         :: HOMO-LUMO gap              0.777634379654 eV    ::
         :: SCC energy               -84.377897533329 Eh    ::
         :: -> Gsolv                  -0.260631419023 Eh    ::
         :: repulsion energy           0.768394175313 Eh    ::

    * Orbital Energies and Occupations

         #    Occupation            Energy/Eh            Energy/eV
      -------------------------------------------------------------
         1        2.0000           -0.7889095             -21.4673
       ...           ...                  ...                  ...
        56        2.0000           -0.4469799             -12.1629
        57        2.0000           -0.4418841             -12.0243
        58        2.0000           -0.4276826             -11.6378
        59        2.0000           -0.4243587             -11.5474
        60        2.0000           -0.4189683             -11.4007
        61        2.0000           -0.4112397             -11.1904
        62        2.0000           -0.4005421             -10.8993
        63        2.0000           -0.3819670             -10.3939
        64        2.0000           -0.3797034             -10.3323
        65        2.0000           -0.3656013              -9.9485
        66        2.0000           -0.3570462              -9.7157
        67        2.0000           -0.3519026              -9.5758
        68        2.0000           -0.2877498              -7.8301 (HOMO)
        69        0.0000           -0.2591722              -7.0524 (LUMO)
        70                         -0.2208535              -6.0097
        71                         -0.2053050              -5.5866
        72                         -0.1856003              -5.0504
        73                         -0.1285779              -3.4988
        74                         -0.1203214              -3.2741
        75                         -0.1179511              -3.2096
        76                         -0.0969905              -2.6392
        77                         -0.0919901              -2.5032
        78                         -0.0898435              -2.4448
        79                         -0.0875143              -2.3814
       ...                                ...                  ...
       134                          0.7699392              20.9511
      -------------------------------------------------------------
                  HL-Gap            0.0285775 Eh            0.7776 eV

Wiberg/Mayer (AO) data.
largest (>0.10) Wiberg bond orders for each atom

     #   Z sym  total        # sym  WBO       # sym  WBO       # sym  WBO
 ---------------------------------------------------------------------------
     1   6 C    3.903 --    28 H    0.987    26 H    0.980    27 H    0.980
                             2 O    0.932
     2   8 O    2.132 --     3 C    1.016     1 C    0.932     4 O    0.106
     3   6 C    3.848 --     4 O    1.582     5 C    1.131     2 O    1.016
     4   8 O    1.860 --     3 C    1.582     2 O    0.106
     5   6 C    3.919 --    24 C    1.273     6 N    1.146     3 C    1.131
                            25 O    0.130
     6   7 N    3.021 --     7 C    1.632     5 C    1.146
     7   6 C    3.926 --     6 N    1.632    21 N    1.096     8 C    0.976
     8   6 C    3.966 --     9 C    0.988    10 C    0.980     7 C    0.976
                            11 N    0.966
     9   6 C    3.996 --     8 C    0.988    31 H    0.987    30 H    0.985
                            29 H    0.984
    10   6 C    3.993 --    34 H    0.989    32 H    0.987     8 C    0.980
                            33 H    0.977
    11   7 N    3.075 --     8 C    0.966    12 C    0.946    35 H    0.941
    12   6 C    3.932 --    14 C    1.521    13 O    1.335    11 N    0.946
    13   8 O    1.700 --    12 C    1.335    14 C    0.172
    14   6 C    3.661 --    12 C    1.521    19 N    0.947    15 O    0.873
                            13 O    0.172
    15   8 O    2.190 --    16 C    1.088    14 C    0.873    18 N    0.133
    16   6 C    3.906 --    18 N    1.709    15 O    1.088    17 C    1.014
    17   6 C    3.995 --    16 C    1.014    38 H    0.987    37 H    0.973
                            36 H    0.972
    18   7 N    2.947 --    16 C    1.709    19 N    0.987    15 O    0.133
    19   7 N    3.063 --    18 N    0.987    20 C    0.969    14 C    0.947
    20   6 C    3.981 --    41 H    0.989    39 H    0.987    40 H    0.984
                            19 N    0.969
    21   7 N    3.438 --    22 C    1.178     7 C    1.096    42 H    0.892
                            23 O    0.136
    22   6 C    3.882 --    23 O    1.559    21 N    1.178    24 C    0.971
    23   8 O    1.838 --    22 C    1.559    21 N    0.136
    24   6 C    3.944 --    25 O    1.510     5 C    1.273    22 C    0.971
    25   8 O    1.814 --    24 C    1.510     5 C    0.130
    26   1 H    1.015 --     1 C    0.980
    27   1 H    1.015 --     1 C    0.980
    28   1 H    1.017 --     1 C    0.987
    29   1 H    1.017 --     9 C    0.984
    30   1 H    1.019 --     9 C    0.985
    31   1 H    1.008 --     9 C    0.987
    32   1 H    1.012 --    10 C    0.987
    33   1 H    1.032 --    10 C    0.977
    34   1 H    1.010 --    10 C    0.989
    35   1 H    0.981 --    11 N    0.941
    36   1 H    1.004 --    17 C    0.972
    37   1 H    1.003 --    17 C    0.973
    38   1 H    1.006 --    17 C    0.987
    39   1 H    1.034 --    20 C    0.987
    40   1 H    1.021 --    20 C    0.984
    41   1 H    1.025 --    20 C    0.989
    42   1 H    0.963 --    21 N    0.892
 ---------------------------------------------------------------------------

           -------------------------------------------------
          | TOTAL ENERGY              -83.634949996948 Eh   |
          | GRADIENT NORM               0.000673534836 Eh/α |
          | HOMO-LUMO GAP               0.777634379654 eV   |
           -------------------------------------------------

 * finished run on 2023/06/21 at 17:10:43.981
