   * xtb version 6.5.1 (579679a) compiled by 'ehlert@majestix' on 2022-07-11
          program call               : /lustre/hpc/kemi/ree/PhD/git/ReactivityQM/dep/xtb-6.5.1/bin/xtb --gfn 1 /lustre/hpc/kemi/ree/PhD/git/ReactivityQM/calculations/R02deprot/reac01prodN13/conf10/R02deprot_reac01prodN13_conf10_gfn1.xyz --opt --vfukui --chrg 0 --uhf 0 --alpb DMSO

   ID    Z sym.   atoms
    1    6 C      1, 3, 5, 7-10, 12, 14, 15, 18, 19, 22, 24
    2    8 O      2, 4, 13, 20, 23, 25
    3    7 N      6, 11, 16, 17, 21
    4    1 H      26-42

      * Solvation model:               ALPB
        Solvent                        DMSO
        Solvent mass                       7.8130E+01 g/mol
          :  Hamiltonian                  GFN1-xTB          :
 * total energy  :   -82.9184609 Eh     change       -0.6563710E-09 Eh
 * total energy  :   -82.9308126 Eh     change       -0.1235168E-01 Eh
 * total energy  :   -82.9354350 Eh     change       -0.4622429E-02 Eh
 * total energy  :   -82.9361631 Eh     change       -0.7280815E-03 Eh
 * total energy  :   -82.9366144 Eh     change       -0.4513018E-03 Eh
 * total energy  :   -82.9368204 Eh     change       -0.2060758E-03 Eh
 * total energy  :   -82.9370044 Eh     change       -0.1839465E-03 Eh
 * total energy  :   -82.9371784 Eh     change       -0.1740376E-03 Eh
 * total energy  :   -82.9373426 Eh     change       -0.1641879E-03 Eh
 * total energy  :   -82.9374889 Eh     change       -0.1463191E-03 Eh
 * total energy  :   -82.9862809 Eh     change       -0.1103494E-04 Eh
 * total energy  :   -82.9862922 Eh     change       -0.1134757E-04 Eh
 * total energy  :   -82.9863048 Eh     change       -0.1255186E-04 Eh
 * total energy  :   -82.9863124 Eh     change       -0.7630970E-05 Eh
 * total energy  :   -82.9863212 Eh     change       -0.8840385E-05 Eh
 * total energy  :   -82.9863266 Eh     change       -0.5376927E-05 Eh
 * total energy  :   -82.9863324 Eh     change       -0.5767098E-05 Eh
 * total energy  :   -82.9863393 Eh     change       -0.6899767E-05 Eh
 * total energy  :   -82.9863420 Eh     change       -0.2685880E-05 Eh
   *** GEOMETRY OPTIMIZATION CONVERGED AFTER 159 ITERATIONS ***

 final structure:
================
42
 xtb: 6.5.1 (579679a)
C            6.61259608471273        1.12147851836546       -0.96911965680204
O            5.20750361485357        1.41499991667463       -0.93827143057388
C            4.40998477642279        0.43142738801140       -0.50216673168431
O            4.82729366774014       -0.64545447102718       -0.15284617813645
C            2.96629875310273        0.80988760615386       -0.49055314103446
N            2.15591049831610       -0.14117380720961        0.01657405073784
C            0.86295509552042        0.07899913950266        0.07268239918852
C            0.00986520189289       -1.00963365793538        0.69050689844970
C            0.39646244835963       -2.36986731952210        0.09613341379360
C            0.24378831924345       -0.98521647641498        2.21004239641022
N           -1.39123872753826       -0.71001471548591        0.39439275172735
C           -2.40900468199967       -1.45394960869720        0.82924826095925
O           -2.31857131072197       -2.47648344631966        1.48898485774260
C           -3.80899416930539       -0.91118975136736        0.44426348809240
C           -4.58014830333537       -0.54399212925338        1.71180385600043
N           -4.52242880108991       -1.95862604688187       -0.28424281492980
N           -4.84049015185032       -1.55000905779371       -1.41044683773383
C           -4.40148352001916       -0.22660985546227       -1.58297278729408
C           -4.61150458332683        0.50798796712454       -2.67214482152400
O           -3.74373770958609        0.16965618803716       -0.45983226052918
N            0.26723272921129        1.21215697716690       -0.33175052951992
C            1.02833493233030        2.16532363956544       -0.82526696752938
O            0.46863356571198        3.30882287484552       -1.22036031043897
C            2.43743672265994        2.01234906208705       -0.94218482566528
O            3.12815034285092        3.03250612645848       -1.47084108718646
H            7.11391959412251        2.03494034535736       -1.27918543648040
H            6.94970236531656        0.81843382773605        0.02459594769635
H            6.80694996976485        0.31782141358430       -1.68259903930777
H            1.46610382230153       -2.52501339389868        0.23030477377853
H           -0.14691352993075       -3.17013099354718        0.59544899800645
H            0.16623316557356       -2.38892255215211       -0.96830187944396
H            1.30687123252086       -1.11164894137723        2.40940646635465
H           -0.30955635895964       -1.78938958673899        2.69168294555767
H           -0.08391008455420       -0.03050254169100        2.61801851170293
H           -1.57411708399770        0.15905753913141       -0.09027859365156
H           -4.09510935922424        0.30149358546650        2.19350466623821
H           -5.60031122327166       -0.27205286784170        1.45052648508260
H           -4.58543478883392       -1.39804392344654        2.38612486666007
H           -0.48342044146134        3.30148617059363       -1.05766602245329
H           -5.14353853231468        0.09269454247995       -3.51161021729094
H           -4.26552686414700        1.52537251450557       -2.74375919827110
H            4.08321032294807        2.85102780123555       -1.50958626672299

          :  Hamiltonian                  GFN1-xTB          :
         :: total energy             -82.986341977094 Eh    ::
         :: gradient norm              0.000398079613 Eh/a0 ::
         :: HOMO-LUMO gap              2.481451822644 eV    ::
         :: SCC energy               -83.767288939830 Eh    ::
         :: -> Gsolv                  -0.054388515174 Eh    ::
         :: repulsion energy           0.807183936003 Eh    ::

    * Orbital Energies and Occupations

         #    Occupation            Energy/Eh            Energy/eV
      -------------------------------------------------------------
         1        2.0000           -0.8461632             -23.0253
       ...           ...                  ...                  ...
        55        2.0000           -0.5007402             -13.6258
        56        2.0000           -0.4997195             -13.5981
        57        2.0000           -0.4975219             -13.5383
        58        2.0000           -0.4966166             -13.5136
        59        2.0000           -0.4831679             -13.1477
        60        2.0000           -0.4787327             -13.0270
        61        2.0000           -0.4715204             -12.8307
        62        2.0000           -0.4608179             -12.5395
        63        2.0000           -0.4496742             -12.2363
        64        2.0000           -0.4404844             -11.9862
        65        2.0000           -0.4349561             -11.8358
        66        2.0000           -0.4318943             -11.7524
        67        2.0000           -0.4222795             -11.4908 (HOMO)
        68                         -0.3310878              -9.0094 (LUMO)
        69                         -0.3243694              -8.8265
        70                         -0.2825479              -7.6885
        71                         -0.2529992              -6.8845
        72                         -0.2402802              -6.5384
        73                         -0.2111385              -5.7454
        74                         -0.1558875              -4.2419
        75                         -0.1377950              -3.7496
        76                         -0.1264185              -3.4400
        77                         -0.1189141              -3.2358
        78                         -0.1171397              -3.1875
       ...                                ...                  ...
       134                          0.7269237              19.7806
      -------------------------------------------------------------
                  HL-Gap            0.0911917 Eh            2.4815 eV

Wiberg/Mayer (AO) data.
largest (>0.10) Wiberg bond orders for each atom

     #   Z sym  total        # sym  WBO       # sym  WBO       # sym  WBO
 ---------------------------------------------------------------------------
     1   6 C    3.860 --    26 H    0.986    27 H    0.980    28 H    0.980
                             2 O    0.883
     2   8 O    2.206 --     3 C    1.092     1 C    0.883     4 O    0.132
     3   6 C    3.845 --     4 O    1.677     2 O    1.092     5 C    0.997
     4   8 O    1.939 --     3 C    1.677     2 O    0.132
     5   6 C    3.968 --    24 C    1.395     6 N    1.292     3 C    0.997
     6   7 N    3.032 --     7 C    1.467     5 C    1.292
     7   6 C    3.944 --     6 N    1.467    21 N    1.308     8 C    0.984
     8   6 C    3.935 --     9 C    0.986     7 C    0.984    10 C    0.974
                            11 N    0.925
     9   6 C    3.991 --    31 H    0.986     8 C    0.986    29 H    0.983
                            30 H    0.982
    10   6 C    3.990 --    34 H    0.986    32 H    0.985    33 H    0.980
                             8 C    0.974
    11   7 N    3.368 --    12 C    1.313     8 C    0.925    35 H    0.878
                            13 O    0.176
    12   6 C    3.907 --    13 O    1.591    11 N    1.313    14 C    0.893
    13   8 O    1.905 --    12 C    1.591    11 N    0.176
    14   6 C    3.882 --    16 N    0.976    15 C    0.959    20 O    0.924
                            12 C    0.893
    15   6 C    3.986 --    37 H    0.983    36 H    0.983    38 H    0.983
                            14 C    0.959
    16   7 N    3.012 --    17 N    1.821    14 C    0.976    19 C    0.118
    17   7 N    3.021 --    16 N    1.821    18 C    1.068
    18   6 C    3.884 --    19 C    1.756    17 N    1.068    20 O    1.007
    19   6 C    3.976 --    18 C    1.756    40 H    0.978    41 H    0.976
                            16 N    0.118
    20   8 O    2.145 --    18 C    1.007    14 C    0.924
    21   7 N    3.042 --    22 C    1.414     7 C    1.308
    22   6 C    3.907 --    21 N    1.414    24 C    1.208    23 O    1.102
    23   8 O    2.082 --    22 C    1.102    39 H    0.816
    24   6 C    3.924 --     5 C    1.395    22 C    1.208    25 O    1.095
    25   8 O    2.069 --    24 C    1.095    42 H    0.802
    26   1 H    1.009 --     1 C    0.986
    27   1 H    1.006 --     1 C    0.980
    28   1 H    1.006 --     1 C    0.980
    29   1 H    1.012 --     9 C    0.983
    30   1 H    1.010 --     9 C    0.982
    31   1 H    1.004 --     9 C    0.986
    32   1 H    1.006 --    10 C    0.985
    33   1 H    1.009 --    10 C    0.980
    34   1 H    1.003 --    10 C    0.986
    35   1 H    0.960 --    11 N    0.878
    36   1 H    1.001 --    15 C    0.983
    37   1 H    1.001 --    15 C    0.983
    38   1 H    1.004 --    15 C    0.983
    39   1 H    0.844 --    23 O    0.816
    40   1 H    1.000 --    19 C    0.978
    41   1 H    0.997 --    19 C    0.976
    42   1 H    0.853 --    25 O    0.802
 ---------------------------------------------------------------------------

           -------------------------------------------------
          | TOTAL ENERGY              -82.986341977094 Eh   |
          | GRADIENT NORM               0.000398079613 Eh/α |
          | HOMO-LUMO GAP               2.481451822644 eV   |
           -------------------------------------------------

 * finished run on 2023/06/20 at 18:21:21.643
