                         Program Version 5.0.1 -  RELEASE  -
|  1> # ORCA input file
|  2> ! SP r2SCAN-3c CPCM
|  3>
|  4> %maxcore 1875.0
|  5> %pal nprocs 4 end
|  6> %cpcm smd true SMDsolvent "DMSO" end
|  7>
|  8> *xyz 1 1
|  9> C      -6.336670    0.596097   -1.709879
| 10> O      -5.120584    1.267305   -2.096352
| 11> C      -4.005814    1.056451   -1.521724
| 12> C      -2.833324    1.775284   -2.053622
| 13> O      -3.976744    0.238741   -0.523388
| 14> C      -2.834003   -0.219162    0.145672
| 15> N      -1.673999   -0.249930   -0.535765
| 16> C      -0.603322   -0.734748    0.038085
| 17> C       0.634321   -0.834627   -0.843400
| 18> C       0.435831   -0.024321   -2.130601
| 19> C       0.858263   -2.313791   -1.197606
| 20> N       1.773250   -0.264645   -0.119218
| 21> C       3.039312   -0.277609   -0.617650
| 22> O       3.412145   -0.907179   -1.586898
| 23> C       3.932363    0.563568    0.213857
| 24> N       3.584092    1.261505    1.253744
| 25> N       4.710104    1.876631    1.707645
| 26> C       5.675137    1.516137    0.914266
| 27> C       7.098093    1.915114    0.980963
| 28> O       5.245275    0.687839   -0.047963
| 29> N      -0.637093   -1.192766    1.315917
| 30> C       0.504642   -1.765049    2.043534
| 31> C      -1.799286   -1.181952    2.105520
| 32> O      -1.769884   -1.596609    3.248449
| 33> C      -2.976341   -0.658977    1.428599
| 34> O      -4.117966   -0.644964    2.131628
| 35> H      -6.122684   -0.444876   -1.474260
| 36> H      -7.005209    0.681589   -2.563968
| 37> H      -6.752125    1.106514   -0.842121
| 38> H      -2.198454    2.119090   -1.239353
| 39> H      -3.160997    2.601813   -2.680817
| 40> H      -2.246644    1.077555   -2.653587
| 41> H       0.250902    1.020561   -1.890254
| 42> H       1.333634   -0.095419   -2.742757
| 43> H      -0.408103   -0.418018   -2.692736
| 44> H      -0.064361   -2.716864   -1.612070
| 45> H       1.134312   -2.895741   -0.321785
| 46> H       1.646332   -2.402178   -1.942773
| 47> H       1.564213    0.450980    0.561101
| 48> H       7.389859    2.404686    0.051822
| 49> H       7.725905    1.033067    1.108983
| 50> H       7.248853    2.595168    1.815788
| 51> H       1.403370   -1.733343    1.442249
| 52> H       0.646979   -1.187508    2.957168
| 53> H       0.259652   -2.794185    2.306711
| 54> H      -4.863234   -0.291232    1.632300
| 55> **                         ****END OF INPUT****

CARTESIAN COORDINATES (ANGSTROEM)
---------------------------------
  C     -6.336670    0.596097   -1.709879
  O     -5.120584    1.267305   -2.096352
  C     -4.005814    1.056451   -1.521724
  C     -2.833324    1.775284   -2.053622
  O     -3.976744    0.238741   -0.523388
  C     -2.834003   -0.219162    0.145672
  N     -1.673999   -0.249930   -0.535765
  C     -0.603322   -0.734748    0.038085
  C      0.634321   -0.834627   -0.843400
  C      0.435831   -0.024321   -2.130601
  C      0.858263   -2.313791   -1.197606
  N      1.773250   -0.264645   -0.119218
  C      3.039312   -0.277609   -0.617650
  O      3.412145   -0.907179   -1.586898
  C      3.932363    0.563568    0.213857
  N      3.584092    1.261505    1.253744
  N      4.710104    1.876631    1.707645
  C      5.675137    1.516137    0.914266
  C      7.098093    1.915114    0.980963
  O      5.245275    0.687839   -0.047963
  N     -0.637093   -1.192766    1.315917
  C      0.504642   -1.765049    2.043534
  C     -1.799286   -1.181952    2.105520
  O     -1.769884   -1.596609    3.248449
  C     -2.976341   -0.658977    1.428599
  O     -4.117966   -0.644964    2.131628
  H     -6.122684   -0.444876   -1.474260
  H     -7.005209    0.681589   -2.563968
  H     -6.752125    1.106514   -0.842121
  H     -2.198454    2.119090   -1.239353
  H     -3.160997    2.601813   -2.680817
  H     -2.246644    1.077555   -2.653587
  H      0.250902    1.020561   -1.890254
  H      1.333634   -0.095419   -2.742757
  H     -0.408103   -0.418018   -2.692736
  H     -0.064361   -2.716864   -1.612070
  H      1.134312   -2.895741   -0.321785
  H      1.646332   -2.402178   -1.942773
  H      1.564213    0.450980    0.561101
  H      7.389859    2.404686    0.051822
  H      7.725905    1.033067    1.108983
  H      7.248853    2.595168    1.815788
  H      1.403370   -1.733343    1.442249
  H      0.646979   -1.187508    2.957168
  H      0.259652   -2.794185    2.306711
  H     -4.863234   -0.291232    1.632300

 Total Charge           Charge          ....    1
 Multiplicity           Mult            ....    1
 Number of Electrons    NEL             ....  192
 Basis Dimension        Dim             ....  649

ORBITAL ENERGIES
----------------

  NO   OCC          E(Eh)            E(eV)
   0   2.0000     -19.098366      -519.6930
   1   2.0000     -19.081297      -519.2285
   2   2.0000     -19.067080      -518.8416
   3   2.0000     -19.017111      -517.4819
   4   2.0000     -18.940601      -515.3999
   5   2.0000     -18.940400      -515.3945
   6   2.0000     -14.252595      -387.8328
   7   2.0000     -14.208651      -386.6371
   8   2.0000     -14.201957      -386.4549
   9   2.0000     -14.199697      -386.3934
  10   2.0000     -14.187721      -386.0675
  11   2.0000     -10.257386      -279.1177
  12   2.0000     -10.171078      -276.7691
  13   2.0000     -10.161480      -276.5079
  14   2.0000     -10.158871      -276.4369
  15   2.0000     -10.148911      -276.1659
  16   2.0000     -10.147077      -276.1160
  17   2.0000     -10.145688      -276.0782
  18   2.0000     -10.138108      -275.8719
  19   2.0000     -10.112481      -275.1746
  20   2.0000     -10.110050      -275.1084
  21   2.0000     -10.067386      -273.9475
  22   2.0000     -10.064637      -273.8727
  23   2.0000     -10.046566      -273.3810
  24   2.0000     -10.025849      -272.8172
  25   2.0000     -10.022279      -272.7201
  26   2.0000      -1.186621       -32.2896
  27   2.0000      -1.157832       -31.5062
  28   2.0000      -1.113848       -30.3093
  29   2.0000      -1.068575       -29.0774
  30   2.0000      -1.035398       -28.1746
  31   2.0000      -1.030185       -28.0328
  32   2.0000      -0.984569       -26.7915
  33   2.0000      -0.978357       -26.6225
  34   2.0000      -0.918295       -24.9881
  35   2.0000      -0.906007       -24.6537
  36   2.0000      -0.835605       -22.7380
  37   2.0000      -0.813924       -22.1480
  38   2.0000      -0.789715       -21.4892
  39   2.0000      -0.758458       -20.6387
  40   2.0000      -0.732103       -19.9215
  41   2.0000      -0.716074       -19.4854
  42   2.0000      -0.714188       -19.4340
  43   2.0000      -0.686951       -18.6929
  44   2.0000      -0.667890       -18.1742
  45   2.0000      -0.665808       -18.1176
  46   2.0000      -0.655102       -17.8262
  47   2.0000      -0.619302       -16.8521
  48   2.0000      -0.599358       -16.3094
  49   2.0000      -0.589371       -16.0376
  50   2.0000      -0.585172       -15.9233
  51   2.0000      -0.563834       -15.3427
  52   2.0000      -0.546367       -14.8674
  53   2.0000      -0.543114       -14.7789
  54   2.0000      -0.534576       -14.5466
  55   2.0000      -0.526692       -14.3320
  56   2.0000      -0.516010       -14.0413
  57   2.0000      -0.496755       -13.5174
  58   2.0000      -0.483684       -13.1617
  59   2.0000      -0.475102       -12.9282
  60   2.0000      -0.458700       -12.4819
  61   2.0000      -0.456311       -12.4168
  62   2.0000      -0.449275       -12.2254
  63   2.0000      -0.443151       -12.0588
  64   2.0000      -0.434254       -11.8167
  65   2.0000      -0.424034       -11.5385
  66   2.0000      -0.416224       -11.3260
  67   2.0000      -0.415793       -11.3143
  68   2.0000      -0.410762       -11.1774
  69   2.0000      -0.405852       -11.0438
  70   2.0000      -0.402897       -10.9634
  71   2.0000      -0.398888       -10.8543
  72   2.0000      -0.396526       -10.7900
  73   2.0000      -0.394169       -10.7259
  74   2.0000      -0.384836       -10.4719
  75   2.0000      -0.383017       -10.4224
  76   2.0000      -0.381817       -10.3898
  77   2.0000      -0.374474       -10.1900
  78   2.0000      -0.369394       -10.0517
  79   2.0000      -0.364314        -9.9135
  80   2.0000      -0.358229        -9.7479
  81   2.0000      -0.355738        -9.6801
  82   2.0000      -0.352783        -9.5997
  83   2.0000      -0.348016        -9.4700
  84   2.0000      -0.346353        -9.4247
  85   2.0000      -0.340743        -9.2721
  86   2.0000      -0.326133        -8.8745
  87   2.0000      -0.321337        -8.7440
  88   2.0000      -0.284280        -7.7357
  89   2.0000      -0.280733        -7.6391
  90   2.0000      -0.271494        -7.3877
  91   2.0000      -0.268039        -7.2937
  92   2.0000      -0.255381        -6.9493
  93   2.0000      -0.250372        -6.8130
  94   2.0000      -0.242719        -6.6047
  95   2.0000      -0.222319        -6.0496
  96   0.0000      -0.115958        -3.1554
  97   0.0000      -0.090551        -2.4640
  98   0.0000      -0.072392        -1.9699
  99   0.0000      -0.047464        -1.2916
 100   0.0000      -0.022891        -0.6229

MULLIKEN ATOMIC CHARGES
-----------------------
   0 C :   -0.298137
   1 O :   -0.127390
   2 C :    0.511268
   3 C :   -0.502082
   4 O :   -0.077923
   5 C :    0.053555
   6 N :   -0.148387
   7 C :    0.119020
   8 C :    0.009637
   9 C :   -0.705292
  10 C :   -0.531511
  11 N :   -0.105160
  12 C :   -0.073997
  13 O :   -0.443238
  14 C :    0.359136
  15 N :   -0.142765
  16 N :   -0.310966
  17 C :    0.410586
  18 C :   -0.636972
  19 O :   -0.026495
  20 N :    0.223464
  21 C :   -0.427619
  22 C :    0.129001
  23 O :   -0.426215
  24 C :    0.121522
  25 O :   -0.369036
  26 H :    0.199566
  27 H :    0.206309
  28 H :    0.213559
  29 H :    0.233572
  30 H :    0.212083
  31 H :    0.246866
  32 H :    0.203786
  33 H :    0.195971
  34 H :    0.197226
  35 H :    0.194788
  36 H :    0.187750
  37 H :    0.205957
  38 H :    0.334903
  39 H :    0.201175
  40 H :    0.201569
  41 H :    0.205311
  42 H :    0.212110
  43 H :    0.200286
  44 H :    0.200871
  45 H :    0.362337
Sum of atomic charges:    1.0000000

LOEWDIN ATOMIC CHARGES
----------------------
   0 C :    0.003295
   1 O :   -0.479262
   2 C :    0.497277
   3 C :   -0.279960
   4 O :   -0.400604
   5 C :    0.389385
   6 N :   -0.537981
   7 C :    0.388762
   8 C :    0.112698
   9 C :   -0.332795
  10 C :   -0.338067
  11 N :   -0.604874
  12 C :    0.381889
  13 O :   -0.450213
  14 C :    0.417362
  15 N :   -0.358249
  16 N :   -0.358217
  17 C :    0.379246
  18 C :   -0.317059
  19 O :   -0.358957
  20 N :   -0.623740
  21 C :   -0.069349
  22 C :    0.385914
  23 O :   -0.440992
  24 C :    0.282905
  25 O :   -0.415418
  26 H :    0.200788
  27 H :    0.205694
  28 H :    0.203553
  29 H :    0.213799
  30 H :    0.199932
  31 H :    0.226886
  32 H :    0.176318
  33 H :    0.177923
  34 H :    0.177770
  35 H :    0.175831
  36 H :    0.174748
  37 H :    0.187647
  38 H :    0.304858
  39 H :    0.192058
  40 H :    0.192204
  41 H :    0.191308
  42 H :    0.211856
  43 H :    0.205917
  44 H :    0.203117
  45 H :    0.304795

  Mayer bond orders larger than 0.100000
B(  0-C ,  1-O ) :   0.7971 B(  0-C , 26-H ) :   0.9436 B(  0-C , 27-H ) :   0.9461
B(  0-C , 28-H ) :   0.9319 B(  1-O ,  2-C ) :   1.3846 B(  2-C ,  3-C ) :   0.9994
B(  2-C ,  4-O ) :   1.2118 B(  3-C , 29-H ) :   0.9283 B(  3-C , 30-H ) :   0.9307
B(  3-C , 31-H ) :   0.8771 B(  4-O ,  5-C ) :   0.9445 B(  5-C ,  6-N ) :   1.2376
B(  5-C , 24-C ) :   1.3153 B(  6-N ,  7-C ) :   1.5314 B(  6-N , 20-N ) :   0.1120
B(  7-C ,  8-C ) :   0.9098 B(  7-C , 11-N ) :  -0.1120 B(  7-C , 20-N ) :   1.3084
B(  8-C ,  9-C ) :   0.8378 B(  8-C , 10-C ) :   0.9462 B(  8-C , 11-N ) :   0.8674
B(  9-C , 32-H ) :   0.9656 B(  9-C , 33-H ) :   0.9591 B(  9-C , 34-H ) :   0.9563
B( 10-C , 35-H ) :   0.9625 B( 10-C , 36-H ) :   0.9362 B( 10-C , 37-H ) :   0.9560
B( 11-N , 12-C ) :   1.1295 B( 11-N , 38-H ) :   0.8679 B( 12-C , 13-O ) :   1.9281
B( 12-C , 14-C ) :   0.8322 B( 14-C , 15-N ) :   1.6598 B( 14-C , 17-C ) :   0.1052
B( 14-C , 19-O ) :   1.1257 B( 15-N , 16-N ) :   1.1801 B( 16-N , 17-C ) :   1.5946
B( 17-C , 18-C ) :   0.8305 B( 17-C , 19-O ) :   1.0728 B( 18-C , 39-H ) :   0.9427
B( 18-C , 40-H ) :   0.9420 B( 18-C , 41-H ) :   0.9883 B( 20-N , 21-C ) :   0.8472
B( 20-N , 22-C ) :   1.0543 B( 21-C , 42-H ) :   0.9226 B( 21-C , 43-H ) :   0.9328
B( 21-C , 44-H ) :   0.9346 B( 22-C , 23-O ) :   1.8773 B( 22-C , 24-C ) :   1.0036
B( 24-C , 25-O ) :   1.0223 B( 25-O , 45-H ) :   0.8479

Dispersion correction           -0.020701237
FINAL SINGLE POINT ENERGY     -1308.344359864111

DIPOLE MOMENT
-------------
                                X             Y             Z
Electronic contribution:     -3.08711       1.42746       8.24417
Nuclear contribution   :     -2.88649       0.21089     -11.69576
                        -----------------------------------------
Total Dipole Moment    :     -5.97359       1.63836      -3.45159
                        -----------------------------------------
Magnitude (a.u.)       :      7.09094
Magnitude (Debye)      :     18.02375

Rotational constants in cm-1:     0.012691     0.003150     0.002874
Rotational constants in MHz :   380.464228    94.449533    86.165138

                             ****ORCA TERMINATED NORMALLY****
TOTAL RUN TIME: 0 days 0 hours 1 minutes 33 seconds 956 msec
