   * xtb version 6.5.1 (579679a) compiled by 'ehlert@majestix' on 2022-07-11
          program call               : /lustre/hpc/kemi/ree/PhD/git/ReactivityQM/dep/xtb-6.5.1/bin/xtb --gfn 1 /lustre/hpc/kemi/ree/PhD/git/ReactivityQM/calculations/R03/reac02prodN08/conf01/R03_reac02prodN08_conf01_gfn1.xyz --opt --vfukui --chrg 1 --uhf 0 --alpb DMSO

   ID    Z sym.   atoms
    1    6 C      1, 3, 4, 6, 8-11, 13, 15, 18, 19, 22, 23, 25
    2    8 O      2, 5, 14, 20, 24, 26
    3    7 N      7, 12, 16, 17, 21
    4    1 H      27-46

      * Solvation model:               ALPB
        Solvent                        DMSO
        Solvent mass                       7.8130E+01 g/mol
          :  Hamiltonian                  GFN1-xTB          :
 * total energy  :   -86.1933769 Eh     change       -0.1164864E-09 Eh
 * total energy  :   -86.2141669 Eh     change       -0.2078992E-01 Eh
 * total energy  :   -86.2288814 Eh     change       -0.1471451E-01 Eh
 * total energy  :   -86.2339256 Eh     change       -0.5044261E-02 Eh
 * total energy  :   -86.2374637 Eh     change       -0.3538118E-02 Eh
 * total energy  :   -86.2395448 Eh     change       -0.2081067E-02 Eh
 * total energy  :   -86.2407361 Eh     change       -0.1191310E-02 Eh
 * total energy  :   -86.2415848 Eh     change       -0.8486341E-03 Eh
 * total energy  :   -86.2425155 Eh     change       -0.9307176E-03 Eh
 * total energy  :   -86.2437791 Eh     change       -0.1263620E-02 Eh
 * total energy  :   -86.3404302 Eh     change       -0.7332630E-04 Eh
 * total energy  :   -86.3404780 Eh     change       -0.4787689E-04 Eh
 * total energy  :   -86.3405448 Eh     change       -0.6673832E-04 Eh
 * total energy  :   -86.3405847 Eh     change       -0.3992216E-04 Eh
 * total energy  :   -86.3406211 Eh     change       -0.3638973E-04 Eh
 * total energy  :   -86.3406380 Eh     change       -0.1690620E-04 Eh
 * total energy  :   -86.3406511 Eh     change       -0.1314127E-04 Eh
 * total energy  :   -86.3406579 Eh     change       -0.6797673E-05 Eh
 * total energy  :   -86.3406615 Eh     change       -0.3582532E-05 Eh
   *** GEOMETRY OPTIMIZATION CONVERGED AFTER 96 ITERATIONS ***

 final structure:
================
46
 xtb: 6.5.1 (579679a)
C           -6.33666974047828        0.59609681117383       -1.70987944789823
O           -5.12058370593907        1.26730517983149       -2.09635216713341
C           -4.00581350560945        1.05645144205706       -1.52172368556218
C           -2.83332362485395        1.77528438092939       -2.05362173950273
O           -3.97674356443279        0.23874081623437       -0.52338758090457
C           -2.83400272537073       -0.21916213733787        0.14567185362190
N           -1.67399922061755       -0.24992967093850       -0.53576484297295
C           -0.60332194834394       -0.73474826850999        0.03808499154233
C            0.63432059456185       -0.83462677239314       -0.84340047987967
C            0.43583080843476       -0.02432106183503       -2.13060094428414
C            0.85826256489362       -2.31379136957618       -1.19760571118452
N            1.77325024878479       -0.26464512302053       -0.11921843311225
C            3.03931236107584       -0.27760870354841       -0.61764991747000
O            3.41214465586505       -0.90717902206877       -1.58689795063774
C            3.93236305670150        0.56356761554721        0.21385690493632
N            3.58409216719581        1.26150460207129        1.25374395259584
N            4.71010373149816        1.87663134713473        1.70764519867467
C            5.67513696506837        1.51613657708743        0.91426613691370
C            7.09809305079741        1.91511379893305        0.98096302131044
O            5.24527503708441        0.68783856504856       -0.04796344421331
N           -0.63709263609078       -1.19276615227549        1.31591651786469
C            0.50464229788071       -1.76504854232854        2.04353352123364
C           -1.79928604632773       -1.18195168064587        2.10552019648555
O           -1.76988444321607       -1.59660851703524        3.24844915916429
C           -2.97634142217595       -0.65897710073135        1.42859906141272
O           -4.11796564122250       -0.64496404742448        2.13162788428950
H           -6.12268411080148       -0.44487642761154       -1.47426025406790
H           -7.00520922309398        0.68158866762158       -2.56396787312640
H           -6.75212455259900        1.10651414209026       -0.84212122442541
H           -2.19845361140283        2.11909001811517       -1.23935325471810
H           -3.16099725806446        2.60181322229600       -2.68081746417947
H           -2.24664397338555        1.07755485312894       -2.65358650694523
H            0.25090152962618        1.02056058204066       -1.89025369313387
H            1.33363420632240       -0.09541881208126       -2.74275736236374
H           -0.40810301847250       -0.41801781538531       -2.69273624318630
H           -0.06436106479239       -2.71686381048592       -1.61207023988014
H            1.13431243185653       -2.89574066860220       -0.32178489322644
H            1.64633197983955       -2.40217825525635       -1.94277276471175
H            1.56421313022441        0.45097965003128        0.56110134273430
H            7.38985866235758        2.40468634649564        0.05182196325355
H            7.72590465700939        1.03306725999393        1.10898283796709
H            7.24885274044970        2.59516770802291        1.81578775631713
H            1.40337042840126       -1.73334325075493        1.44224857299137
H            0.64697857420577       -1.18750757980242        2.95716788723338
H            0.25965221610622       -2.79418467021313        2.30671050083970
H           -4.86323405895787       -0.29123212609637        1.63229985733254

          :  Hamiltonian                  GFN1-xTB          :
         :: total energy             -86.340661511906 Eh    ::
         :: gradient norm              0.000644896191 Eh/a0 ::
         :: HOMO-LUMO gap              2.296132208503 eV    ::
         :: SCC energy               -87.177578880866 Eh    ::
         :: -> Gsolv                  -0.116722127415 Eh    ::
         :: repulsion energy           0.866006407070 Eh    ::

    * Orbital Energies and Occupations

         #    Occupation            Energy/Eh            Energy/eV
      -------------------------------------------------------------
         1        2.0000           -0.9311759             -25.3386
       ...           ...                  ...                  ...
        58        2.0000           -0.5276582             -14.3583
        59        2.0000           -0.5191849             -14.1277
        60        2.0000           -0.5132712             -13.9668
        61        2.0000           -0.5109220             -13.9029
        62        2.0000           -0.4960675             -13.4987
        63        2.0000           -0.4892572             -13.3134
        64        2.0000           -0.4868800             -13.2487
        65        2.0000           -0.4832381             -13.1496
        66        2.0000           -0.4733004             -12.8792
        67        2.0000           -0.4669969             -12.7076
        68        2.0000           -0.4580999             -12.4655
        69        2.0000           -0.4547830             -12.3753
        70        2.0000           -0.4502189             -12.2511 (HOMO)
        71                         -0.3658376              -9.9549 (LUMO)
        72                         -0.3224331              -8.7739
        73                         -0.3191161              -8.6836
        74                         -0.3011517              -8.1948
        75                         -0.2612337              -7.1085
        76                         -0.2068162              -5.6278
        77                         -0.1970067              -5.3608
        78                         -0.1787844              -4.8650
        79                         -0.1659738              -4.5164
        80                         -0.1491792              -4.0594
        81                         -0.1437812              -3.9125
       ...                                ...                  ...
       144                          0.7228523              19.6698
      -------------------------------------------------------------
                  HL-Gap            0.0843813 Eh            2.2961 eV

Wiberg/Mayer (AO) data.
largest (>0.10) Wiberg bond orders for each atom

     #   Z sym  total        # sym  WBO       # sym  WBO       # sym  WBO
 ---------------------------------------------------------------------------
     1   6 C    3.810 --    28 H    0.978    27 H    0.976    29 H    0.967
                             2 O    0.839
     2   8 O    2.339 --     3 C    1.323     1 C    0.839
     3   6 C    3.769 --     2 O    1.323     5 O    1.235     4 C    1.037
     4   6 C    3.964 --     3 C    1.037    31 H    0.969    30 H    0.952
                            32 H    0.920
     5   8 O    2.344 --     3 C    1.235     6 C    0.888
     6   6 C    3.835 --    25 C    1.474     7 N    1.223     5 O    0.888
     7   7 N    3.026 --     8 C    1.490     6 C    1.223
     8   6 C    3.921 --     7 N    1.490    21 N    1.233     9 C    0.977
     9   6 C    3.935 --    10 C    0.989     8 C    0.977    11 C    0.976
                            12 N    0.928
    10   6 C    3.988 --     9 C    0.989    33 H    0.984    35 H    0.982
                            34 H    0.979
    11   6 C    3.984 --    36 H    0.984    37 H    0.981     9 C    0.976
                            38 H    0.975
    12   7 N    3.320 --    13 C    1.213     9 C    0.928    39 H    0.895
                            14 O    0.167
    13   6 C    3.912 --    14 O    1.617    12 N    1.213    15 C    0.994
    14   8 O    1.930 --    13 C    1.617    12 N    0.167
    15   6 C    3.878 --    16 N    1.604    20 O    1.065    13 C    0.994
    16   7 N    3.019 --    15 C    1.604    17 N    1.205
    17   7 N    2.981 --    18 C    1.598    16 N    1.205
    18   6 C    3.869 --    17 N    1.598    20 O    1.085    19 C    1.032
    19   6 C    3.985 --    18 C    1.032    42 H    0.982    40 H    0.963
                            41 H    0.962
    20   8 O    2.334 --    18 C    1.085    15 C    1.065
    21   7 N    3.516 --     8 C    1.233    23 C    1.080    22 C    0.920
                            24 O    0.130
    22   6 C    3.909 --    43 H    0.976    45 H    0.973    44 H    0.973
                            21 N    0.920
    23   6 C    3.915 --    24 O    1.609    25 C    1.082    21 N    1.080
    24   8 O    1.920 --    23 C    1.609    21 N    0.130
    25   6 C    3.927 --     6 C    1.474    26 O    1.094    23 C    1.082
    26   8 O    2.080 --    25 C    1.094    46 H    0.819
    27   1 H    0.997 --     1 C    0.976
    28   1 H    0.999 --     1 C    0.978
    29   1 H    0.995 --     1 C    0.967
    30   1 H    0.996 --     4 C    0.952
    31   1 H    0.988 --     4 C    0.969
    32   1 H    1.002 --     4 C    0.920
    33   1 H    1.004 --    10 C    0.984
    34   1 H    1.003 --    10 C    0.979
    35   1 H    1.008 --    10 C    0.982
    36   1 H    1.000 --    11 C    0.984
    37   1 H    0.999 --    11 C    0.981
    38   1 H    1.009 --    11 C    0.975
    39   1 H    0.950 --    12 N    0.895
    40   1 H    0.996 --    19 C    0.963
    41   1 H    0.996 --    19 C    0.962
    42   1 H    0.998 --    19 C    0.982
    43   1 H    1.009 --    22 C    0.976
    44   1 H    1.002 --    22 C    0.973
    45   1 H    1.001 --    22 C    0.973
    46   1 H    0.837 --    26 O    0.819
 ---------------------------------------------------------------------------

           -------------------------------------------------
          | TOTAL ENERGY              -86.340661511906 Eh   |
          | GRADIENT NORM               0.000644896191 Eh/α |
          | HOMO-LUMO GAP               2.296132208503 eV   |
           -------------------------------------------------

 * finished run on 2023/06/20 at 15:42:56.919
