   * xtb version 6.5.1 (579679a) compiled by 'ehlert@majestix' on 2022-07-11
          program call               : /lustre/hpc/kemi/ree/PhD/git/ReactivityQM/dep/xtb-6.5.1/bin/xtb --gfn 1 /lustre/hpc/kemi/ree/PhD/git/ReactivityQM/calculations/R01/reac02prodN12/conf18/R01_reac02prodN12_conf18_gfn1.xyz --opt --vfukui --chrg 1 --uhf 0 --alpb DMSO

   ID    Z sym.   atoms
    1    6 C      1, 3, 5, 7-10, 13, 15, 16
    2    8 O      2, 4, 14, 17
    3    7 N      6, 11, 12
    4    1 H      18-33

      * Solvation model:               ALPB
        Solvent                        DMSO
        Solvent mass                       7.8130E+01 g/mol
          :  Hamiltonian                  GFN1-xTB          :
 * total energy  :   -57.8371433 Eh     change       -0.4703793E-11 Eh
 * total energy  :   -57.8546065 Eh     change       -0.1746315E-01 Eh
 * total energy  :   -57.8602765 Eh     change       -0.5670077E-02 Eh
 * total energy  :   -57.8616710 Eh     change       -0.1394441E-02 Eh
 * total energy  :   -57.8625876 Eh     change       -0.9166227E-03 Eh
 * total energy  :   -57.8628740 Eh     change       -0.2863984E-03 Eh
 * total energy  :   -57.8630171 Eh     change       -0.1431029E-03 Eh
 * total energy  :   -57.8630872 Eh     change       -0.7008968E-04 Eh
 * total energy  :   -57.8631221 Eh     change       -0.3486747E-04 Eh
 * total energy  :   -57.8631491 Eh     change       -0.2700656E-04 Eh
 * total energy  :   -57.8632222 Eh     change       -0.1138202E-04 Eh
 * total energy  :   -57.8632343 Eh     change       -0.1208973E-04 Eh
 * total energy  :   -57.8632485 Eh     change       -0.1417405E-04 Eh
 * total energy  :   -57.8632616 Eh     change       -0.1307318E-04 Eh
 * total energy  :   -57.8632728 Eh     change       -0.1124780E-04 Eh
 * total energy  :   -57.8632848 Eh     change       -0.1196983E-04 Eh
 * total energy  :   -57.8632979 Eh     change       -0.1308321E-04 Eh
 * total energy  :   -57.8633103 Eh     change       -0.1243715E-04 Eh
 * total energy  :   -57.8633143 Eh     change       -0.3983608E-05 Eh
   *** GEOMETRY OPTIMIZATION CONVERGED AFTER 22 ITERATIONS ***

 final structure:
================
33
 xtb: 6.5.1 (579679a)
C           -2.59465608864512       -3.77822183442149       -0.97640185633510
O           -1.68612046681746       -2.69442915687312       -0.71837053428519
C           -2.18054855249186       -1.48061284486263       -0.76437306831976
O           -3.33932375687491       -1.21933051964607       -1.02105942041305
C           -1.18137237416271       -0.40903458598617       -0.45493077454950
N            0.08574659588317       -0.78088621785853       -0.19831831334587
C            0.98197800908557        0.11900211843415        0.09342613661794
C            2.40209295389132       -0.26854983129739        0.45593380011234
C            2.55502291479434       -1.78952195902628        0.38823548453392
C            3.39912104950208        0.42542977320004       -0.47853154494659
N            2.65335571600374        0.17421780462416        1.82206544877986
N            0.63118555512238        1.43726401646509        0.14869468631394
C           -0.60674160285629        1.89058811999750       -0.09709638867764
O           -0.73471966678138        3.18620917029168        0.00962067390411
C           -1.97735907175123        3.88070748427876       -0.20135789131520
C           -1.59073504819438        0.92234839135692       -0.42896340578424
O           -2.83107557058275        1.31697402657303       -0.68660324634440
H           -2.01463847720880       -4.69326892848798       -0.87984622294315
H           -3.00410767145305       -3.68365469461538       -1.98367453371203
H           -3.40697000665430       -3.75581989705676       -0.24770791518733
H            1.83021343085017       -2.26813405946289        1.04518918622946
H            3.55961295324528       -2.06309239697826        0.70736355937030
H            2.39077151421744       -2.13971745671963       -0.62988905362745
H            3.23492152129612        0.11168198311142       -1.50824681384735
H            4.41237175042705        0.16133070629564       -0.17867115325593
H            3.28995558586345        1.50680036258634       -0.41819123523407
H            2.69047790584776        1.18111392059797        1.86842200349112
H            1.91786055967107       -0.14746803516951        2.43602141925739
H            1.32032570800478        2.13498078851492        0.40069457563487
H           -2.32208202453694        3.73084285525340       -1.22497193580118
H           -1.74933811307159        4.93106604401729       -0.02543795073033
H           -2.72900644964037        3.52984419902587        0.50622547830727
H           -3.40621878198458        0.53134165383631       -0.88856419389825

          :  Hamiltonian                  GFN1-xTB          :
         :: total energy             -57.863314299400 Eh    ::
         :: gradient norm              0.000210593415 Eh/a0 ::
         :: HOMO-LUMO gap              1.650553716546 eV    ::
         :: SCC energy               -58.435593292439 Eh    ::
         :: -> Gsolv                  -0.093870955711 Eh    ::
         :: repulsion energy           0.590322860174 Eh    ::

    * Orbital Energies and Occupations

         #    Occupation            Energy/Eh            Energy/eV
      -------------------------------------------------------------
         1        2.0000           -0.8927502             -24.2930
       ...           ...                  ...                  ...
        35        2.0000           -0.5373530             -14.6221
        36        2.0000           -0.5334574             -14.5161
        37        2.0000           -0.5307046             -14.4412
        38        2.0000           -0.5294055             -14.4059
        39        2.0000           -0.5261128             -14.3163
        40        2.0000           -0.5209130             -14.1748
        41        2.0000           -0.5160779             -14.0432
        42        2.0000           -0.5133841             -13.9699
        43        2.0000           -0.5094179             -13.8620
        44        2.0000           -0.5036148             -13.7041
        45        2.0000           -0.4819761             -13.1152
        46        2.0000           -0.4770574             -12.9814
        47        2.0000           -0.4369480             -11.8900 (HOMO)
        48                         -0.3762913             -10.2394 (LUMO)
        49                         -0.3286604              -8.9433
        50                         -0.2848742              -7.7518
        51                         -0.2016440              -5.4870
        52                         -0.1640567              -4.4642
        53                         -0.1525878              -4.1521
        54                         -0.1479558              -4.0261
        55                         -0.1371271              -3.7314
        56                         -0.1279871              -3.4827
        57                         -0.1023742              -2.7857
        58                         -0.1014594              -2.7608
       ...                                ...                  ...
       100                          0.6834297              18.5971
      -------------------------------------------------------------
                  HL-Gap            0.0606567 Eh            1.6506 eV

Wiberg/Mayer (AO) data.
largest (>0.10) Wiberg bond orders for each atom

     #   Z sym  total        # sym  WBO       # sym  WBO       # sym  WBO
 ---------------------------------------------------------------------------
     1   6 C    3.848 --    18 H    0.985    20 H    0.977    19 H    0.977
                             2 O    0.875
     2   8 O    2.244 --     3 C    1.175     1 C    0.875     4 O    0.142
     3   6 C    3.856 --     4 O    1.622     2 O    1.175     5 C    0.985
     4   8 O    1.973 --     3 C    1.622     2 O    0.142
     5   6 C    3.970 --    16 C    1.379     6 N    1.295     3 C    0.985
     6   7 N    3.044 --     7 C    1.503     5 C    1.295
     7   6 C    3.891 --     6 N    1.503    12 N    1.177     8 C    0.969
     8   6 C    3.959 --     9 C    0.998    10 C    0.984    11 N    0.976
                             7 C    0.969
     9   6 C    3.992 --     8 C    0.998    23 H    0.985    22 H    0.984
                            21 H    0.984
    10   6 C    3.990 --    24 H    0.985     8 C    0.984    26 H    0.982
                            25 H    0.981
    11   7 N    2.977 --     8 C    0.976    27 H    0.937    28 H    0.936
    12   7 N    3.540 --    13 C    1.271     7 C    1.177    29 H    0.865
    13   6 C    3.893 --    12 N    1.271    16 C    1.202    14 O    1.181
    14   8 O    2.257 --    13 C    1.181    15 C    0.858
    15   6 C    3.826 --    31 H    0.981    32 H    0.976    30 H    0.976
                            14 O    0.858
    16   6 C    3.934 --     5 C    1.379    13 C    1.202    17 O    1.137
    17   8 O    2.095 --    16 C    1.137    33 H    0.741
    18   1 H    1.007 --     1 C    0.985
    19   1 H    1.002 --     1 C    0.977
    20   1 H    1.002 --     1 C    0.977
    21   1 H    1.004 --     9 C    0.984
    22   1 H    1.003 --     9 C    0.984
    23   1 H    1.004 --     9 C    0.985
    24   1 H    1.000 --    10 C    0.985
    25   1 H    0.999 --    10 C    0.981
    26   1 H    0.997 --    10 C    0.982
    27   1 H    0.951 --    11 N    0.937
    28   1 H    0.950 --    11 N    0.936
    29   1 H    0.912 --    12 N    0.865
    30   1 H    1.005 --    15 C    0.976
    31   1 H    1.004 --    15 C    0.981
    32   1 H    1.005 --    15 C    0.976
    33   1 H    0.827 --    17 O    0.741
 ---------------------------------------------------------------------------

           -------------------------------------------------
          | TOTAL ENERGY              -57.863314299400 Eh   |
          | GRADIENT NORM               0.000210593415 Eh/α |
          | HOMO-LUMO GAP               1.650553716546 eV   |
           -------------------------------------------------

 * finished run on 2023/06/20 at 15:11:44.201
