   * xtb version 6.5.1 (579679a) compiled by 'ehlert@majestix' on 2022-07-11
          program call               : /lustre/hpc/kemi/ree/PhD/git/ReactivityQM/dep/xtb-6.5.1/bin/xtb --gfn 1 /lustre/hpc/kemi/ree/PhD/git/ReactivityQM/calculations/R02deprot/reac01prodN19/conf14/R02deprot_reac01prodN19_conf14_gfn1.xyz --opt --vfukui --chrg 0 --uhf 0 --alpb DMSO

   ID    Z sym.   atoms
    1    6 C      1, 3, 5, 7-10, 12, 14, 17, 18, 21, 23, 24
    2    8 O      2, 4, 13, 19, 22, 25
    3    7 N      6, 11, 15, 16, 20
    4    1 H      26-42

      * Solvation model:               ALPB
        Solvent                        DMSO
        Solvent mass                       7.8130E+01 g/mol
          :  Hamiltonian                  GFN1-xTB          :
 * total energy  :   -82.9910409 Eh     change       -0.7133849E-11 Eh
 * total energy  :   -83.0037024 Eh     change       -0.1266152E-01 Eh
 * total energy  :   -83.0086438 Eh     change       -0.4941349E-02 Eh
 * total energy  :   -83.0094654 Eh     change       -0.8215769E-03 Eh
 * total energy  :   -83.0098994 Eh     change       -0.4339802E-03 Eh
 * total energy  :   -83.0100742 Eh     change       -0.1748430E-03 Eh
 * total energy  :   -83.0102467 Eh     change       -0.1725442E-03 Eh
 * total energy  :   -83.0103710 Eh     change       -0.1242415E-03 Eh
 * total energy  :   -83.0104621 Eh     change       -0.9108234E-04 Eh
 * total energy  :   -83.0105333 Eh     change       -0.7122580E-04 Eh
 * total energy  :   -83.0113428 Eh     change       -0.1945982E-04 Eh
 * total energy  :   -83.0113639 Eh     change       -0.2112824E-04 Eh
 * total energy  :   -83.0113840 Eh     change       -0.2005005E-04 Eh
 * total energy  :   -83.0113984 Eh     change       -0.1439762E-04 Eh
 * total energy  :   -83.0114086 Eh     change       -0.1024849E-04 Eh
 * total energy  :   -83.0114153 Eh     change       -0.6679709E-05 Eh
 * total energy  :   -83.0114216 Eh     change       -0.6308461E-05 Eh
 * total energy  :   -83.0114278 Eh     change       -0.6198524E-05 Eh
 * total energy  :   -83.0114311 Eh     change       -0.3276525E-05 Eh
   *** GEOMETRY OPTIMIZATION CONVERGED AFTER 44 ITERATIONS ***

 final structure:
================
42
 xtb: 6.5.1 (579679a)
C           -1.71346712703467        4.15260610397491        1.08042637915518
O           -1.60879769833115        2.76006496874584        0.77100207007352
C           -2.63638694318402        1.99497106591251        1.14296802696916
O           -3.60562966401958        2.42714433042566        1.72133937440403
C           -2.44339480169263        0.56682182033064        0.74642388584115
N           -1.23820170193737        0.22726408894885        0.24040392049720
C           -1.02947411395024       -1.01095363606889       -0.14191855661599
C            0.31596936201975       -1.38490602062429       -0.72860552540307
C            0.16435169450994       -1.49709372514058       -2.25392118571336
C            0.79671958946777       -2.71161954805931       -0.12772866237118
N            1.25020692302911       -0.31412906574462       -0.39485477987017
C            2.55025331256033       -0.31729578912216       -0.73342497105733
O            3.11499935585319       -1.17978749215594       -1.38660132280973
C            3.24530331907358        0.88283679417157       -0.19344806472439
N            2.70851847980121        1.82757577905814        0.51815881495221
N            3.70602955928543        2.70667591062017        0.82074512198611
C            4.78759627309364        2.24050272273055        0.27478792952847
C            6.14464392344597        2.82880732588908        0.31346532619090
O            4.56175257799156        1.09177989433380       -0.37999132274081
N           -1.94387673997321       -1.99509716449197       -0.08593146051358
C           -3.12316432090792       -1.69687337005771        0.41226058862344
O           -4.08071408085403       -2.62280045972373        0.51264475903414
C           -3.76341583048598       -3.94411826177739        0.07254999797537
C           -3.44008078425458       -0.38869958091512        0.86584510836273
O           -4.65443144148848       -0.11948675526163        1.36731422888896
H           -1.68707188489756        4.29953452878514        2.16289572297600
H           -0.86266382439628        4.64295994532392        0.61182763833989
H           -2.64837071337696        4.55613738610842        0.68412339569537
H            1.10759843779381       -1.80338364967209       -2.70299080197551
H           -0.59901595275601       -2.23872658058000       -2.48261326102402
H           -0.13605583117218       -0.53595962097722       -2.66876321428401
H            0.95510384886802       -2.59934949385237        0.94389667221267
H            0.03883582835944       -3.47447692636568       -0.29613866887054
H            1.72767418282436       -3.02399608670778       -0.59705798179563
H            0.87513235450111        0.46634952500592        0.13345788178705
H            6.85781869744272        2.09579277519485        0.68954914698455
H            6.14441202510125        3.70497347509164        0.95717645891194
H            6.45503416108180        3.11696183472099       -0.69107856281128
H           -4.66513911695641       -4.53835708078303        0.20747207204839
H           -2.94519657387564       -4.35287840841533        0.67113602572854
H           -3.46950190711638       -3.93047671730924       -0.98003184177365
H           -5.21390485343875       -0.90929484156765        1.36479063719811

          :  Hamiltonian                  GFN1-xTB          :
         :: total energy             -83.011431086331 Eh    ::
         :: gradient norm              0.000362567489 Eh/a0 ::
         :: HOMO-LUMO gap              2.945713518849 eV    ::
         :: SCC energy               -83.788913433658 Eh    ::
         :: -> Gsolv                  -0.051516178251 Eh    ::
         :: repulsion energy           0.802488518463 Eh    ::

    * Orbital Energies and Occupations

         #    Occupation            Energy/Eh            Energy/eV
      -------------------------------------------------------------
         1        2.0000           -0.8623923             -23.4669
       ...           ...                  ...                  ...
        55        2.0000           -0.5017719             -13.6539
        56        2.0000           -0.4992405             -13.5850
        57        2.0000           -0.4976582             -13.5420
        58        2.0000           -0.4815644             -13.1040
        59        2.0000           -0.4811701             -13.0933
        60        2.0000           -0.4761580             -12.9569
        61        2.0000           -0.4715141             -12.8306
        62        2.0000           -0.4605647             -12.5326
        63        2.0000           -0.4584183             -12.4742
        64        2.0000           -0.4496739             -12.2363
        65        2.0000           -0.4448395             -12.1047
        66        2.0000           -0.4358904             -11.8612
        67        2.0000           -0.4323237             -11.7641 (HOMO)
        68                         -0.3240707              -8.8184 (LUMO)
        69                         -0.3073318              -8.3629
        70                         -0.2846630              -7.7461
        71                         -0.2560305              -6.9669
        72                         -0.2398014              -6.5253
        73                         -0.1954952              -5.3197
        74                         -0.1572368              -4.2786
        75                         -0.1425011              -3.8777
        76                         -0.1412799              -3.8444
        77                         -0.1402905              -3.8175
        78                         -0.1209399              -3.2909
       ...                                ...                  ...
       134                          0.7273824              19.7931
      -------------------------------------------------------------
                  HL-Gap            0.1082530 Eh            2.9457 eV

Wiberg/Mayer (AO) data.
largest (>0.10) Wiberg bond orders for each atom

     #   Z sym  total        # sym  WBO       # sym  WBO       # sym  WBO
 ---------------------------------------------------------------------------
     1   6 C    3.872 --    27 H    0.986    28 H    0.979    26 H    0.979
                             2 O    0.898
     2   8 O    2.202 --     3 C    1.113     1 C    0.898     4 O    0.136
     3   6 C    3.849 --     4 O    1.666     2 O    1.113     5 C    0.993
     4   8 O    1.929 --     3 C    1.666     2 O    0.136
     5   6 C    3.967 --    24 C    1.405     6 N    1.285     3 C    0.993
     6   7 N    3.047 --     7 C    1.471     5 C    1.285
     7   6 C    3.945 --     6 N    1.471    20 N    1.303     8 C    0.984
     8   6 C    3.936 --    10 C    0.985     7 C    0.984     9 C    0.974
                            11 N    0.929
     9   6 C    3.990 --    31 H    0.986    30 H    0.985    29 H    0.980
                             8 C    0.974
    10   6 C    3.990 --    32 H    0.986     8 C    0.985    33 H    0.984
                            34 H    0.981
    11   7 N    3.362 --    12 C    1.272     8 C    0.929    35 H    0.882
                            13 O    0.182
    12   6 C    3.920 --    13 O    1.581    11 N    1.272    14 C    0.985
    13   8 O    1.900 --    12 C    1.581    11 N    0.182
    14   6 C    3.873 --    15 N    1.614    19 O    1.063    12 C    0.985
    15   7 N    3.013 --    14 C    1.614    16 N    1.196
    16   7 N    2.980 --    17 C    1.608    15 N    1.196
    17   6 C    3.872 --    16 N    1.608    19 O    1.082    18 C    1.031
    18   6 C    3.987 --    17 C    1.031    37 H    0.983    36 H    0.966
                            38 H    0.962
    19   8 O    2.328 --    17 C    1.082    14 C    1.063
    20   7 N    3.028 --    21 C    1.417     7 C    1.303
    21   6 C    3.907 --    20 N    1.417    24 C    1.203    22 O    1.085
    22   8 O    2.186 --    21 C    1.085    23 C    0.895
    23   6 C    3.869 --    39 H    0.984    41 H    0.980    40 H    0.979
                            22 O    0.895
    24   6 C    3.924 --     5 C    1.405    21 C    1.203    25 O    1.092
    25   8 O    2.070 --    24 C    1.092    42 H    0.816
    26   1 H    1.007 --     1 C    0.979
    27   1 H    1.011 --     1 C    0.986
    28   1 H    1.008 --     1 C    0.979
    29   1 H    1.009 --     9 C    0.980
    30   1 H    1.005 --     9 C    0.985
    31   1 H    1.003 --     9 C    0.986
    32   1 H    1.003 --    10 C    0.986
    33   1 H    1.012 --    10 C    0.984
    34   1 H    1.010 --    10 C    0.981
    35   1 H    0.971 --    11 N    0.882
    36   1 H    0.997 --    18 C    0.966
    37   1 H    0.999 --    18 C    0.983
    38   1 H    0.997 --    18 C    0.962
    39   1 H    1.009 --    23 C    0.984
    40   1 H    1.008 --    23 C    0.979
    41   1 H    1.009 --    23 C    0.980
    42   1 H    0.844 --    25 O    0.816
 ---------------------------------------------------------------------------

           -------------------------------------------------
          | TOTAL ENERGY              -83.011431086331 Eh   |
          | GRADIENT NORM               0.000362567489 Eh/α |
          | HOMO-LUMO GAP               2.945713518849 eV   |
           -------------------------------------------------

 * finished run on 2023/06/20 at 18:30:58.535
