                         Program Version 5.0.1 -  RELEASE  -
|  1> # ORCA input file
|  2> ! SP r2SCAN-3c CPCM
|  3>
|  4> %maxcore 1875.0
|  5> %pal nprocs 4 end
|  6> %cpcm smd true SMDsolvent "DMSO" end
|  7>
|  8> *xyz -1 1
|  9> C      -5.788504    1.751361   -1.150831
| 10> O      -4.560622    1.123583   -0.789935
| 11> C      -4.337779   -0.087852   -1.332658
| 12> O      -5.145103   -0.614718   -2.098132
| 13> C      -3.079497   -0.702748   -0.936165
| 14> N      -2.261241   -0.009930   -0.082855
| 15> C      -1.128776   -0.503773    0.298289
| 16> C      -0.317319    0.360008    1.261077
| 17> C      -0.261198   -0.299740    2.647544
| 18> C      -0.985175    1.738529    1.390785
| 19> N       1.017753    0.540312    0.701551
| 20> C       2.027330    1.202677    1.289181
| 21> O       2.056681    1.591612    2.447748
| 22> C       3.215414    1.383892    0.279480
| 23> C       3.792428    2.794961    0.433078
| 24> N       2.741961    1.110610   -1.066820
| 25> N       3.411107   -0.003286   -1.485221
| 26> C       4.222257   -0.388213   -0.566231
| 27> C       5.139434   -1.557164   -0.605652
| 28> O       4.203886    0.398302    0.567250
| 29> N      -0.691090   -1.734089   -0.128259
| 30> C       0.560826   -2.365798    0.290367
| 31> C      -1.464890   -2.547024   -0.978568
| 32> O      -1.052138   -3.663430   -1.299221
| 33> C      -2.708628   -1.958182   -1.400732
| 34> O      -3.475297   -2.688643   -2.238299
| 35> H      -5.823463    2.702554   -0.622527
| 36> H      -6.636283    1.126895   -0.856332
| 37> H      -5.827837    1.919660   -2.230486
| 38> H       0.329458   -1.212208    2.634598
| 39> H       0.179860    0.387297    3.367562
| 40> H      -1.273447   -0.541525    2.967675
| 41> H      -0.393162    2.366819    2.054548
| 42> H      -1.986737    1.628720    1.802303
| 43> H      -1.057305    2.216004    0.414752
| 44> H       1.139887    0.504069   -0.322379
| 45> H       4.061347    2.973764    1.472948
| 46> H       4.676841    2.893513   -0.192651
| 47> H       3.047750    3.523602    0.120089
| 48> H       4.874295   -2.281087    0.167054
| 49> H       5.073419   -2.036149   -1.580459
| 50> H       6.169050   -1.242429   -0.429335
| 51> H       1.007202   -2.854359   -0.577274
| 52> H       1.257223   -1.633390    0.684100
| 53> H       0.349106   -3.123693    1.045879
| 54> H      -4.299024   -2.189312   -2.442002
| 55> **                         ****END OF INPUT****

CARTESIAN COORDINATES (ANGSTROEM)
---------------------------------
  C     -5.788504    1.751361   -1.150831
  O     -4.560622    1.123583   -0.789935
  C     -4.337779   -0.087852   -1.332658
  O     -5.145103   -0.614718   -2.098132
  C     -3.079497   -0.702748   -0.936165
  N     -2.261241   -0.009930   -0.082855
  C     -1.128776   -0.503773    0.298289
  C     -0.317319    0.360008    1.261077
  C     -0.261198   -0.299740    2.647544
  C     -0.985175    1.738529    1.390785
  N      1.017753    0.540312    0.701551
  C      2.027330    1.202677    1.289181
  O      2.056681    1.591612    2.447748
  C      3.215414    1.383892    0.279480
  C      3.792428    2.794961    0.433078
  N      2.741961    1.110610   -1.066820
  N      3.411107   -0.003286   -1.485221
  C      4.222257   -0.388213   -0.566231
  C      5.139434   -1.557164   -0.605652
  O      4.203886    0.398302    0.567250
  N     -0.691090   -1.734089   -0.128259
  C      0.560826   -2.365798    0.290367
  C     -1.464890   -2.547024   -0.978568
  O     -1.052138   -3.663430   -1.299221
  C     -2.708628   -1.958182   -1.400732
  O     -3.475297   -2.688643   -2.238299
  H     -5.823463    2.702554   -0.622527
  H     -6.636283    1.126895   -0.856332
  H     -5.827837    1.919660   -2.230486
  H      0.329458   -1.212208    2.634598
  H      0.179860    0.387297    3.367562
  H     -1.273447   -0.541525    2.967675
  H     -0.393162    2.366819    2.054548
  H     -1.986737    1.628720    1.802303
  H     -1.057305    2.216004    0.414752
  H      1.139887    0.504069   -0.322379
  H      4.061347    2.973764    1.472948
  H      4.676841    2.893513   -0.192651
  H      3.047750    3.523602    0.120089
  H      4.874295   -2.281087    0.167054
  H      5.073419   -2.036149   -1.580459
  H      6.169050   -1.242429   -0.429335
  H      1.007202   -2.854359   -0.577274
  H      1.257223   -1.633390    0.684100
  H      0.349106   -3.123693    1.045879
  H     -4.299024   -2.189312   -2.442002

 Total Charge           Charge          ....   -1
 Multiplicity           Mult            ....    1
 Number of Electrons    NEL             ....  194
 Basis Dimension        Dim             ....  649

ORBITAL ENERGIES
----------------

  NO   OCC          E(Eh)            E(eV)
   0   2.0000     -19.006014      -517.1799
   1   2.0000     -18.991341      -516.7807
   2   2.0000     -18.959759      -515.9213
   3   2.0000     -18.954759      -515.7852
   4   2.0000     -18.925865      -514.9990
   5   2.0000     -18.901163      -514.3268
   6   2.0000     -14.235252      -387.3609
   7   2.0000     -14.160858      -385.3365
   8   2.0000     -14.159688      -385.3047
   9   2.0000     -14.138246      -384.7212
  10   2.0000     -14.090051      -383.4098
  11   2.0000     -10.171293      -276.7750
  12   2.0000     -10.142165      -275.9823
  13   2.0000     -10.120977      -275.4058
  14   2.0000     -10.119629      -275.3691
  15   2.0000     -10.100398      -274.8458
  16   2.0000     -10.089514      -274.5496
  17   2.0000     -10.089403      -274.5466
  18   2.0000     -10.085238      -274.4333
  19   2.0000     -10.076688      -274.2006
  20   2.0000     -10.063840      -273.8510
  21   2.0000     -10.055799      -273.6322
  22   2.0000     -10.018284      -272.6114
  23   2.0000     -10.012961      -272.4665
  24   2.0000     -10.009366      -272.3687
  25   2.0000     -10.000864      -272.1374
  26   2.0000      -1.079924       -29.3862
  27   2.0000      -1.042613       -28.3709
  28   2.0000      -1.035572       -28.1794
  29   2.0000      -1.011729       -27.5305
  30   2.0000      -0.989460       -26.9246
  31   2.0000      -0.983933       -26.7742
  32   2.0000      -0.958905       -26.0931
  33   2.0000      -0.888040       -24.1648
  34   2.0000      -0.882524       -24.0147
  35   2.0000      -0.875698       -23.8289
  36   2.0000      -0.780983       -21.2516
  37   2.0000      -0.758350       -20.6357
  38   2.0000      -0.728781       -19.8312
  39   2.0000      -0.720372       -19.6023
  40   2.0000      -0.683509       -18.5992
  41   2.0000      -0.682382       -18.5686
  42   2.0000      -0.652435       -17.7537
  43   2.0000      -0.637295       -17.3417
  44   2.0000      -0.631410       -17.1815
  45   2.0000      -0.629999       -17.1431
  46   2.0000      -0.590705       -16.0739
  47   2.0000      -0.557160       -15.1611
  48   2.0000      -0.553472       -15.0607
  49   2.0000      -0.539898       -14.6914
  50   2.0000      -0.514909       -14.0114
  51   2.0000      -0.513312       -13.9679
  52   2.0000      -0.502918       -13.6851
  53   2.0000      -0.492153       -13.3922
  54   2.0000      -0.477951       -13.0057
  55   2.0000      -0.460848       -12.5403
  56   2.0000      -0.452703       -12.3187
  57   2.0000      -0.448404       -12.2017
  58   2.0000      -0.443983       -12.0814
  59   2.0000      -0.428467       -11.6592
  60   2.0000      -0.416976       -11.3465
  61   2.0000      -0.412702       -11.2302
  62   2.0000      -0.405073       -11.0226
  63   2.0000      -0.401079       -10.9139
  64   2.0000      -0.397464       -10.8155
  65   2.0000      -0.391139       -10.6434
  66   2.0000      -0.384496       -10.4627
  67   2.0000      -0.374469       -10.1898
  68   2.0000      -0.371738       -10.1155
  69   2.0000      -0.368634       -10.0310
  70   2.0000      -0.367797       -10.0083
  71   2.0000      -0.365987        -9.9590
  72   2.0000      -0.359952        -9.7948
  73   2.0000      -0.357005        -9.7146
  74   2.0000      -0.349030        -9.4976
  75   2.0000      -0.346251        -9.4220
  76   2.0000      -0.340856        -9.2752
  77   2.0000      -0.335531        -9.1303
  78   2.0000      -0.331851        -9.0301
  79   2.0000      -0.328257        -8.9323
  80   2.0000      -0.324876        -8.8403
  81   2.0000      -0.323150        -8.7934
  82   2.0000      -0.320129        -8.7112
  83   2.0000      -0.309516        -8.4224
  84   2.0000      -0.299736        -8.1562
  85   2.0000      -0.282310        -7.6820
  86   2.0000      -0.271456        -7.3867
  87   2.0000      -0.266477        -7.2512
  88   2.0000      -0.257681        -7.0118
  89   2.0000      -0.249519        -6.7897
  90   2.0000      -0.240412        -6.5419
  91   2.0000      -0.237349        -6.4586
  92   2.0000      -0.219812        -5.9814
  93   2.0000      -0.212558        -5.7840
  94   2.0000      -0.207413        -5.6440
  95   2.0000      -0.193562        -5.2671
  96   2.0000      -0.101928        -2.7736
  97   0.0000      -0.098787        -2.6881
  98   0.0000      -0.035638        -0.9698
  99   0.0000       0.003319         0.0903
 100   0.0000       0.009701         0.2640
 101   0.0000       0.038944         1.0597

MULLIKEN ATOMIC CHARGES
-----------------------
   0 C :   -0.317258
   1 O :   -0.182958
   2 C :    0.211503
   3 O :   -0.480908
   4 C :    0.092060
   5 N :   -0.094343
   6 C :    0.132025
   7 C :   -0.026951
   8 C :   -0.548454
   9 C :   -0.663118
  10 N :   -0.044381
  11 C :    0.107482
  12 O :   -0.469294
  13 C :    0.282347
  14 C :   -0.642377
  15 N :   -0.620628
  16 N :   -0.253216
  17 C :    0.209358
  18 C :   -0.670276
  19 O :   -0.168887
  20 N :    0.250797
  21 C :   -0.487018
  22 C :    0.105351
  23 O :   -0.434634
  24 C :    0.064776
  25 O :   -0.363032
  26 H :    0.177546
  27 H :    0.177424
  28 H :    0.177732
  29 H :    0.179598
  30 H :    0.201152
  31 H :    0.185131
  32 H :    0.185783
  33 H :    0.185005
  34 H :    0.190084
  35 H :    0.344295
  36 H :    0.168378
  37 H :    0.170234
  38 H :    0.174298
  39 H :    0.164392
  40 H :    0.181321
  41 H :    0.164438
  42 H :    0.195651
  43 H :    0.216747
  44 H :    0.200045
  45 H :    0.372781
Sum of atomic charges:   -1.0000000

LOEWDIN ATOMIC CHARGES
----------------------
   0 C :   -0.036168
   1 O :   -0.566750
   2 C :    0.414182
   3 O :   -0.475569
   4 C :    0.193929
   5 N :   -0.573920
   6 C :    0.373669
   7 C :    0.111004
   8 C :   -0.351063
   9 C :   -0.342270
  10 N :   -0.643700
  11 C :    0.357687
  12 O :   -0.504335
  13 C :    0.293916
  14 C :   -0.366296
  15 N :   -0.624434
  16 N :   -0.524450
  17 C :    0.271994
  18 C :   -0.348530
  19 O :   -0.522330
  20 N :   -0.629028
  21 C :   -0.086483
  22 C :    0.379890
  23 O :   -0.468404
  24 C :    0.285766
  25 O :   -0.448190
  26 H :    0.186699
  27 H :    0.182912
  28 H :    0.182715
  29 H :    0.171175
  30 H :    0.182390
  31 H :    0.168921
  32 H :    0.170709
  33 H :    0.172060
  34 H :    0.172474
  35 H :    0.311764
  36 H :    0.166261
  37 H :    0.163802
  38 H :    0.169327
  39 H :    0.164942
  40 H :    0.175466
  41 H :    0.165015
  42 H :    0.205901
  43 H :    0.211154
  44 H :    0.195130
  45 H :    0.311063

  Mayer bond orders larger than 0.100000
B(  0-C ,  1-O ) :   0.8307 B(  0-C , 26-H ) :   0.9611 B(  0-C , 27-H ) :   0.9559
B(  0-C , 28-H ) :   0.9553 B(  1-O ,  2-C ) :   1.1697 B(  2-C ,  3-O ) :   1.7034
B(  2-C ,  4-C ) :   1.0895 B(  4-C ,  5-N ) :   1.0149 B(  4-C , 24-C ) :   1.2644
B(  5-N ,  6-C ) :   1.7202 B(  5-N ,  7-C ) :  -0.1332 B(  6-C ,  7-C ) :   0.8838
B(  6-C , 10-N ) :  -0.1141 B(  6-C , 20-N ) :   1.2421 B(  6-C , 24-C ) :   0.1030
B(  7-C ,  8-C ) :   0.9267 B(  7-C ,  9-C ) :   0.8867 B(  7-C , 10-N ) :   0.8644
B(  8-C , 29-H ) :   0.9436 B(  8-C , 30-H ) :   0.9608 B(  8-C , 31-H ) :   0.9736
B(  9-C , 32-H ) :   0.9660 B(  9-C , 33-H ) :   0.9682 B(  9-C , 34-H ) :   0.9768
B( 10-N , 11-C ) :   1.2106 B( 10-N , 35-H ) :   0.7862 B( 11-C , 12-O ) :   1.9000
B( 11-C , 13-C ) :   0.9548 B( 13-C , 14-C ) :   0.8857 B( 13-C , 15-N ) :   1.1285
B( 13-C , 19-O ) :   0.8363 B( 14-C , 36-H ) :   0.9785 B( 14-C , 37-H ) :   0.9736
B( 14-C , 38-H ) :   0.9742 B( 15-N , 16-N ) :   1.4797 B( 15-N , 17-C ) :   0.1512
B( 16-N , 17-C ) :   1.8086 B( 17-C , 18-C ) :   0.8281 B( 17-C , 19-O ) :   1.0068
B( 18-C , 39-H ) :   0.9539 B( 18-C , 40-H ) :   1.0018 B( 18-C , 41-H ) :   0.9610
B( 20-N , 21-C ) :   0.8379 B( 20-N , 22-C ) :   1.0543 B( 21-C , 42-H ) :   0.9356
B( 21-C , 43-H ) :   0.9249 B( 21-C , 44-H ) :   0.9345 B( 22-C , 23-O ) :   1.8807
B( 22-C , 24-C ) :   1.0427 B( 24-C , 25-O ) :   1.1261 B( 25-O , 45-H ) :   0.7673

Dispersion correction           -0.021825471
FINAL SINGLE POINT ENERGY     -1308.642167111213

DIPOLE MOMENT
-------------
                                X             Y             Z
Electronic contribution:    -13.27419      -8.89502      -8.69384
Nuclear contribution   :      8.43754       8.46415      10.29684
                        -----------------------------------------
Total Dipole Moment    :     -4.83665      -0.43087       1.60300
                        -----------------------------------------
Magnitude (a.u.)       :      5.11356
Magnitude (Debye)      :     12.99763

Rotational constants in cm-1:     0.011772     0.003953     0.003409
Rotational constants in MHz :   352.918255   118.493493   102.212546

                             ****ORCA TERMINATED NORMALLY****
TOTAL RUN TIME: 0 days 0 hours 6 minutes 55 seconds 897 msec
