   * xtb version 6.5.1 (579679a) compiled by 'ehlert@majestix' on 2022-07-11
          program call               : /lustre/hpc/kemi/ree/PhD/git/ReactivityQM/dep/xtb-6.5.1/bin/xtb --gfn 1 /lustre/hpc/kemi/ree/PhD/git/ReactivityQM/calculations/R03/reac02prodE08/conf13/R03_reac02prodE08_conf13_gfn1.xyz --opt --vfukui --chrg -1 --uhf 0 --alpb DMSO

   ID    Z sym.   atoms
    1    6 C      1, 3, 5, 7-10, 12, 14, 15, 18, 19, 22, 23, 25
    2    8 O      2, 4, 13, 20, 24, 26
    3    7 N      6, 11, 16, 17, 21
    4    1 H      27-46

      * Solvation model:               ALPB
        Solvent                        DMSO
        Solvent mass                       7.8130E+01 g/mol
          :  Hamiltonian                  GFN1-xTB          :
 * total energy  :   -87.0298448 Eh     change       -0.1388969E-09 Eh
 * total energy  :   -87.0411812 Eh     change       -0.1133638E-01 Eh
 * total energy  :   -87.0454098 Eh     change       -0.4228584E-02 Eh
 * total energy  :   -87.0460023 Eh     change       -0.5925062E-03 Eh
 * total energy  :   -87.0464111 Eh     change       -0.4088268E-03 Eh
 * total energy  :   -87.0466074 Eh     change       -0.1962694E-03 Eh
 * total energy  :   -87.0467665 Eh     change       -0.1590760E-03 Eh
 * total energy  :   -87.0468754 Eh     change       -0.1089257E-03 Eh
 * total energy  :   -87.0469634 Eh     change       -0.8797153E-04 Eh
 * total energy  :   -87.0470417 Eh     change       -0.7830249E-04 Eh
 * total energy  :   -87.0485337 Eh     change       -0.3933166E-04 Eh
 * total energy  :   -87.0485655 Eh     change       -0.3176248E-04 Eh
 * total energy  :   -87.0485893 Eh     change       -0.2378600E-04 Eh
 * total energy  :   -87.0486099 Eh     change       -0.2062445E-04 Eh
 * total energy  :   -87.0486341 Eh     change       -0.2414372E-04 Eh
 * total energy  :   -87.0486692 Eh     change       -0.3510646E-04 Eh
 * total energy  :   -87.0486813 Eh     change       -0.1209376E-04 Eh
 * total energy  :   -87.0486883 Eh     change       -0.7080290E-05 Eh
 * total energy  :   -87.0486930 Eh     change       -0.4636052E-05 Eh
   *** GEOMETRY OPTIMIZATION CONVERGED AFTER 46 ITERATIONS ***

 final structure:
================
46
 xtb: 6.5.1 (579679a)
C           -5.78850351062666        1.75136083949397       -1.15083087439042
O           -4.56062191824705        1.12358331083041       -0.78993523363597
C           -4.33777946315934       -0.08785162066369       -1.33265798551013
O           -5.14510284907533       -0.61471816704020       -2.09813231174949
C           -3.07949714881651       -0.70274814782079       -0.93616460953859
N           -2.26124080420837       -0.00992983553705       -0.08285493246268
C           -1.12877617933506       -0.50377263602987        0.29828910293661
C           -0.31731911094186        0.36000759713626        1.26107653073697
C           -0.26119837065194       -0.29974007493546        2.64754420851669
C           -0.98517453802491        1.73852870556593        1.39078488760032
N            1.01775277619786        0.54031231722331        0.70155129016676
C            2.02733023864499        1.20267711885050        1.28918091878115
O            2.05668056191092        1.59161168653983        2.44774802790883
C            3.21541372798067        1.38389151281876        0.27947987733944
C            3.79242825936530        2.79496052465149        0.43307837485074
N            2.74196095581857        1.11061025547426       -1.06682040051606
N            3.41110660682591       -0.00328613722974       -1.48522145085439
C            4.22225743193612       -0.38821327512778       -0.56623141476311
C            5.13943441257876       -1.55716384867471       -0.60565186415051
O            4.20388557715746        0.39830174130609        0.56724991410147
N           -0.69109034405277       -1.73408920106711       -0.12825898888844
C            0.56082595802268       -2.36579765442091        0.29036724527812
C           -1.46489016309535       -2.54702432416215       -0.97856799611848
O           -1.05213823776482       -3.66342970915662       -1.29922128470479
C           -2.70862814634418       -1.95818159777065       -1.40073247253560
O           -3.47529721533796       -2.68864321023165       -2.23829897653416
H           -5.82346286632635        2.70255379984968       -0.62252660672455
H           -6.63628263844096        1.12689478146419       -0.85633241770308
H           -5.82783744121281        1.91966043444151       -2.23048604701940
H            0.32945848585822       -1.21220841308264        2.63459845171142
H            0.17985988184110        0.38729657025014        3.36756169585012
H           -1.27344727325345       -0.54152504536490        2.96767454809215
H           -0.39316171253561        2.36681881443425        2.05454841916195
H           -1.98673703977448        1.62872026827369        1.80230312815998
H           -1.05730518246542        2.21600386915812        0.41475243687525
H            1.13988744934153        0.50406890217006       -0.32237884517652
H            4.06134717234052        2.97376438328722        1.47294761490557
H            4.67684128606145        2.89351257247321       -0.19265148482790
H            3.04774961032433        3.52360192810138        0.12008904769033
H            4.87429540096221       -2.28108717729585        0.16705434787221
H            5.07341867139349       -2.03614892443704       -1.58045874498700
H            6.16905032292697       -1.24242942746459       -0.42933511033666
H            1.00720172426945       -2.85435882330785       -0.57727395738210
H            1.25722299453874       -1.63339013796030        0.68410041953308
H            0.34910572204863       -3.12369343942017        1.04587931111186
H           -4.29902407466365       -2.18931210559546       -2.44200178866703

          :  Hamiltonian                  GFN1-xTB          :
         :: total energy             -87.048692983008 Eh    ::
         :: gradient norm              0.000807268366 Eh/a0 ::
         :: HOMO-LUMO gap              0.084423079002 eV    ::
         :: SCC energy               -87.835832720857 Eh    ::
         :: -> Gsolv                  -0.100774977879 Eh    ::
         :: repulsion energy           0.817581538904 Eh    ::

    * Orbital Energies and Occupations

         #    Occupation            Energy/Eh            Energy/eV
      -------------------------------------------------------------
         1        2.0000           -0.8200738             -22.3153
       ...           ...                  ...                  ...
        59        2.0000           -0.4783748             -13.0172
        60        2.0000           -0.4738200             -12.8933
        61        2.0000           -0.4647915             -12.6476
        62        2.0000           -0.4515239             -12.2866
        63        2.0000           -0.4382208             -11.9246
        64        2.0000           -0.4326581             -11.7732
        65        2.0000           -0.4274961             -11.6328
        66        2.0000           -0.4235931             -11.5266
        67        2.0000           -0.4201308             -11.4323
        68        2.0000           -0.4112023             -11.1894
        69        2.0000           -0.4047168             -11.0129
        70        2.0000           -0.3848972             -10.4736
        71        1.6731           -0.3109268              -8.4607 (HOMO)
        72        0.3269           -0.3078243              -8.3763 (LUMO)
        73                         -0.2617943              -7.1238
        74                         -0.2307190              -6.2782
        75                         -0.2192593              -5.9664
        76                         -0.1940180              -5.2795
        77                         -0.1352532              -3.6804
        78                         -0.1298707              -3.5340
        79                         -0.1295448              -3.5251
        80                         -0.1190020              -3.2382
        81                         -0.1128256              -3.0701
        82                         -0.1079582              -2.9377
       ...                                ...                  ...
       144                          0.7083220              19.2744
      -------------------------------------------------------------
                  HL-Gap            0.0031025 Eh            0.0844 eV

Wiberg/Mayer (AO) data.
largest (>0.10) Wiberg bond orders for each atom

     #   Z sym  total        # sym  WBO       # sym  WBO       # sym  WBO
 ---------------------------------------------------------------------------
     1   6 C    3.883 --    27 H    0.987    29 H    0.980    28 H    0.980
                             2 O    0.910
     2   8 O    2.158 --     3 C    1.076     1 C    0.910     4 O    0.111
     3   6 C    3.772 --     4 O    1.542     5 C    1.085     2 O    1.076
     4   8 O    1.855 --     3 C    1.542     2 O    0.111
     5   6 C    3.880 --    25 C    1.380     6 N    1.171     3 C    1.085
     6   7 N    3.017 --     7 C    1.580     5 C    1.171
     7   6 C    3.915 --     6 N    1.580    21 N    1.163     8 C    0.973
     8   6 C    3.946 --    10 C    0.990     9 C    0.984     7 C    0.973
                            11 N    0.931
     9   6 C    3.990 --    32 H    0.987     8 C    0.984    30 H    0.982
                            31 H    0.979
    10   6 C    3.994 --     8 C    0.990    34 H    0.985    35 H    0.985
                            33 H    0.984
    11   7 N    3.335 --    12 C    1.275     8 C    0.931    36 H    0.853
                            13 O    0.163
    12   6 C    3.850 --    13 O    1.601    11 N    1.275    14 C    0.879
    13   8 O    1.893 --    12 C    1.601    11 N    0.163
    14   6 C    3.891 --    16 N    1.017    15 C    0.974    20 O    0.910
                            12 C    0.879
    15   6 C    3.976 --    39 H    0.987    38 H    0.985    37 H    0.985
                            14 C    0.974
    16   7 N    2.503 --    17 N    1.184    14 C    1.017    18 C    0.107
    17   7 N    2.987 --    18 C    1.637    16 N    1.184
    18   6 C    3.774 --    17 N    1.637    19 C    1.021    20 O    0.982
                            16 N    0.107
    19   6 C    3.994 --    18 C    1.021    41 H    0.986    42 H    0.974
                            40 H    0.972
    20   8 O    2.080 --    18 C    0.982    14 C    0.910
    21   7 N    3.426 --     7 C    1.163    23 C    1.068    22 C    0.937
                            24 O    0.119
    22   6 C    3.933 --    45 H    0.978    43 H    0.977    44 H    0.976
                            21 N    0.937
    23   6 C    3.864 --    24 O    1.530    25 C    1.135    21 N    1.068
    24   8 O    1.820 --    23 C    1.530    21 N    0.119
    25   6 C    3.806 --     5 C    1.380    23 C    1.135    26 O    1.083
    26   8 O    2.029 --    25 C    1.083    46 H    0.789
    27   1 H    1.013 --     1 C    0.987
    28   1 H    1.009 --     1 C    0.980
    29   1 H    1.009 --     1 C    0.980
    30   1 H    1.004 --     9 C    0.982
    31   1 H    1.015 --     9 C    0.979
    32   1 H    1.004 --     9 C    0.987
    33   1 H    1.008 --    10 C    0.984
    34   1 H    1.014 --    10 C    0.985
    35   1 H    1.012 --    10 C    0.985
    36   1 H    0.974 --    11 N    0.853
    37   1 H    1.010 --    15 C    0.985
    38   1 H    1.011 --    15 C    0.985
    39   1 H    1.009 --    15 C    0.987
    40   1 H    1.001 --    19 C    0.972
    41   1 H    1.006 --    19 C    0.986
    42   1 H    1.001 --    19 C    0.974
    43   1 H    1.011 --    22 C    0.977
    44   1 H    1.015 --    22 C    0.976
    45   1 H    1.004 --    22 C    0.978
    46   1 H    0.867 --    26 O    0.789
 ---------------------------------------------------------------------------

           -------------------------------------------------
          | TOTAL ENERGY              -87.048692983008 Eh   |
          | GRADIENT NORM               0.000807268366 Eh/α |
          | HOMO-LUMO GAP               0.084423079002 eV   |
           -------------------------------------------------

 * finished run on 2023/06/20 at 15:22:49.362
