   * xtb version 6.5.1 (579679a) compiled by 'ehlert@majestix' on 2022-07-11
          program call               : /lustre/hpc/kemi/ree/PhD/git/ReactivityQM/dep/xtb-6.5.1/bin/xtb --gfn 1 /lustre/hpc/kemi/ree/PhD/git/ReactivityQM/calculations/R02oxygendeprot/reac01prodN13/conf01/R02oxygendeprot_reac01prodN13_conf01_gfn1.xyz --opt --vfukui --chrg 0 --uhf 0 --alpb DMSO

   ID    Z sym.   atoms
    1    6 C      1, 3, 5, 7-10, 12, 14, 17-19, 22, 24
    2    8 O      2, 4, 13, 20, 23, 25
    3    7 N      6, 11, 15, 16, 21
    4    1 H      26-42

      * Solvation model:               ALPB
        Solvent                        DMSO
        Solvent mass                       7.8130E+01 g/mol
          :  Hamiltonian                  GFN1-xTB          :
 * total energy  :   -82.9237822 Eh     change       -0.3160636E-09 Eh
 * total energy  :   -82.9338804 Eh     change       -0.1009821E-01 Eh
 * total energy  :   -82.9377393 Eh     change       -0.3858914E-02 Eh
 * total energy  :   -82.9382513 Eh     change       -0.5119630E-03 Eh
 * total energy  :   -82.9385016 Eh     change       -0.2503301E-03 Eh
 * total energy  :   -82.9386508 Eh     change       -0.1491435E-03 Eh
 * total energy  :   -82.9388141 Eh     change       -0.1633637E-03 Eh
 * total energy  :   -82.9389828 Eh     change       -0.1686999E-03 Eh
 * total energy  :   -82.9391126 Eh     change       -0.1297419E-03 Eh
 * total energy  :   -82.9392031 Eh     change       -0.9050374E-04 Eh
 * total energy  :   -82.9397611 Eh     change       -0.5315393E-04 Eh
 * total energy  :   -82.9398076 Eh     change       -0.4649847E-04 Eh
 * total energy  :   -82.9398365 Eh     change       -0.2893100E-04 Eh
 * total energy  :   -82.9398635 Eh     change       -0.2700118E-04 Eh
 * total energy  :   -82.9398568 Eh     change        0.6772620E-05 Eh
 * total energy  :   -82.9398705 Eh     change       -0.1372293E-04 Eh
 * total energy  :   -82.9398784 Eh     change       -0.7931823E-05 Eh
 * total energy  :   -82.9398859 Eh     change       -0.7457100E-05 Eh
 * total energy  :   -82.9398899 Eh     change       -0.4001436E-05 Eh
   *** GEOMETRY OPTIMIZATION CONVERGED AFTER 25 ITERATIONS ***

 final structure:
================
42
 xtb: 6.5.1 (579679a)
C            2.13185498628824        3.53510968213389        0.81602962512825
O            2.18311275406512        2.18518301713677        0.35392259130676
C            3.36643642856250        1.77240940028076       -0.13451392532087
O            4.33521175515808        2.49690716964441       -0.18561781999002
C            3.31395835338195        0.36147359145029       -0.58180743270913
N            2.10798703328480       -0.24016411842102       -0.47436926121250
C            1.94047391330936       -1.48099290379298       -0.82607499336047
C            0.57337287371196       -2.11257340419438       -0.69690469809170
C            0.61942046366886       -3.28165290359280        0.29848047573569
C            0.07035175132710       -2.57627173044165       -2.07263197537797
N           -0.30824399242457       -1.06722339179373       -0.18748814182037
C           -1.61963586631729       -1.23103858518759        0.05510710345869
O           -2.25672024047359       -2.26060376489801       -0.07419348082632
C           -2.23262009089600        0.05053045802047        0.50764086137064
N           -1.55762443201229        1.20599623857373        0.65347046052643
N           -2.38123668259558        2.11578383311556        1.02291233087387
C           -3.69846509183724        1.54414288393585        1.12966216030656
C           -4.21597772620107        1.64436263461521        2.56648074491530
C           -4.64541531263044        2.20212213238273        0.12154869720196
O           -3.50414565821149        0.17322834800903        0.77805245803760
N            2.96144010687307       -2.23458250497986       -1.30855112072491
C            4.25480408839101       -1.76515918633769       -1.48468947434373
O            5.11312011847302       -2.50269630152004       -1.92579687836211
C            4.47521275563904       -0.31738567832407       -1.09188174222826
O            5.59140476716271        0.17970509007585       -1.21867307447385
H            1.11600740189900        3.70610976949439        1.16647134228507
H            2.37142339282068        4.22435091715352        0.00182903834282
H            2.84231082785029        3.68306302885456        1.63386462693955
H            1.32025510650618       -4.03565715406780       -0.05314048147050
H            0.93638795418054       -2.92530340522786        1.27725225199868
H           -0.36825625815080       -3.73076596138063        0.38224551000959
H           -0.91910763691055       -3.01754995619700       -1.97060057732566
H            0.01705482095767       -1.72844908092820       -2.75364172860575
H            0.74780552424413       -3.32277169855013       -2.48091080438457
H            0.12343194872137       -0.15700404492395       -0.04285958088173
H           -5.17978721192827        1.14569051719815        2.63434418030222
H           -4.32415494351449        2.69244946814575        2.83339983945384
H           -3.50915804500411        1.16577013382250        3.24075960769575
H           -4.74870235348219        3.25635915466271        0.36488540680255
H           -5.61586799580138        1.71457535697258        0.17244853689381
H           -4.23570414382708        2.09566071684185       -0.88060453418155
H            2.80798455573549       -3.19736876776499       -1.56585512390148

          :  Hamiltonian                  GFN1-xTB          :
         :: total energy             -82.939889886277 Eh    ::
         :: gradient norm              0.000707246619 Eh/a0 ::
         :: HOMO-LUMO gap              0.049266710187 eV    ::
         :: SCC energy               -83.706070651058 Eh    ::
         :: -> Gsolv                  -0.067528290620 Eh    ::
         :: repulsion energy           0.792156600500 Eh    ::

    * Orbital Energies and Occupations

         #    Occupation            Energy/Eh            Energy/eV
      -------------------------------------------------------------
         1        2.0000           -0.8833173             -24.0363
       ...           ...                  ...                  ...
        55        2.0000           -0.5150698             -14.0158
        56        2.0000           -0.5118637             -13.9285
        57        2.0000           -0.5114134             -13.9163
        58        2.0000           -0.5045551             -13.7296
        59        2.0000           -0.4944455             -13.4545
        60        2.0000           -0.4877776             -13.2731
        61        2.0000           -0.4826999             -13.1349
        62        2.0000           -0.4767749             -12.9737
        63        2.0000           -0.4695062             -12.7759
        64        2.0000           -0.4668554             -12.7038
        65        2.0000           -0.4641619             -12.6305
        66        2.0000           -0.4238527             -11.5336
        67        1.4434           -0.4083225             -11.1110 (HOMO)
        68        0.5566           -0.4065120             -11.0618 (LUMO)
        69                         -0.3239686              -8.8156
        70                         -0.3112727              -8.4702
        71                         -0.2861969              -7.7878
        72                         -0.2362915              -6.4298
        73                         -0.2226630              -6.0590
        74                         -0.1575322              -4.2867
        75                         -0.1451155              -3.9488
        76                         -0.1448856              -3.9425
        77                         -0.1395525              -3.7974
        78                         -0.1381759              -3.7600
       ...                                ...                  ...
       134                          0.7528892              20.4872
      -------------------------------------------------------------
                  HL-Gap            0.0018105 Eh            0.0493 eV

Wiberg/Mayer (AO) data.
largest (>0.10) Wiberg bond orders for each atom

     #   Z sym  total        # sym  WBO       # sym  WBO       # sym  WBO
 ---------------------------------------------------------------------------
     1   6 C    3.877 --    26 H    0.987    27 H    0.979    28 H    0.979
                             2 O    0.904
     2   8 O    2.172 --     3 C    1.083     1 C    0.904     4 O    0.129
     3   6 C    3.840 --     4 O    1.647     2 O    1.083     5 C    1.031
     4   8 O    1.890 --     3 C    1.647     2 O    0.129
     5   6 C    3.714 --     6 N    1.279    24 C    1.168     3 C    1.031
     6   7 N    3.015 --     7 C    1.482     5 C    1.279
     7   6 C    3.802 --     6 N    1.482    21 N    1.190     8 C    0.990
     8   6 C    3.929 --     7 C    0.990     9 C    0.970    10 C    0.970
                            11 N    0.933
     9   6 C    3.975 --    30 H    0.985    29 H    0.983    31 H    0.978
                             8 C    0.970
    10   6 C    3.975 --    33 H    0.985    34 H    0.983    32 H    0.978
                             8 C    0.970
    11   7 N    3.348 --    12 C    1.266     8 C    0.933    35 H    0.867
                            13 O    0.194
    12   6 C    3.915 --    13 O    1.586    11 N    1.266    14 C    0.982
    13   8 O    1.901 --    12 C    1.586    11 N    0.194
    14   6 C    3.639 --    15 N    1.302    20 O    1.203    12 C    0.982
    15   7 N    3.010 --    16 N    1.545    14 C    1.302
    16   7 N    2.695 --    15 N    1.545    17 C    1.023
    17   6 C    3.836 --    16 N    1.023    18 C    0.938    19 C    0.935
                            20 O    0.877
    18   6 C    3.938 --    38 H    0.982    37 H    0.982    36 H    0.980
                            17 C    0.938
    19   6 C    3.936 --    41 H    0.982    39 H    0.982    40 H    0.980
                            17 C    0.935
    20   8 O    2.222 --    14 C    1.203    17 C    0.877
    21   7 N    3.422 --     7 C    1.190    22 C    1.104    42 H    0.882
                            23 O    0.113
    22   6 C    3.840 --    23 O    1.656    21 N    1.104    24 C    0.948
    23   8 O    1.879 --    22 C    1.656    21 N    0.113
    24   6 C    3.871 --    25 O    1.614     5 C    1.168    22 C    0.948
    25   8 O    1.796 --    24 C    1.614
    26   1 H    1.013 --     1 C    0.987
    27   1 H    1.007 --     1 C    0.979
    28   1 H    1.007 --     1 C    0.979
    29   1 H    0.998 --     9 C    0.983
    30   1 H    0.999 --     9 C    0.985
    31   1 H    1.005 --     9 C    0.978
    32   1 H    1.004 --    10 C    0.978
    33   1 H    0.999 --    10 C    0.985
    34   1 H    0.998 --    10 C    0.983
    35   1 H    0.966 --    11 N    0.867
    36   1 H    0.996 --    18 C    0.980
    37   1 H    0.997 --    18 C    0.982
    38   1 H    0.996 --    18 C    0.982
    39   1 H    0.997 --    19 C    0.982
    40   1 H    0.996 --    19 C    0.980
    41   1 H    0.996 --    19 C    0.982
    42   1 H    0.930 --    21 N    0.882
 ---------------------------------------------------------------------------

           -------------------------------------------------
          | TOTAL ENERGY              -82.939889886277 Eh   |
          | GRADIENT NORM               0.000707246619 Eh/α |
          | HOMO-LUMO GAP               0.049266710187 eV   |
           -------------------------------------------------

 * finished run on 2023/06/21 at 17:28:57.293
