   * xtb version 6.5.1 (579679a) compiled by 'ehlert@majestix' on 2022-07-11
          program call               : /lustre/hpc/kemi/ree/PhD/git/ReactivityQM/dep/xtb-6.5.1/bin/xtb --gfn 1 /lustre/hpc/kemi/ree/PhD/git/ReactivityQM/calculations/RaltegravirCLI/reac01prodE05/conf06/RaltegravirCLI_reac01prodE05_conf06_gfn1.xyz --opt --vfukui --chrg -1 --uhf 0 --alpb DMSO

   ID    Z sym.   atoms
    1    6 C      1, 2, 5-7
    2    7 N      3, 4
    3    8 O      8, 10
    4   17 Cl     9
    5    1 H      11-16

      * Solvation model:               ALPB
        Solvent                        DMSO
        Solvent mass                       7.8130E+01 g/mol
          :  Hamiltonian                  GFN1-xTB          :
 * total energy  :   -34.1147841 Eh     change       -0.6679102E-12 Eh
 * total energy  :   -34.1256061 Eh     change       -0.1082205E-01 Eh
 * total energy  :   -34.1306143 Eh     change       -0.5008187E-02 Eh
 * total energy  :   -34.1327399 Eh     change       -0.2125589E-02 Eh
 * total energy  :   -34.1343751 Eh     change       -0.1635213E-02 Eh
 * total energy  :   -34.1356795 Eh     change       -0.1304351E-02 Eh
 * total energy  :   -34.1377760 Eh     change       -0.2096586E-02 Eh
 * total energy  :   -34.1411900 Eh     change       -0.3413908E-02 Eh
 * total energy  :   -34.1475725 Eh     change       -0.6382549E-02 Eh
 * total energy  :   -34.1523688 Eh     change       -0.4796330E-02 Eh
 * total energy  :   -34.1664227 Eh     change       -0.1532677E-04 Eh
 * total energy  :   -34.1664362 Eh     change       -0.1350688E-04 Eh
 * total energy  :   -34.1664504 Eh     change       -0.1418966E-04 Eh
 * total energy  :   -34.1664607 Eh     change       -0.1030931E-04 Eh
 * total energy  :   -34.1664709 Eh     change       -0.1016268E-04 Eh
 * total energy  :   -34.1664816 Eh     change       -0.1077210E-04 Eh
 * total energy  :   -34.1664909 Eh     change       -0.9255575E-05 Eh
 * total energy  :   -34.1664960 Eh     change       -0.5127809E-05 Eh
 * total energy  :   -34.1664995 Eh     change       -0.3510158E-05 Eh
   *** GEOMETRY OPTIMIZATION CONVERGED AFTER 63 ITERATIONS ***

 final structure:
================
16
 xtb: 6.5.1 (579679a)
C            2.80359497757684       -0.47668382429226       -0.22955472503713
C            1.39615005698914       -0.01159061648378       -0.24205622131335
N            0.90267385868331        0.81432823287272       -1.07572487523701
N           -0.47990279021233        0.97373546077632       -0.72357743873782
C           -0.70375871153838        0.07534340703423        0.45838492624979
C           -1.86943704403859       -0.87200882679624        0.47734372689572
C           -0.68001514678133        1.52909751256226        0.52421247016254
O           -0.74794858994266        2.57185505550274        1.09490476189243
Cl          -4.18728168713783        0.99790900600864       -1.78625413442979
O            0.56394675207652       -0.50462469115079        0.70697053563026
H            2.83414671993778       -1.56061308536212       -0.33239822313694
H            3.26524937856236       -0.21755661841254        0.72232298651979
H            3.35586135527951       -0.01386701619774       -1.04307969216944
H           -1.62407969823082       -1.76448213291632       -0.09589344724322
H           -2.73898513554395       -0.38178888480681        0.04085912055825
H           -2.09021529567894       -1.15905297833765        1.50354122939532

          :  Hamiltonian                  GFN1-xTB          :
         :: total energy             -34.166499538536 Eh    ::
         :: gradient norm              0.000477405998 Eh/a0 ::
         :: HOMO-LUMO gap              3.031541815471 eV    ::
         :: SCC energy               -34.447421750863 Eh    ::
         :: -> Gsolv                  -0.112652671846 Eh    ::
         :: repulsion energy           0.288027944062 Eh    ::

    * Orbital Energies and Occupations

         #    Occupation            Energy/Eh            Energy/eV
      -------------------------------------------------------------
         1        2.0000           -0.8403184             -22.8662
       ...           ...                  ...                  ...
        16        2.0000           -0.5474324             -14.8964
        17        2.0000           -0.5427278             -14.7684
        18        2.0000           -0.5336268             -14.5207
        19        2.0000           -0.5319583             -14.4753
        20        2.0000           -0.5183383             -14.1047
        21        2.0000           -0.5079410             -13.8218
        22        2.0000           -0.4908146             -13.3557
        23        2.0000           -0.4829062             -13.1405
        24        2.0000           -0.4748270             -12.9207
        25        2.0000           -0.4747987             -12.9199
        26        2.0000           -0.4733863             -12.8815
        27        2.0000           -0.4561160             -12.4115
        28        2.0000           -0.4082639             -11.1094 (HOMO)
        29                         -0.2968568              -8.0779 (LUMO)
        30                         -0.2591659              -7.0523
        31                         -0.1407464              -3.8299
        32                         -0.1277753              -3.4769
        33                         -0.1131351              -3.0786
        34                         -0.0738532              -2.0096
        35                         -0.0728453              -1.9822
        36                         -0.0638795              -1.7383
        37                         -0.0502669              -1.3678
        38                         -0.0231871              -0.6310
        39                          0.0338477               0.9210
       ...                                ...                  ...
        57                          0.9028805              24.5686
      -------------------------------------------------------------
                  HL-Gap            0.1114071 Eh            3.0315 eV

Wiberg/Mayer (AO) data.
largest (>0.10) Wiberg bond orders for each atom

     #   Z sym  total        # sym  WBO       # sym  WBO       # sym  WBO
 ---------------------------------------------------------------------------
     1   6 C    3.988 --     2 C    1.022    13 H    0.984    11 H    0.964
                            12 H    0.964
     2   6 C    3.887 --     3 N    1.750    10 O    1.041     1 C    1.022
     3   7 N    2.946 --     2 C    1.750     4 N    0.941    10 O    0.116
     4   7 N    3.092 --     7 C    1.055     3 N    0.941     5 C    0.858
                             8 O    0.132
     5   6 C    3.804 --     6 C    0.993     7 C    0.912    10 O    0.911
                             4 N    0.858
     6   6 C    3.983 --     5 C    0.993    14 H    0.979    16 H    0.978
                            15 H    0.973
     7   6 C    3.849 --     8 O    1.781     4 N    1.055     5 C    0.912
     8   8 O    2.046 --     7 C    1.781     4 N    0.132
     9  17 Cl   0.029
    10   8 O    2.170 --     2 C    1.041     5 C    0.911     3 N    0.116
    11   1 H    0.998 --     1 C    0.964
    12   1 H    0.998 --     1 C    0.964
    13   1 H    0.999 --     1 C    0.984
    14   1 H    1.002 --     6 C    0.979
    15   1 H    1.017 --     6 C    0.973
    16   1 H    1.003 --     6 C    0.978
 ---------------------------------------------------------------------------

           -------------------------------------------------
          | TOTAL ENERGY              -34.166499538536 Eh   |
          | GRADIENT NORM               0.000477405998 Eh/α |
          | HOMO-LUMO GAP               3.031541815471 eV   |
           -------------------------------------------------

 * finished run on 2023/06/20 at 14:53:32.725
