   * xtb version 6.5.1 (579679a) compiled by 'ehlert@majestix' on 2022-07-11
          program call               : /lustre/hpc/kemi/ree/PhD/git/ReactivityQM/dep/xtb-6.5.1/bin/xtb --gfn 1 /lustre/hpc/kemi/ree/PhD/git/ReactivityQM/calculations/R02/reac01prodE04/conf08/R02_reac01prodE04_conf08_gfn1.xyz --opt --vfukui --chrg -1 --uhf 0 --alpb DMSO

   ID    Z sym.   atoms
    1    6 C      1, 3, 5, 6, 8-11, 13, 15, 18, 19, 22, 24
    2    8 O      2, 4, 14, 20, 23, 25
    3    7 N      7, 12, 16, 17, 21
    4    1 H      26-43

      * Solvation model:               ALPB
        Solvent                        DMSO
        Solvent mass                       7.8130E+01 g/mol
          :  Hamiltonian                  GFN1-xTB          :
 * total energy  :   -83.8437422 Eh     change       -0.8012080E-10 Eh
 * total energy  :   -83.8583595 Eh     change       -0.1461734E-01 Eh
 * total energy  :   -83.8643876 Eh     change       -0.6028076E-02 Eh
 * total energy  :   -83.8656073 Eh     change       -0.1219741E-02 Eh
 * total energy  :   -83.8663653 Eh     change       -0.7579760E-03 Eh
 * total energy  :   -83.8667064 Eh     change       -0.3411126E-03 Eh
 * total energy  :   -83.8669428 Eh     change       -0.2363529E-03 Eh
 * total energy  :   -83.8671435 Eh     change       -0.2007552E-03 Eh
 * total energy  :   -83.8673671 Eh     change       -0.2236077E-03 Eh
 * total energy  :   -83.8676557 Eh     change       -0.2885710E-03 Eh
 * total energy  :   -83.8714445 Eh     change       -0.7324739E-05 Eh
 * total energy  :   -83.8714521 Eh     change       -0.7605587E-05 Eh
 * total energy  :   -83.8714610 Eh     change       -0.8945442E-05 Eh
 * total energy  :   -83.8714712 Eh     change       -0.1010302E-04 Eh
 * total energy  :   -83.8714811 Eh     change       -0.9914485E-05 Eh
 * total energy  :   -83.8714896 Eh     change       -0.8533910E-05 Eh
 * total energy  :   -83.8714963 Eh     change       -0.6738759E-05 Eh
 * total energy  :   -83.8715018 Eh     change       -0.5425148E-05 Eh
 * total energy  :   -83.8715064 Eh     change       -0.4683805E-05 Eh
   *** GEOMETRY OPTIMIZATION CONVERGED AFTER 59 ITERATIONS ***

 final structure:
================
43
 xtb: 6.5.1 (579679a)
C           -2.69720548960523        2.36441212012252       -2.46052434148554
O           -2.46013612689688        1.56275375488945       -1.30487429101662
C           -3.53188786787594        0.91873820394031       -0.80629174005626
O           -4.63427712540729        1.00428151951943       -1.32571340413157
C           -3.21586421085791       -0.05481197830197        0.32371305409914
C           -4.33403100224216       -0.01893865520441        1.37713942029831
N           -1.95716244353447        0.26829263446433        0.97683044233859
C           -0.90088291966154       -0.36781277913196        0.63949588145443
C            0.39439743382565       -0.03139496163997        1.37088837901453
C            0.58148874458903       -1.06069530846373        2.49488802044166
C            0.33499300641980        1.39256817865192        1.93195178210750
N            1.50130260073918       -0.13133864412325        0.41162450329069
C            2.79517280066342        0.01816682905528        0.73926226189171
O            3.23531426234185        0.22558885731978        1.85885924850435
C            3.66602842279823       -0.11548135312662       -0.46247592514236
N            3.26650130654862       -0.31193661204162       -1.68246826576380
N            4.38680821319557       -0.38558166447587       -2.45676352229741
C            5.39764207081571       -0.22987862807031       -1.65828319944222
C            6.83469593027097       -0.23129025889167       -2.01034963431739
O            5.00880227186810       -0.05396962832006       -0.38650725316669
N           -0.83728048756515       -1.34396021623272       -0.29878617302736
C           -2.04153338722754       -2.00665821991960       -0.80505475436793
O           -1.84485801487816       -3.07803577568415       -1.43047836282038
C           -3.19255927931560       -1.36235680193975       -0.45229627088270
O           -4.46123324310720       -1.86048224672357       -0.82360716597659
H           -3.02226468209304        1.74294431402419       -3.29963439005008
H           -1.75887071418343        2.85936377526830       -2.70466682726625
H           -3.46851966890125        3.11134572659626       -2.25240733956774
H           -4.31508910746102        0.93445397499512        1.90383737062636
H           -5.30414781825654       -0.14522187705491        0.89918750377852
H           -4.18232811964645       -0.82200976895167        2.09729715534400
H           -0.29359360449484       -1.04202951163263        3.14328392119290
H            1.46389805649919       -0.82919657062633        3.08791983758183
H            0.68940243970883       -2.05873687551708        2.07206142587955
H            0.23745817833954        2.10792394724549        1.11612038201678
H            1.23685050919830        1.61630707992199        2.49855549501280
H           -0.53238830326161        1.48555580507070        2.58423113600649
H            1.27566090074949       -0.23353598714847       -0.56849766931370
H            7.35933736075694       -0.99393679828493       -1.43564872211983
H            6.95028974039155       -0.43011454759840       -3.07273722461499
H            7.27869048968615        0.73475735717603       -1.77110200721758
H           -0.00958624242399       -1.91481223053437       -0.35311968016129
H           -4.89903188050351       -1.23323317861845       -1.42154205667359

          :  Hamiltonian                  GFN1-xTB          :
         :: total energy             -83.871506447993 Eh    ::
         :: gradient norm              0.000225535617 Eh/a0 ::
         :: HOMO-LUMO gap              0.442890347535 eV    ::
         :: SCC energy               -84.635744079017 Eh    ::
         :: -> Gsolv                  -0.117576897715 Eh    ::
         :: repulsion energy           0.791343740383 Eh    ::

    * Orbital Energies and Occupations

         #    Occupation            Energy/Eh            Energy/eV
      -------------------------------------------------------------
         1        2.0000           -0.8585163             -23.3614
       ...           ...                  ...                  ...
        56        2.0000           -0.4766589             -12.9705
        57        2.0000           -0.4712101             -12.8223
        58        2.0000           -0.4636184             -12.6157
        59        2.0000           -0.4593900             -12.5006
        60        2.0000           -0.4551210             -12.3845
        61        2.0000           -0.4531607             -12.3311
        62        2.0000           -0.4445520             -12.0969
        63        2.0000           -0.4371311             -11.8949
        64        2.0000           -0.4335899             -11.7986
        65        2.0000           -0.3959416             -10.7741
        66        2.0000           -0.3907134             -10.6319
        67        2.0000           -0.3772267             -10.2649
        68        1.9996           -0.3187722              -8.6742 (HOMO)
        69        0.0004           -0.3024962              -8.2313 (LUMO)
        70                         -0.2523516              -6.8668
        71                         -0.2349797              -6.3941
        72                         -0.2215138              -6.0277
        73                         -0.1909078              -5.1949
        74                         -0.1404514              -3.8219
        75                         -0.1328868              -3.6160
        76                         -0.1278339              -3.4785
        77                         -0.1125566              -3.0628
        78                         -0.1091752              -2.9708
        79                         -0.0975870              -2.6555
       ...                                ...                  ...
       136                          0.7304829              19.8775
      -------------------------------------------------------------
                  HL-Gap            0.0162759 Eh            0.4429 eV

Wiberg/Mayer (AO) data.
largest (>0.10) Wiberg bond orders for each atom

     #   Z sym  total        # sym  WBO       # sym  WBO       # sym  WBO
 ---------------------------------------------------------------------------
     1   6 C    3.890 --    27 H    0.987    28 H    0.981    26 H    0.981
                             2 O    0.912
     2   8 O    2.173 --     3 C    1.079     1 C    0.912     4 O    0.113
     3   6 C    3.815 --     4 O    1.607     2 O    1.079     5 C    0.934
     4   8 O    1.898 --     3 C    1.607     2 O    0.113
     5   6 C    3.962 --     6 C    0.982     7 N    0.977     3 C    0.934
                            24 C    0.933
     6   6 C    3.997 --    29 H    0.988    31 H    0.987    30 H    0.985
                             5 C    0.982
     7   7 N    2.980 --     8 C    1.677     5 C    0.977    21 N    0.167
     8   6 C    3.952 --     7 N    1.677    21 N    1.193     9 C    0.967
     9   6 C    3.927 --    11 C    0.992    10 C    0.983     8 C    0.967
                            12 N    0.914
    10   6 C    3.993 --    32 H    0.986    34 H    0.985     9 C    0.983
                            33 H    0.981
    11   6 C    3.993 --     9 C    0.992    35 H    0.986    36 H    0.984
                            37 H    0.983
    12   7 N    3.365 --    13 C    1.276     9 C    0.914    38 H    0.895
                            14 O    0.183
    13   6 C    3.921 --    14 O    1.580    12 N    1.276    15 C    0.983
    14   8 O    1.899 --    13 C    1.580    12 N    0.183
    15   6 C    3.872 --    16 N    1.615    20 O    1.062    13 C    0.983
    16   7 N    3.014 --    15 C    1.615    17 N    1.195
    17   7 N    2.980 --    18 C    1.611    16 N    1.195
    18   6 C    3.873 --    17 N    1.611    20 O    1.082    19 C    1.031
    19   6 C    3.987 --    18 C    1.031    40 H    0.983    39 H    0.965
                            41 H    0.963
    20   8 O    2.327 --    18 C    1.082    15 C    1.062
    21   7 N    3.312 --     8 C    1.193    42 H    0.911    22 C    0.893
                             7 N    0.167
    22   6 C    3.913 --    24 C    1.502    23 O    1.396    21 N    0.893
    23   8 O    1.721 --    22 C    1.396    24 C    0.175
    24   6 C    3.783 --    22 C    1.502    25 O    0.950     5 C    0.933
                            23 O    0.175
    25   8 O    1.909 --    24 C    0.950    43 H    0.861
    26   1 H    1.011 --     1 C    0.981
    27   1 H    1.014 --     1 C    0.987
    28   1 H    1.012 --     1 C    0.981
    29   1 H    1.010 --     6 C    0.988
    30   1 H    1.016 --     6 C    0.985
    31   1 H    1.012 --     6 C    0.987
    32   1 H    1.005 --    10 C    0.986
    33   1 H    1.012 --    10 C    0.981
    34   1 H    1.004 --    10 C    0.985
    35   1 H    1.008 --    11 C    0.986
    36   1 H    1.010 --    11 C    0.984
    37   1 H    1.020 --    11 C    0.983
    38   1 H    0.960 --    12 N    0.895
    39   1 H    0.997 --    19 C    0.965
    40   1 H    0.999 --    19 C    0.983
    41   1 H    0.997 --    19 C    0.963
    42   1 H    0.961 --    21 N    0.911
    43   1 H    0.901 --    25 O    0.861
 ---------------------------------------------------------------------------

           -------------------------------------------------
          | TOTAL ENERGY              -83.871506447993 Eh   |
          | GRADIENT NORM               0.000225535617 Eh/α |
          | HOMO-LUMO GAP               0.442890347535 eV   |
           -------------------------------------------------

 * finished run on 2023/06/20 at 14:57:13.438
