   * xtb version 6.5.1 (579679a) compiled by 'ehlert@majestix' on 2022-07-11
          program call               : /lustre/hpc/kemi/ree/PhD/git/ReactivityQM/dep/xtb-6.5.1/bin/xtb --gfn 1 /lustre/hpc/kemi/ree/PhD/git/ReactivityQM/calculations/R02/reac02prodN01/conf03/R02_reac02prodN01_conf03_gfn1.xyz --opt --vfukui --chrg 1 --uhf 0 --alpb DMSO

   ID    Z sym.   atoms
    1    6 C      1, 4
    2    8 O      2, 5
    3    5 B      3
    4    1 H      6-13

      * Solvation model:               ALPB
        Solvent                        DMSO
        Solvent mass                       7.8130E+01 g/mol
          :  Hamiltonian                  GFN1-xTB          :
 * total energy  :   -19.0504393 Eh     change       -0.6937029E-10 Eh
 * total energy  :   -19.0615760 Eh     change       -0.1113670E-01 Eh
 * total energy  :   -19.0641928 Eh     change       -0.2616737E-02 Eh
 * total energy  :   -19.0647295 Eh     change       -0.5367208E-03 Eh
 * total energy  :   -19.0650978 Eh     change       -0.3683350E-03 Eh
 * total energy  :   -19.0651356 Eh     change       -0.3774511E-04 Eh
 * total energy  :   -19.0651572 Eh     change       -0.2161318E-04 Eh
 * total energy  :   -19.0651731 Eh     change       -0.1591618E-04 Eh
 * total energy  :   -19.0651877 Eh     change       -0.1462189E-04 Eh
 * total energy  :   -19.0651993 Eh     change       -0.1153794E-04 Eh
 * total energy  :   -19.0652156 Eh     change       -0.1635800E-04 Eh
 * total energy  :   -19.0652356 Eh     change       -0.1996017E-04 Eh
 * total energy  :   -19.0652542 Eh     change       -0.1862483E-04 Eh
 * total energy  :   -19.0652734 Eh     change       -0.1918499E-04 Eh
 * total energy  :   -19.0652819 Eh     change       -0.8495919E-05 Eh
 * total energy  :   -19.0652558 Eh     change        0.2612818E-04 Eh
 * total energy  :   -19.0652888 Eh     change       -0.3298311E-04 Eh
 * total energy  :   -19.0652931 Eh     change       -0.4315775E-05 Eh
   *** GEOMETRY OPTIMIZATION CONVERGED AFTER 18 ITERATIONS ***

 final structure:
================
13
 xtb: 6.5.1 (579679a)
C            2.02692063910839       -0.16924202258920       -0.02695994176954
O            0.72891339766539        0.42020753526030       -0.33372785547041
B           -0.57917729718302       -0.20420896066316       -0.07153883957440
C           -1.82756158627214        0.59112366680553       -0.52891326522927
O           -0.44728672192825       -1.38551469743757        0.51900388565264
H            1.83117560385544       -1.05417132010881        0.57392994634747
H            2.60787357569884        0.56066433220324        0.53408304322213
H            2.51862529478996       -0.43457270386867       -0.96216140580411
H            0.78288276438552        1.26163162398242       -0.80576472771240
H           -2.66350584305522        0.43725014999689        0.15095195345806
H           -2.14579954896735        0.24523714309962       -1.51335972004113
H           -1.63095503612057        1.65758436753664       -0.60463092843121
H           -1.20210524197690       -1.92599011421732        0.75197185535218

          :  Hamiltonian                  GFN1-xTB          :
         :: total energy             -19.065293066494 Eh    ::
         :: gradient norm              0.000571747058 Eh/a0 ::
         :: HOMO-LUMO gap              7.488549280738 eV    ::
         :: SCC energy               -19.256577206411 Eh    ::
         :: -> Gsolv                  -0.095043856440 Eh    ::
         :: repulsion energy           0.194763818772 Eh    ::

    * Orbital Energies and Occupations

         #    Occupation            Energy/Eh            Energy/eV
      -------------------------------------------------------------
         1        2.0000           -0.9096264             -24.7522
       ...           ...                  ...                  ...
         3        2.0000           -0.7655027             -20.8304
         4        2.0000           -0.7557550             -20.5651
         5        2.0000           -0.6871478             -18.6982
         6        2.0000           -0.6732474             -18.3200
         7        2.0000           -0.6638683             -18.0648
         8        2.0000           -0.6502439             -17.6940
         9        2.0000           -0.6221900             -16.9307
        10        2.0000           -0.6042398             -16.4422
        11        2.0000           -0.5659337             -15.3998
        12        2.0000           -0.5532020             -15.0534
        13        2.0000           -0.5443626             -14.8129
        14        2.0000           -0.5433839             -14.7862
        15        2.0000           -0.5241230             -14.2621 (HOMO)
        16                         -0.2489239              -6.7736 (LUMO)
        17                         -0.1892979              -5.1511
        18                         -0.1755831              -4.7779
        19                         -0.1499253              -4.0797
        20                         -0.1262599              -3.4357
        21                         -0.1081698              -2.9434
        22                         -0.0952444              -2.5917
        23                         -0.0790520              -2.1511
        24                         -0.0717841              -1.9533
        25                         -0.0513643              -1.3977
        26                          0.0894971               2.4353
       ...                                ...                  ...
        36                          0.6425929              17.4858
      -------------------------------------------------------------
                  HL-Gap            0.2751991 Eh            7.4885 eV

Wiberg/Mayer (AO) data.
largest (>0.10) Wiberg bond orders for each atom

     #   Z sym  total        # sym  WBO       # sym  WBO       # sym  WBO
 ---------------------------------------------------------------------------
     1   6 C    3.783 --     7 H    0.982     8 H    0.982     6 H    0.978
                             2 O    0.809
     2   8 O    2.394 --     1 C    0.809     3 B    0.767     9 H    0.759
     3   5 B    3.138 --     5 O    1.256     4 C    1.034     2 O    0.767
     4   6 C    3.986 --     3 B    1.034    12 H    0.974    10 H    0.966
                            11 H    0.948
     5   8 O    2.144 --     3 B    1.256    13 H    0.792
     6   1 H    1.000 --     1 C    0.978
     7   1 H    0.995 --     1 C    0.982
     8   1 H    0.995 --     1 C    0.982
     9   1 H    0.789 --     2 O    0.759
    10   1 H    0.992 --     4 C    0.966
    11   1 H    0.991 --     4 C    0.948
    12   1 H    0.993 --     4 C    0.974
    13   1 H    0.812 --     5 O    0.792
 ---------------------------------------------------------------------------

           -------------------------------------------------
          | TOTAL ENERGY              -19.065293066494 Eh   |
          | GRADIENT NORM               0.000571747058 Eh/α |
          | HOMO-LUMO GAP               7.488549280738 eV   |
           -------------------------------------------------

 * finished run on 2023/06/20 at 15:48:42.635
