                         Program Version 5.0.1 -  RELEASE  -
|  1> # ORCA input file
|  2> ! SP r2SCAN-3c CPCM
|  3>
|  4> %maxcore 1875.0
|  5> %pal nprocs 4 end
|  6> %cpcm smd true SMDsolvent "DMSO" end
|  7>
|  8> *xyz 0 1
|  9> C       7.133903    0.371764    0.926651
| 10> O       5.874971    0.702505    0.343289
| 11> C       4.834648   -0.064372    0.700497
| 12> O       4.954842   -0.997701    1.469015
| 13> C       3.552570    0.345808    0.080613
| 14> N       2.470320   -0.404326    0.475873
| 15> C       1.303614   -0.076306   -0.010522
| 16> C       0.115390   -0.915081    0.453478
| 17> C       0.219540   -2.333174   -0.116369
| 18> C       0.041246   -0.926791    1.981867
| 19> N      -1.052551   -0.235259   -0.112252
| 20> C      -2.311318   -0.498776    0.037249
| 21> O      -2.666772   -1.524853    0.762894
| 22> C      -4.034871   -1.890936    0.990168
| 23> C      -3.229659    0.404746   -0.627861
| 24> N      -2.856677    1.431031   -1.339678
| 25> N      -3.980466    2.037743   -1.771773
| 26> C      -4.985575    1.355119   -1.302169
| 27> C      -6.425009    1.620162   -1.488939
| 28> O      -4.571847    0.309466   -0.571195
| 29> N       1.014014    0.905724   -0.866547
| 30> C       2.030219    1.685285   -1.318853
| 31> O       1.889228    2.624057   -2.118835
| 32> C       3.369914    1.376205   -0.803162
| 33> O       4.349139    2.178631   -1.266380
| 34> H       7.406409   -0.659627    0.686961
| 35> H       7.089742    0.486117    2.013154
| 36> H       7.866022    1.059915    0.507912
| 37> H       0.205243   -2.299830   -1.204694
| 38> H       1.160723   -2.770550    0.215000
| 39> H      -0.605906   -2.949795    0.232302
| 40> H      -0.735418   -1.602857    2.330813
| 41> H      -0.165158    0.075615    2.353806
| 42> H       1.005871   -1.257845    2.366620
| 43> H      -0.738791    0.565753   -0.706834
| 44> H      -4.561333   -1.083972    1.500361
| 45> H      -4.525960   -2.119935    0.044133
| 46> H      -3.996682   -2.776869    1.621367
| 47> H      -6.907262    1.740223   -0.519041
| 48> H      -6.895067    0.775967   -1.993307
| 49> H      -6.558767    2.522349   -2.081096
| 50> H       3.917520    2.814668   -1.874519
| 51> **                         ****END OF INPUT****

CARTESIAN COORDINATES (ANGSTROEM)
---------------------------------
  C      7.133903    0.371764    0.926651
  O      5.874971    0.702505    0.343289
  C      4.834648   -0.064372    0.700497
  O      4.954842   -0.997701    1.469015
  C      3.552570    0.345808    0.080613
  N      2.470320   -0.404326    0.475873
  C      1.303614   -0.076306   -0.010522
  C      0.115390   -0.915081    0.453478
  C      0.219540   -2.333174   -0.116369
  C      0.041246   -0.926791    1.981867
  N     -1.052551   -0.235259   -0.112252
  C     -2.311318   -0.498776    0.037249
  O     -2.666772   -1.524853    0.762894
  C     -4.034871   -1.890936    0.990168
  C     -3.229659    0.404746   -0.627861
  N     -2.856677    1.431031   -1.339678
  N     -3.980466    2.037743   -1.771773
  C     -4.985575    1.355119   -1.302169
  C     -6.425009    1.620162   -1.488939
  O     -4.571847    0.309466   -0.571195
  N      1.014014    0.905724   -0.866547
  C      2.030219    1.685285   -1.318853
  O      1.889228    2.624057   -2.118835
  C      3.369914    1.376205   -0.803162
  O      4.349139    2.178631   -1.266380
  H      7.406409   -0.659627    0.686961
  H      7.089742    0.486117    2.013154
  H      7.866022    1.059915    0.507912
  H      0.205243   -2.299830   -1.204694
  H      1.160723   -2.770550    0.215000
  H     -0.605906   -2.949795    0.232302
  H     -0.735418   -1.602857    2.330813
  H     -0.165158    0.075615    2.353806
  H      1.005871   -1.257845    2.366620
  H     -0.738791    0.565753   -0.706834
  H     -4.561333   -1.083972    1.500361
  H     -4.525960   -2.119935    0.044133
  H     -3.996682   -2.776869    1.621367
  H     -6.907262    1.740223   -0.519041
  H     -6.895067    0.775967   -1.993307
  H     -6.558767    2.522349   -2.081096
  H      3.917520    2.814668   -1.874519

 Total Charge           Charge          ....    0
 Multiplicity           Mult            ....    1
 Number of Electrons    NEL             ....  184
 Basis Dimension        Dim             ....  615

ORBITAL ENERGIES
----------------

  NO   OCC          E(Eh)            E(eV)
   0   2.0000     -19.084840      -519.3249
   1   2.0000     -19.052819      -518.4536
   2   2.0000     -18.991876      -516.7952
   3   2.0000     -18.979913      -516.4697
   4   2.0000     -18.928033      -515.0580
   5   2.0000     -18.905706      -514.4504
   6   2.0000     -14.234507      -387.3406
   7   2.0000     -14.227011      -387.1366
   8   2.0000     -14.213668      -386.7736
   9   2.0000     -14.146139      -384.9360
  10   2.0000     -14.141600      -384.8125
  11   2.0000     -10.213429      -277.9215
  12   2.0000     -10.171617      -276.7838
  13   2.0000     -10.163608      -276.5658
  14   2.0000     -10.151313      -276.2313
  15   2.0000     -10.111692      -275.1531
  16   2.0000     -10.103783      -274.9379
  17   2.0000     -10.101146      -274.8662
  18   2.0000     -10.095938      -274.7244
  19   2.0000     -10.092843      -274.6402
  20   2.0000     -10.072156      -274.0773
  21   2.0000     -10.071896      -274.0702
  22   2.0000     -10.051213      -273.5074
  23   2.0000     -10.025877      -272.8180
  24   2.0000     -10.023643      -272.7572
  25   2.0000      -1.176133       -32.0042
  26   2.0000      -1.114531       -30.3279
  27   2.0000      -1.066397       -29.0181
  28   2.0000      -1.032666       -28.1003
  29   2.0000      -0.998701       -27.1760
  30   2.0000      -0.978907       -26.6374
  31   2.0000      -0.972586       -26.4654
  32   2.0000      -0.967014       -26.3138
  33   2.0000      -0.925993       -25.1975
  34   2.0000      -0.853360       -23.2211
  35   2.0000      -0.833241       -22.6736
  36   2.0000      -0.792769       -21.5723
  37   2.0000      -0.739797       -20.1309
  38   2.0000      -0.729902       -19.8616
  39   2.0000      -0.722439       -19.6586
  40   2.0000      -0.690652       -18.7936
  41   2.0000      -0.687538       -18.7089
  42   2.0000      -0.664665       -18.0865
  43   2.0000      -0.646402       -17.5895
  44   2.0000      -0.618786       -16.8380
  45   2.0000      -0.617205       -16.7950
  46   2.0000      -0.594886       -16.1877
  47   2.0000      -0.562979       -15.3195
  48   2.0000      -0.558360       -15.1937
  49   2.0000      -0.534567       -14.5463
  50   2.0000      -0.521903       -14.2017
  51   2.0000      -0.517805       -14.0902
  52   2.0000      -0.511136       -13.9087
  53   2.0000      -0.491830       -13.3834
  54   2.0000      -0.482492       -13.1293
  55   2.0000      -0.478816       -13.0293
  56   2.0000      -0.476281       -12.9603
  57   2.0000      -0.446153       -12.1404
  58   2.0000      -0.443359       -12.0644
  59   2.0000      -0.435707       -11.8562
  60   2.0000      -0.430533       -11.7154
  61   2.0000      -0.425733       -11.5848
  62   2.0000      -0.418531       -11.3888
  63   2.0000      -0.415665       -11.3108
  64   2.0000      -0.410834       -11.1794
  65   2.0000      -0.399158       -10.8616
  66   2.0000      -0.388674       -10.5764
  67   2.0000      -0.384433       -10.4609
  68   2.0000      -0.382823       -10.4171
  69   2.0000      -0.381400       -10.3784
  70   2.0000      -0.363459        -9.8902
  71   2.0000      -0.362138        -9.8543
  72   2.0000      -0.360961        -9.8223
  73   2.0000      -0.356672        -9.7055
  74   2.0000      -0.352682        -9.5970
  75   2.0000      -0.342802        -9.3281
  76   2.0000      -0.339409        -9.2358
  77   2.0000      -0.333117        -9.0646
  78   2.0000      -0.327847        -8.9212
  79   2.0000      -0.325073        -8.8457
  80   2.0000      -0.316517        -8.6129
  81   2.0000      -0.310443        -8.4476
  82   2.0000      -0.297083        -8.0840
  83   2.0000      -0.281106        -7.6493
  84   2.0000      -0.279242        -7.5986
  85   2.0000      -0.268498        -7.3062
  86   2.0000      -0.267966        -7.2917
  87   2.0000      -0.248582        -6.7643
  88   2.0000      -0.243864        -6.6359
  89   2.0000      -0.221049        -6.0151
  90   2.0000      -0.217912        -5.9297
  91   2.0000      -0.186680        -5.0798
  92   0.0000      -0.127407        -3.4669
  93   0.0000      -0.069135        -1.8813
  94   0.0000      -0.037550        -1.0218
  95   0.0000      -0.017908        -0.4873
  96   0.0000       0.018003         0.4899

MULLIKEN ATOMIC CHARGES
-----------------------
   0 C :   -0.317049
   1 O :   -0.159069
   2 C :    0.087718
   3 O :   -0.404343
   4 C :    0.160975
   5 N :   -0.286354
   6 C :    0.480936
   7 C :   -0.200069
   8 C :   -0.613204
   9 C :   -0.609734
  10 N :    0.124468
  11 C :   -0.033075
  12 O :   -0.183037
  13 C :   -0.312628
  14 C :    0.323003
  15 N :   -0.070594
  16 N :   -0.314742
  17 C :    0.449158
  18 C :   -0.633631
  19 O :   -0.013109
  20 N :   -0.247559
  21 C :   -0.002553
  22 O :   -0.471318
  23 C :    0.037309
  24 O :   -0.357384
  25 H :    0.171600
  26 H :    0.172139
  27 H :    0.172990
  28 H :    0.192495
  29 H :    0.198153
  30 H :    0.187754
  31 H :    0.188377
  32 H :    0.188993
  33 H :    0.198418
  34 H :    0.336196
  35 H :    0.194014
  36 H :    0.193821
  37 H :    0.198487
  38 H :    0.206884
  39 H :    0.208292
  40 H :    0.210411
  41 H :    0.346860
Sum of atomic charges:   -0.0000000

LOEWDIN ATOMIC CHARGES
----------------------
   0 C :   -0.042654
   1 O :   -0.583508
   2 C :    0.398229
   3 O :   -0.430054
   4 C :    0.178790
   5 N :   -0.608340
   6 C :    0.312896
   7 C :    0.115613
   8 C :   -0.336783
   9 C :   -0.339360
  10 N :   -0.507933
  11 C :    0.473203
  12 O :   -0.538189
  13 C :    0.001453
  14 C :    0.418470
  15 N :   -0.317767
  16 N :   -0.328149
  17 C :    0.399744
  18 C :   -0.310393
  19 O :   -0.379120
  20 N :   -0.582770
  21 C :    0.321436
  22 O :   -0.538576
  23 C :    0.260587
  24 O :   -0.469364
  25 H :    0.179912
  26 H :    0.179556
  27 H :    0.183220
  28 H :    0.176078
  29 H :    0.179535
  30 H :    0.173402
  31 H :    0.173646
  32 H :    0.176521
  33 H :    0.182832
  34 H :    0.340735
  35 H :    0.195468
  36 H :    0.195262
  37 H :    0.199852
  38 H :    0.196466
  39 H :    0.197018
  40 H :    0.195073
  41 H :    0.307963

  Mayer bond orders larger than 0.100000
B(  0-C ,  1-O ) :   0.8374 B(  0-C , 25-H ) :   0.9576 B(  0-C , 26-H ) :   0.9563
B(  0-C , 27-H ) :   0.9657 B(  1-O ,  2-C ) :   1.1563 B(  2-C ,  3-O ) :   1.9302
B(  2-C ,  4-C ) :   1.0227 B(  2-C ,  5-N ) :   0.1317 B(  4-C ,  5-N ) :   0.9877
B(  4-C , 23-C ) :   1.3472 B(  5-N ,  6-C ) :   1.4570 B(  6-C ,  7-C ) :   0.7337
B(  6-C , 10-N ) :  -0.1226 B(  6-C , 20-N ) :   1.2911 B(  7-C ,  8-C ) :   0.9208
B(  7-C ,  9-C ) :   0.9095 B(  7-C , 10-N ) :   0.8958 B(  7-C , 20-N ) :   0.1162
B(  8-C , 28-H ) :   0.9667 B(  8-C , 29-H ) :   0.9587 B(  8-C , 30-H ) :   0.9540
B(  9-C , 31-H ) :   0.9592 B(  9-C , 32-H ) :   0.9690 B(  9-C , 33-H ) :   0.9542
B( 10-N , 11-C ) :   1.5459 B( 10-N , 12-O ) :   0.1121 B( 10-N , 34-H ) :   0.7492
B( 11-C , 12-O ) :   1.2337 B( 11-C , 14-C ) :   0.9628 B( 12-O , 13-C ) :   0.8179
B( 13-C , 35-H ) :   0.9384 B( 13-C , 36-H ) :   0.9388 B( 13-C , 37-H ) :   0.9502
B( 14-C , 15-N ) :   1.5856 B( 14-C , 19-O ) :   1.1513 B( 15-N , 16-N ) :   1.2033
B( 16-N , 17-C ) :   1.5424 B( 17-C , 18-C ) :   0.8375 B( 17-C , 19-O ) :   1.0600
B( 18-C , 38-H ) :   0.9389 B( 18-C , 39-H ) :   0.9356 B( 18-C , 40-H ) :   0.9826
B( 20-N , 21-C ) :   1.2319 B( 20-N , 34-H ) :   0.1421 B( 21-C , 22-O ) :   1.9710
B( 21-C , 23-C ) :   0.9218 B( 23-C , 24-O ) :   1.0965 B( 24-O , 41-H ) :   0.8103

Dispersion correction           -0.018439507
FINAL SINGLE POINT ENERGY     -1268.605565212871

DIPOLE MOMENT
-------------
                                X             Y             Z
Electronic contribution:      3.06610       8.93552      -6.92064
Nuclear contribution   :    -11.41459     -11.65410       8.45857
                        -----------------------------------------
Total Dipole Moment    :     -8.34849      -2.71858       1.53793
                        -----------------------------------------
Magnitude (a.u.)       :      8.91365
Magnitude (Debye)      :     22.65670

Rotational constants in cm-1:     0.016892     0.003305     0.002830
Rotational constants in MHz :   506.405272    99.074978    84.827270

                             ****ORCA TERMINATED NORMALLY****
TOTAL RUN TIME: 0 days 0 hours 2 minutes 13 seconds 47 msec
