   * xtb version 6.5.1 (579679a) compiled by 'ehlert@majestix' on 2022-07-11
          program call               : /lustre/hpc/kemi/ree/PhD/git/ReactivityQM/dep/xtb-6.5.1/bin/xtb --gfn 1 /lustre/hpc/kemi/ree/PhD/git/ReactivityQM/calculations/R02deprot/reac01prodN02/conf02/R02deprot_reac01prodN02_conf02_gfn1.xyz --opt --vfukui --chrg 0 --uhf 0 --alpb DMSO

   ID    Z sym.   atoms
    1    6 C      1, 3, 5, 7-10, 12, 14, 15, 18, 19, 22, 24
    2    8 O      2, 4, 13, 20, 23, 25
    3    7 N      6, 11, 16, 17, 21
    4    1 H      26-42

      * Solvation model:               ALPB
        Solvent                        DMSO
        Solvent mass                       7.8130E+01 g/mol
          :  Hamiltonian                  GFN1-xTB          :
 * total energy  :   -82.9413217 Eh     change       -0.3754934E-09 Eh
 * total energy  :   -82.9610229 Eh     change       -0.1970114E-01 Eh
 * total energy  :   -82.9689358 Eh     change       -0.7912902E-02 Eh
 * total energy  :   -82.9705483 Eh     change       -0.1612586E-02 Eh
 * total energy  :   -82.9715504 Eh     change       -0.1002046E-02 Eh
 * total energy  :   -82.9718819 Eh     change       -0.3314977E-03 Eh
 * total energy  :   -82.9721909 Eh     change       -0.3090337E-03 Eh
 * total energy  :   -82.9724862 Eh     change       -0.2952714E-03 Eh
 * total energy  :   -82.9727700 Eh     change       -0.2838029E-03 Eh
 * total energy  :   -82.9730202 Eh     change       -0.2502425E-03 Eh
 * total energy  :   -82.9748821 Eh     change       -0.9036824E-05 Eh
 * total energy  :   -82.9748910 Eh     change       -0.8908374E-05 Eh
 * total energy  :   -82.9748990 Eh     change       -0.8034931E-05 Eh
 * total energy  :   -82.9749059 Eh     change       -0.6874032E-05 Eh
 * total energy  :   -82.9749123 Eh     change       -0.6460810E-05 Eh
 * total energy  :   -82.9749186 Eh     change       -0.6210228E-05 Eh
 * total energy  :   -82.9749243 Eh     change       -0.5746148E-05 Eh
 * total energy  :   -82.9749295 Eh     change       -0.5237621E-05 Eh
 * total energy  :   -82.9749345 Eh     change       -0.4992334E-05 Eh
   *** GEOMETRY OPTIMIZATION CONVERGED AFTER 58 ITERATIONS ***

 final structure:
================
42
 xtb: 6.5.1 (579679a)
C            7.13390333334371        0.37176397405890        0.92665146381458
O            5.87497059821845        0.70250502147551        0.34328878526868
C            4.83464831989892       -0.06437228918704        0.70049726824479
O            4.95484202200654       -0.99770122488040        1.46901463110257
C            3.55256959555751        0.34580762301810        0.08061341885377
N            2.47031991874011       -0.40432608446100        0.47587316689284
C            1.30361377075943       -0.07630582942157       -0.01052182838155
C            0.11538991419066       -0.91508055707002        0.45347792706199
C            0.21954012778258       -2.33317376711655       -0.11636857966641
C            0.04124576970367       -0.92679078141274        1.98186658020103
N           -1.05255071050359       -0.23525879201802       -0.11225192973115
C           -2.31131798430226       -0.49877597802358        0.03724882754893
O           -2.66677222816437       -1.52485344375034        0.76289440761421
C           -4.03487129156048       -1.89093592264619        0.99016849297148
C           -3.22965857112190        0.40474596822366       -0.62786077052531
N           -2.85667710058279        1.43103103777690       -1.33967781401158
N           -3.98046608882160        2.03774337524654       -1.77177267712027
C           -4.98557461878394        1.35511915154843       -1.30216883403897
C           -6.42500882670462        1.62016200417235       -1.48893915257266
O           -4.57184721743396        0.30946618483198       -0.57119484830407
N            1.01401386405358        0.90572362365555       -0.86654679436247
C            2.03021871585915        1.68528520048301       -1.31885304269283
O            1.88922845064701        2.62405719930434       -2.11883450394045
C            3.36991383298224        1.37620515195420       -0.80316215586016
O            4.34913870291549        2.17863105883211       -1.26637990698692
H            7.40640928812902       -0.65962683141625        0.68696082651162
H            7.08974176707620        0.48611699724774        2.01315370746530
H            7.86602208322707        1.05991507609800        0.50791199668781
H            0.20524322813222       -2.29982963110917       -1.20469386936572
H            1.16072299884348       -2.77055023592139        0.21499974919723
H           -0.60590621212649       -2.94979477383803        0.23230211500980
H           -0.73541843162557       -1.60285653814411        2.33081273541676
H           -0.16515783077572        0.07561523315613        2.35380649802226
H            1.00587089409319       -1.25784463839700        2.36662026108103
H           -0.73879099577017        0.56575295372971       -0.70683358240468
H           -4.56133271892064       -1.08397162244341        1.50036101039310
H           -4.52596017254525       -2.11993510677212        0.04413264219798
H           -3.99668183701019       -2.77686885927560        1.62136673794414
H           -6.90726165956671        1.74022294987586       -0.51904062225990
H           -6.89506733832215        0.77596739481678       -1.99330707268801
H           -6.55876698606750        2.52234869702371       -2.08109600730883
H            3.91751962457775        2.81466803078147       -1.87451925727999

          :  Hamiltonian                  GFN1-xTB          :
         :: total energy             -82.974934528774 Eh    ::
         :: gradient norm              0.000252602392 Eh/a0 ::
         :: HOMO-LUMO gap              0.775480641084 eV    ::
         :: SCC energy               -83.744733086378 Eh    ::
         :: -> Gsolv                  -0.076156987261 Eh    ::
         :: repulsion energy           0.795023081579 Eh    ::

    * Orbital Energies and Occupations

         #    Occupation            Energy/Eh            Energy/eV
      -------------------------------------------------------------
         1        2.0000           -0.8930831             -24.3020
       ...           ...                  ...                  ...
        55        2.0000           -0.5008336             -13.6284
        56        2.0000           -0.5004690             -13.6185
        57        2.0000           -0.4893857             -13.3169
        58        2.0000           -0.4877500             -13.2724
        59        2.0000           -0.4841103             -13.1733
        60        2.0000           -0.4792931             -13.0422
        61        2.0000           -0.4729728             -12.8702
        62        2.0000           -0.4618858             -12.5686
        63        2.0000           -0.4562255             -12.4145
        64        2.0000           -0.4369789             -11.8908
        65        2.0000           -0.4197839             -11.4229
        66        2.0000           -0.3943948             -10.7320
        67        2.0000           -0.3877480             -10.5512 (HOMO)
        68        0.0000           -0.3592496              -9.7757 (LUMO)
        69                         -0.2883741              -7.8471
        70                         -0.2800759              -7.6213
        71                         -0.2458077              -6.6888
        72                         -0.2417369              -6.5780
        73                         -0.2035706              -5.5394
        74                         -0.1530876              -4.1657
        75                         -0.1514669              -4.1216
        76                         -0.1314195              -3.5761
        77                         -0.1282205              -3.4891
        78                         -0.1261119              -3.4317
       ...                                ...                  ...
       134                          0.7367509              20.0480
      -------------------------------------------------------------
                  HL-Gap            0.0284984 Eh            0.7755 eV

Wiberg/Mayer (AO) data.
largest (>0.10) Wiberg bond orders for each atom

     #   Z sym  total        # sym  WBO       # sym  WBO       # sym  WBO
 ---------------------------------------------------------------------------
     1   6 C    3.884 --    28 H    0.987    27 H    0.980    26 H    0.980
                             2 O    0.909
     2   8 O    2.188 --     3 C    1.091     1 C    0.909     4 O    0.126
     3   6 C    3.841 --     4 O    1.637     2 O    1.091     5 C    1.022
     4   8 O    1.899 --     3 C    1.637     2 O    0.126
     5   6 C    3.962 --    24 C    1.490     6 N    1.188     3 C    1.022
     6   7 N    3.001 --     7 C    1.496     5 C    1.188
     7   6 C    3.960 --     6 N    1.496    21 N    1.344     8 C    0.963
     8   6 C    3.896 --    10 C    0.983     9 C    0.977     7 C    0.963
                            11 N    0.896
     9   6 C    3.988 --    29 H    0.985    31 H    0.984    30 H    0.982
                             8 C    0.977
    10   6 C    3.988 --    33 H    0.985    32 H    0.984     8 C    0.983
                            34 H    0.980
    11   7 N    3.508 --    12 C    1.509     8 C    0.896    35 H    0.804
                            13 O    0.115
    12   6 C    3.902 --    11 N    1.509    13 O    1.176    15 C    1.071
    13   8 O    2.263 --    12 C    1.176    14 C    0.866    11 N    0.115
    14   6 C    3.835 --    38 H    0.981    37 H    0.976    36 H    0.976
                            13 O    0.866
    15   6 C    3.889 --    16 N    1.563    12 C    1.071    20 O    1.054
    16   7 N    3.026 --    15 C    1.563    17 N    1.240
    17   7 N    2.989 --    18 C    1.568    16 N    1.240
    18   6 C    3.855 --    17 N    1.568    20 O    1.080    19 C    1.037
    19   6 C    3.980 --    18 C    1.037    41 H    0.980    39 H    0.958
                            40 H    0.956
    20   8 O    2.334 --    18 C    1.080    15 C    1.054
    21   7 N    3.053 --     7 C    1.344    22 C    1.231    23 O    0.126
                            35 H    0.109
    22   6 C    3.926 --    23 O    1.492    21 N    1.231    24 C    1.065
    23   8 O    1.825 --    22 C    1.492    21 N    0.126
    24   6 C    3.908 --     5 C    1.490    25 O    1.081    22 C    1.065
    25   8 O    2.058 --    24 C    1.081    42 H    0.812
    26   1 H    1.010 --     1 C    0.980
    27   1 H    1.010 --     1 C    0.980
    28   1 H    1.013 --     1 C    0.987
    29   1 H    1.001 --     9 C    0.985
    30   1 H    1.007 --     9 C    0.982
    31   1 H    1.004 --     9 C    0.984
    32   1 H    1.005 --    10 C    0.984
    33   1 H    1.001 --    10 C    0.985
    34   1 H    1.012 --    10 C    0.980
    35   1 H    0.961 --    11 N    0.804    21 N    0.109
    36   1 H    1.004 --    14 C    0.976
    37   1 H    1.004 --    14 C    0.976
    38   1 H    1.004 --    14 C    0.981
    39   1 H    0.993 --    19 C    0.958
    40   1 H    0.993 --    19 C    0.956
    41   1 H    0.996 --    19 C    0.980
    42   1 H    0.870 --    25 O    0.812
 ---------------------------------------------------------------------------

           -------------------------------------------------
          | TOTAL ENERGY              -82.974934528774 Eh   |
          | GRADIENT NORM               0.000252602392 Eh/α |
          | HOMO-LUMO GAP               0.775480641084 eV   |
           -------------------------------------------------

 * finished run on 2023/06/20 at 18:07:14.049
