   * xtb version 6.5.1 (579679a) compiled by 'ehlert@majestix' on 2022-07-11
          program call               : /lustre/hpc/kemi/ree/PhD/git/ReactivityQM/dep/xtb-6.5.1/bin/xtb --gfn 1 /lustre/hpc/kemi/ree/PhD/git/ReactivityQM/calculations/R02oxygendeprot/reac01prodE08/conf08/R02oxygendeprot_reac01prodE08_conf08_gfn1.xyz --opt --vfukui --chrg -2 --uhf 0 --alpb DMSO

   ID    Z sym.   atoms
    1    6 C      1, 3, 5, 7-10, 12, 14, 15, 18, 19, 22, 24
    2    8 O      2, 4, 13, 20, 23, 25
    3    7 N      6, 11, 16, 17, 21
    4    1 H      26-42

      * Solvation model:               ALPB
        Solvent                        DMSO
        Solvent mass                       7.8130E+01 g/mol
          :  Hamiltonian                  GFN1-xTB          :
 * total energy  :   -83.6242019 Eh     change       -0.4062883E-10 Eh
 * total energy  :   -83.6357386 Eh     change       -0.1153670E-01 Eh
 * total energy  :   -83.6397165 Eh     change       -0.3977880E-02 Eh
 * total energy  :   -83.6403223 Eh     change       -0.6058242E-03 Eh
 * total energy  :   -83.6408443 Eh     change       -0.5219513E-03 Eh
 * total energy  :   -83.6410824 Eh     change       -0.2381216E-03 Eh
 * total energy  :   -83.6412718 Eh     change       -0.1894674E-03 Eh
 * total energy  :   -83.6413813 Eh     change       -0.1094923E-03 Eh
 * total energy  :   -83.6414566 Eh     change       -0.7529816E-04 Eh
 * total energy  :   -83.6415348 Eh     change       -0.7814084E-04 Eh
 * total energy  :   -83.6436895 Eh     change       -0.2736612E-04 Eh
 * total energy  :   -83.6436992 Eh     change       -0.9692944E-05 Eh
 * total energy  :   -83.6437166 Eh     change       -0.1742606E-04 Eh
 * total energy  :   -83.6437269 Eh     change       -0.1025045E-04 Eh
 * total energy  :   -83.6437433 Eh     change       -0.1639307E-04 Eh
 * total energy  :   -83.6437530 Eh     change       -0.9789068E-05 Eh
 * total energy  :   -83.6437601 Eh     change       -0.7022778E-05 Eh
 * total energy  :   -83.6437672 Eh     change       -0.7159256E-05 Eh
 * total energy  :   -83.6437720 Eh     change       -0.4767458E-05 Eh
   *** GEOMETRY OPTIMIZATION CONVERGED AFTER 43 ITERATIONS ***

 final structure:
================
42
 xtb: 6.5.1 (579679a)
C            4.94768580571472        3.23764115007678       -0.16144679704560
O            3.98225659918913        2.19769809236937       -0.15615548574323
C            4.12248342887016        1.26070063949853       -1.14868663800567
O            5.02369167392709        1.36941774003166       -1.96801353797177
C            3.12391345548093        0.21113178351397       -1.07191062053972
N            2.21149921642590        0.33568967225879       -0.04028996033147
C            1.29404887377933       -0.54136391901207        0.13451834752503
C            0.30327062471584       -0.40987471380827        1.27738154755205
C            0.43945260578815       -1.62206462304511        2.21573178544026
C            0.59679708753495        0.88836542432720        2.03893413310855
N           -1.04174066261037       -0.36617840662519        0.69832692256932
C           -2.17355913948009       -0.29164252532608        1.45023720360874
O           -2.16725442875983       -0.07949798003758        2.66503062577095
C           -3.47821558152140       -0.29333882511037        0.63268889272386
C           -4.57596664917057       -1.06787295446663        1.38672121287531
N           -3.81628003109993        1.12708285907923        0.47037518869510
N           -3.83103413067538        1.34550361233821       -0.87380735439777
C           -3.54841035495383        0.27331524999589       -1.51399098885140
C           -3.50997775313669        0.06368709844439       -2.98745575143766
O           -3.27934387501286       -0.82839654813721       -0.67032859764754
N            1.17516888171223       -1.64158103514528       -0.69497431102625
C            2.01990999812888       -1.90100321009806       -1.74290067677953
O            1.86827001108278       -2.92280989385109       -2.41030523170348
C            3.10118396310869       -0.87279738709686       -1.98971419190094
O            3.88276109308850       -1.04347697845179       -2.94370098084473
H            4.72014209944697        3.89220245690661        0.67910533015926
H            4.90312095025509        3.80796569514728       -1.09536719750990
H            5.95811045649664        2.83102253396377       -0.04716492462336
H           -0.22045971637344       -1.50782777588411        3.07430166261882
H            1.46734178765557       -1.70086569072478        2.56748330967772
H            0.17525736613360       -2.53903672997424        1.69180818930124
H            0.46970380034556        1.74690542036067        1.37914245429601
H            1.62694469201267        0.87177873022144        2.39259423325590
H           -0.06798745353352        0.99014005029632        2.89441855616082
H           -1.14848305426041       -0.77402271464615       -0.22165620206721
H           -4.65074003735945       -0.68629516104075        2.40368709191980
H           -4.33542196894653       -2.12965099774402        1.41400171630505
H           -5.52816487349570       -0.92888643643460        0.87879058209611
H           -4.16728468791305       -0.75861973751582       -3.27827243632204
H           -2.50176082185088       -0.17796630785011       -3.33471472455186
H           -3.84287429044189        0.97309859042036       -3.48585542530018
H            0.47194603971282       -2.33827824722717       -0.50856495106939

          :  Hamiltonian                  GFN1-xTB          :
         :: total energy             -83.643771996926 Eh    ::
         :: gradient norm              0.000778353517 Eh/a0 ::
         :: HOMO-LUMO gap              0.295302947147 eV    ::
         :: SCC energy               -84.382639721485 Eh    ::
         :: -> Gsolv                  -0.263196680558 Eh    ::
         :: repulsion energy           0.765221767596 Eh    ::

    * Orbital Energies and Occupations

         #    Occupation            Energy/Eh            Energy/eV
      -------------------------------------------------------------
         1        2.0000           -0.7931939             -21.5839
       ...           ...                  ...                  ...
        56        2.0000           -0.4484496             -12.2029
        57        2.0000           -0.4467917             -12.1578
        58        2.0000           -0.4328341             -11.7780
        59        2.0000           -0.4320950             -11.7579
        60        2.0000           -0.4096194             -11.1463
        61        2.0000           -0.4071944             -11.0803
        62        2.0000           -0.4024058             -10.9500
        63        2.0000           -0.3994520             -10.8696
        64        2.0000           -0.3779070             -10.2834
        65        2.0000           -0.3713118             -10.1039
        66        2.0000           -0.3591929              -9.7741
        67        2.0000           -0.3492459              -9.5035
        68        1.9934           -0.2754280              -7.4948 (HOMO)
        69        0.0066           -0.2645758              -7.1995 (LUMO)
        70                         -0.2310099              -6.2861
        71                         -0.2085552              -5.6751
        72                         -0.1909654              -5.1964
        73                         -0.1619886              -4.4079
        74                         -0.1208497              -3.2885
        75                         -0.1108957              -3.0176
        76                         -0.1071708              -2.9163
        77                         -0.1027181              -2.7951
        78                         -0.0998290              -2.7165
        79                         -0.0882604              -2.4017
       ...                                ...                  ...
       134                          0.7691023              20.9283
      -------------------------------------------------------------
                  HL-Gap            0.0108522 Eh            0.2953 eV

Wiberg/Mayer (AO) data.
largest (>0.10) Wiberg bond orders for each atom

     #   Z sym  total        # sym  WBO       # sym  WBO       # sym  WBO
 ---------------------------------------------------------------------------
     1   6 C    3.902 --    26 H    0.987    27 H    0.980    28 H    0.980
                             2 O    0.930
     2   8 O    2.133 --     3 C    1.018     1 C    0.930     4 O    0.107
     3   6 C    3.847 --     4 O    1.586     5 C    1.127     2 O    1.018
     4   8 O    1.862 --     3 C    1.586     2 O    0.107
     5   6 C    3.916 --    24 C    1.267     6 N    1.150     3 C    1.127
                            25 O    0.129
     6   7 N    3.027 --     7 C    1.637     5 C    1.150
     7   6 C    3.929 --     6 N    1.637    21 N    1.089     8 C    0.977
     8   6 C    3.952 --    10 C    0.997     9 C    0.981     7 C    0.977
                            11 N    0.933
     9   6 C    3.992 --    30 H    0.987    31 H    0.984     8 C    0.981
                            29 H    0.981
    10   6 C    3.995 --     8 C    0.997    33 H    0.987    32 H    0.986
                            34 H    0.982
    11   7 N    3.293 --    12 C    1.217     8 C    0.933    35 H    0.903
                            13 O    0.141
    12   6 C    3.866 --    13 O    1.556    11 N    1.217    14 C    0.924
    13   8 O    1.863 --    12 C    1.556    11 N    0.141
    14   6 C    3.897 --    16 N    0.977    15 C    0.970    12 C    0.924
                            20 O    0.923
    15   6 C    3.995 --    37 H    0.988    38 H    0.987    36 H    0.986
                            14 C    0.970
    16   7 N    2.612 --    17 N    1.194    14 C    0.977    18 C    0.209
    17   7 N    3.019 --    18 C    1.666    16 N    1.194
    18   6 C    3.859 --    17 N    1.666    19 C    1.017    20 O    0.918
                            16 N    0.209
    19   6 C    3.996 --    18 C    1.017    41 H    0.987    39 H    0.978
                            40 H    0.976
    20   8 O    2.063 --    14 C    0.923    18 C    0.918
    21   7 N    3.426 --    22 C    1.163     7 C    1.089    42 H    0.898
                            23 O    0.135
    22   6 C    3.877 --    23 O    1.574    21 N    1.163    24 C    0.969
    23   8 O    1.852 --    22 C    1.574    21 N    0.135
    24   6 C    3.941 --    25 O    1.520     5 C    1.267    22 C    0.969
    25   8 O    1.823 --    24 C    1.520     5 C    0.129
    26   1 H    1.016 --     1 C    0.987
    27   1 H    1.015 --     1 C    0.980
    28   1 H    1.015 --     1 C    0.980
    29   1 H    1.014 --     9 C    0.981
    30   1 H    1.005 --     9 C    0.987
    31   1 H    1.004 --     9 C    0.984
    32   1 H    1.014 --    10 C    0.986
    33   1 H    1.016 --    10 C    0.987
    34   1 H    1.020 --    10 C    0.982
    35   1 H    0.964 --    11 N    0.903
    36   1 H    1.019 --    15 C    0.986
    37   1 H    1.011 --    15 C    0.988
    38   1 H    1.020 --    15 C    0.987
    39   1 H    1.009 --    19 C    0.978
    40   1 H    1.010 --    19 C    0.976
    41   1 H    1.010 --    19 C    0.987
    42   1 H    0.947 --    21 N    0.898
 ---------------------------------------------------------------------------

           -------------------------------------------------
          | TOTAL ENERGY              -83.643771996926 Eh   |
          | GRADIENT NORM               0.000778353517 Eh/α |
          | HOMO-LUMO GAP               0.295302947147 eV   |
           -------------------------------------------------

 * finished run on 2023/06/21 at 17:10:29.679
