   * xtb version 6.5.1 (579679a) compiled by 'ehlert@majestix' on 2022-07-11
          program call               : /lustre/hpc/kemi/ree/PhD/git/ReactivityQM/dep/xtb-6.5.1/bin/xtb --gfn 1 /lustre/hpc/kemi/ree/PhD/git/ReactivityQM/calculations/RaltegravirCLI/reac02prodN13/conf09/RaltegravirCLI_reac02prodN13_conf09_gfn1.xyz --opt --vfukui --chrg 1 --uhf 0 --alpb DMSO

   ID    Z sym.   atoms
    1    6 C      1, 3-6, 9, 10, 13-17, 19-21, 23, 24
    2    7 N      2, 7, 8, 12
    3    8 O      11, 22, 25
    4    9 F      18
    5    1 H      26-47

      * Solvation model:               ALPB
        Solvent                        DMSO
        Solvent mass                       7.8130E+01 g/mol
          :  Hamiltonian                  GFN1-xTB          :
 * total energy  :   -79.4004994 Eh     change       -0.1496403E-09 Eh
 * total energy  :   -79.4198761 Eh     change       -0.1937664E-01 Eh
 * total energy  :   -79.4301687 Eh     change       -0.1029269E-01 Eh
 * total energy  :   -79.4336067 Eh     change       -0.3438004E-02 Eh
 * total energy  :   -79.4358981 Eh     change       -0.2291326E-02 Eh
 * total energy  :   -79.4368258 Eh     change       -0.9276859E-03 Eh
 * total energy  :   -79.4373603 Eh     change       -0.5345457E-03 Eh
 * total energy  :   -79.4377137 Eh     change       -0.3534145E-03 Eh
 * total energy  :   -79.4379447 Eh     change       -0.2309460E-03 Eh
 * total energy  :   -79.4381014 Eh     change       -0.1567284E-03 Eh
 * total energy  :   -79.4924118 Eh     change       -0.8847740E-04 Eh
 * total energy  :   -79.4925186 Eh     change       -0.1068073E-03 Eh
 * total energy  :   -79.4925690 Eh     change       -0.5046279E-04 Eh
 * total energy  :   -79.4925940 Eh     change       -0.2494288E-04 Eh
 * total energy  :   -79.4926209 Eh     change       -0.2695310E-04 Eh
 * total energy  :   -79.4926470 Eh     change       -0.2604717E-04 Eh
 * total energy  :   -79.4926531 Eh     change       -0.6111503E-05 Eh
 * total energy  :   -79.4926619 Eh     change       -0.8847097E-05 Eh
 * total energy  :   -79.4926655 Eh     change       -0.3563716E-05 Eh
   *** GEOMETRY OPTIMIZATION CONVERGED AFTER 50 ITERATIONS ***

 final structure:
================
47
 xtb: 6.5.1 (579679a)
C           -3.26763923003459        1.79518758454548       -1.72862287803498
N           -2.36284772732370        0.74731290214460       -1.24760266257729
C           -2.30940708955044        0.30300558604436        0.00875912626034
C           -3.36443465644047        0.49894182308892        1.05792894901358
C           -3.28782853020983       -0.66208365061621        2.06870963610683
C           -3.05621657978769        1.83219781506405        1.76874321502879
N           -4.68106392448656        0.56929629931290        0.46019446248564
N           -1.17199541529567       -0.26578043717147        0.45229647635725
C           -0.25358056164960       -0.75396936232951       -0.31318136851447
C            1.01618919200223       -1.16701525149445        0.40960564180448
O            1.00533171295175       -1.25545495877148        1.62595870138976
N            2.08310245799991       -1.40950603525808       -0.35707350986531
C            3.36323796926479       -1.78014564882250        0.24556690726230
C            4.19963083523539       -0.54674994719501        0.51401839950179
C            3.92061072744958        0.25561040729561        1.61915431084555
C            4.67578341060461        1.39122850233255        1.87232983621307
C            5.70645991263231        1.70198814604018        1.00265667102803
F            6.44233563775425        2.79728425389565        1.24201164445093
C            6.00868494759612        0.92811399094469       -0.10297362753001
C            5.24124254492717       -0.20357234252052       -0.34353482645284
C           -0.59479528263506       -0.92773621727757       -1.75745874218941
O            0.52625024128983       -1.05520103017598       -2.56994600628901
C           -1.43750833252255        0.26309327403565       -2.20909152353815
C           -1.52276336866528       -2.16802707598832       -1.91405775917698
O           -1.41702721183723        0.68837756272274       -3.32640434007754
H           -3.49897552955941        1.59115121220275       -2.77256093227365
H           -2.75939802067044        2.75521376910150       -1.64307147284773
H           -4.17042668610253        1.78767659853027       -1.12143218449638
H           -2.31204293084588       -0.68834713371469        2.55166160490239
H           -4.05874374390214       -0.51889974206982        2.82267692292617
H           -3.46081850041922       -1.60813039152892        1.55911300368296
H           -3.75991463887354        1.95684035993194        2.58960904638990
H           -3.16899203960471        2.66146544244028        1.07334470985305
H           -2.04124968329175        1.82498301577112        2.16266851938813
H           -5.36100914856270        0.83411212130306        1.15867494139386
H           -4.94175914215090       -0.32772641660518        0.07741814968986
H            2.04936808635598       -1.28186632416271       -1.35550740779152
H            3.15141315854675       -2.31087877688129        1.17844599406738
H            3.87163923342446       -2.45030887765682       -0.45002062836473
H            3.10841739323590       -0.00987887024522        2.28548320658362
H            4.47153221576218        2.02326645641317        2.72687654852941
H            6.82312650220326        1.20462204416170       -0.75978088344542
H            5.46043593380893       -0.82433673271570       -1.20373665511671
H            0.31539578207565       -0.82382254711557       -3.48781470714230
H           -0.93102225289644       -3.05776823748692       -1.71184234508424
H           -1.89083484758249       -2.20468239896954       -2.93661558667131
H           -2.35789282022234       -2.10907876054427       -1.22157957767928

          :  Hamiltonian                  GFN1-xTB          :
         :: total energy             -79.492665489178 Eh    ::
         :: gradient norm              0.000532067774 Eh/a0 ::
         :: HOMO-LUMO gap              0.776004638656 eV    ::
         :: SCC energy               -80.385067323223 Eh    ::
         :: -> Gsolv                  -0.106987676265 Eh    ::
         :: repulsion energy           0.923317209897 Eh    ::

    * Orbital Energies and Occupations

         #    Occupation            Energy/Eh            Energy/eV
      -------------------------------------------------------------
         1        2.0000           -0.8851601             -24.0864
       ...           ...                  ...                  ...
        55        2.0000           -0.5217225             -14.1968
        56        2.0000           -0.5207254             -14.1697
        57        2.0000           -0.5164347             -14.0529
        58        2.0000           -0.5134764             -13.9724
        59        2.0000           -0.5104927             -13.8912
        60        2.0000           -0.5059085             -13.7665
        61        2.0000           -0.4953973             -13.4804
        62        2.0000           -0.4810359             -13.0897
        63        2.0000           -0.4779372             -13.0053
        64        2.0000           -0.4646593             -12.6440
        65        2.0000           -0.4588349             -12.4855
        66        2.0000           -0.4456055             -12.1255
        67        2.0000           -0.4427930             -12.0490 (HOMO)
        68        0.0000           -0.4142753             -11.2730 (LUMO)
        69                         -0.3402703              -9.2592
        70                         -0.3010274              -8.1914
        71                         -0.2807342              -7.6392
        72                         -0.2757789              -7.5043
        73                         -0.2432306              -6.6186
        74                         -0.1600034              -4.3539
        75                         -0.1544872              -4.2038
        76                         -0.1540331              -4.1915
        77                         -0.1453884              -3.9562
        78                         -0.1377499              -3.7484
       ...                                ...                  ...
       144                          0.6839966              18.6125
      -------------------------------------------------------------
                  HL-Gap            0.0285176 Eh            0.7760 eV

Wiberg/Mayer (AO) data.
largest (>0.10) Wiberg bond orders for each atom

     #   Z sym  total        # sym  WBO       # sym  WBO       # sym  WBO
 ---------------------------------------------------------------------------
     1   6 C    3.881 --    26 H    0.974    27 H    0.965    28 H    0.955
                             2 N    0.902
     2   7 N    3.548 --     3 C    1.351    23 C    1.019     1 C    0.902
     3   6 C    3.877 --     2 N    1.351     8 N    1.261     4 C    1.008
     4   6 C    3.956 --     3 C    1.008     7 N    0.998     5 C    0.963
                             6 C    0.937
     5   6 C    3.984 --    31 H    0.984    30 H    0.981    29 H    0.980
                             4 C    0.963
     6   6 C    3.978 --    34 H    0.984    33 H    0.984    32 H    0.975
                             4 C    0.937
     7   7 N    3.020 --     4 C    0.998    36 H    0.929    35 H    0.925
     8   7 N    3.141 --     9 C    1.630     3 C    1.261
     9   6 C    3.898 --     8 N    1.630    21 C    1.004    10 C    0.957
    10   6 C    3.922 --    11 O    1.582    12 N    1.306     9 C    0.957
    11   8 O    1.912 --    10 C    1.582    12 N    0.202
    12   7 N    3.415 --    10 C    1.306    13 C    0.929    37 H    0.872
                            11 O    0.202
    13   6 C    3.929 --    14 C    0.987    39 H    0.973    38 H    0.968
                            12 N    0.929
    14   6 C    3.982 --    20 C    1.423    15 C    1.415    13 C    0.987
    15   6 C    3.992 --    16 C    1.448    14 C    1.415    40 H    0.969
                            19 C    0.111
    16   6 C    3.991 --    15 C    1.448    17 C    1.397    41 H    0.969
                            20 C    0.110
    17   6 C    3.862 --    19 C    1.402    16 C    1.397    18 F    0.929
    18   9 F    1.059 --    17 C    0.929
    19   6 C    3.990 --    20 C    1.440    17 C    1.402    42 H    0.968
                            15 C    0.111
    20   6 C    3.993 --    19 C    1.440    14 C    1.423    43 H    0.970
                            16 C    0.110
    21   6 C    3.933 --     9 C    1.004    22 O    0.988    23 C    0.925
                            24 C    0.894
    22   8 O    1.931 --    21 C    0.988    44 H    0.809
    23   6 C    3.861 --    25 O    1.769     2 N    1.019    21 C    0.925
    24   6 C    3.969 --    47 H    0.985    46 H    0.978    45 H    0.976
                            21 C    0.894
    25   8 O    2.036 --    23 C    1.769
    26   1 H    0.997 --     1 C    0.974
    27   1 H    0.994 --     1 C    0.965
    28   1 H    1.018 --     1 C    0.955
    29   1 H    1.006 --     5 C    0.980
    30   1 H    0.998 --     5 C    0.981
    31   1 H    0.999 --     5 C    0.984
    32   1 H    0.993 --     6 C    0.975
    33   1 H    0.999 --     6 C    0.984
    34   1 H    0.999 --     6 C    0.984
    35   1 H    0.940 --     7 N    0.925
    36   1 H    0.944 --     7 N    0.929
    37   1 H    0.935 --    12 N    0.872
    38   1 H    1.004 --    13 C    0.968
    39   1 H    0.999 --    13 C    0.973
    40   1 H    1.008 --    15 C    0.969
    41   1 H    0.997 --    16 C    0.969
    42   1 H    0.997 --    19 C    0.968
    43   1 H    0.998 --    20 C    0.970
    44   1 H    0.834 --    22 O    0.809
    45   1 H    0.995 --    24 C    0.976
    46   1 H    0.993 --    24 C    0.978
    47   1 H    0.997 --    24 C    0.985
 ---------------------------------------------------------------------------

           -------------------------------------------------
          | TOTAL ENERGY              -79.492665489178 Eh   |
          | GRADIENT NORM               0.000532067774 Eh/α |
          | HOMO-LUMO GAP               0.776004638656 eV   |
           -------------------------------------------------

 * finished run on 2023/06/20 at 15:35:20.733
