   * xtb version 6.5.1 (579679a) compiled by 'ehlert@majestix' on 2022-07-11
          program call               : /lustre/hpc/kemi/ree/PhD/git/ReactivityQM/dep/xtb-6.5.1/bin/xtb --gfn 1 /lustre/hpc/kemi/ree/PhD/git/ReactivityQM/calculations/RaltegravirCLI/reac01prodE06/conf07/RaltegravirCLI_reac01prodE06_conf07_gfn1.xyz --opt --vfukui --chrg -1 --uhf 0 --alpb DMSO

   ID    Z sym.   atoms
    1    6 C      1, 3, 5, 8, 9
    2    8 O      2, 10
    3   17 Cl     4
    4    7 N      6, 7
    5    1 H      11-16

      * Solvation model:               ALPB
        Solvent                        DMSO
        Solvent mass                       7.8130E+01 g/mol
          :  Hamiltonian                  GFN1-xTB          :
 * total energy  :   -34.1170769 Eh     change       -0.5329071E-12 Eh
 * total energy  :   -34.1224288 Eh     change       -0.5351969E-02 Eh
 * total energy  :   -34.1245857 Eh     change       -0.2156921E-02 Eh
 * total energy  :   -34.1251742 Eh     change       -0.5884492E-03 Eh
 * total energy  :   -34.1256118 Eh     change       -0.4376446E-03 Eh
 * total energy  :   -34.1258580 Eh     change       -0.2461875E-03 Eh
 * total energy  :   -34.1261106 Eh     change       -0.2525797E-03 Eh
 * total energy  :   -34.1264734 Eh     change       -0.3628266E-03 Eh
 * total energy  :   -34.1271773 Eh     change       -0.7039002E-03 Eh
 * total energy  :   -34.1279498 Eh     change       -0.7724595E-03 Eh
 * total energy  :   -34.1303735 Eh     change       -0.1845529E-04 Eh
 * total energy  :   -34.1303975 Eh     change       -0.2405813E-04 Eh
 * total energy  :   -34.1304090 Eh     change       -0.1148554E-04 Eh
 * total energy  :   -34.1304172 Eh     change       -0.8193401E-05 Eh
 * total energy  :   -34.1304301 Eh     change       -0.1289095E-04 Eh
 * total energy  :   -34.1304365 Eh     change       -0.6437264E-05 Eh
 * total energy  :   -34.1304357 Eh     change        0.8304234E-06 Eh
 * total energy  :   -34.1304434 Eh     change       -0.7669565E-05 Eh
 * total energy  :   -34.1304448 Eh     change       -0.1405731E-05 Eh
   *** GEOMETRY OPTIMIZATION CONVERGED AFTER 32 ITERATIONS ***

 final structure:
================
16
 xtb: 6.5.1 (579679a)
C           -2.59489405213426        0.74046046002803        0.30962810032273
O           -2.13365165660000       -0.41017061073338        1.01890600610690
C           -1.40335268297982       -1.34431737406744        0.32068503963651
Cl          -2.46226224114118       -2.35874102787108       -0.78738262690983
C           -0.19342874022852       -0.97912596460465       -0.29354332932214
N            0.51545273914153       -1.67144050856449       -1.18266183407596
N            1.76660237911654       -1.07831256289122       -1.23187366378526
C            1.76006358361726       -0.10024115437842       -0.39900893808191
C            2.87520040179442        0.83093827956912       -0.08373262107005
O            0.56462882107375        0.04100796611998        0.24281012161585
H           -1.75487195991222        1.32657545307973       -0.08353772694928
H           -3.15973989516434        1.35164250820641        1.01592548560380
H           -3.24991401094958        0.45172450593059       -0.52192747812774
H            2.60559439087327        1.85557316827669       -0.34253548318617
H            3.75837834789424        0.54165613644173       -0.64911908600152
H            3.10619457559937        0.80277072545849        0.98168403422420

          :  Hamiltonian                  GFN1-xTB          :
         :: total energy             -34.130444763611 Eh    ::
         :: gradient norm              0.000223119418 Eh/a0 ::
         :: HOMO-LUMO gap              2.980789073155 eV    ::
         :: SCC energy               -34.378994982187 Eh    ::
         :: -> Gsolv                  -0.094012152117 Eh    ::
         :: repulsion energy           0.255690318172 Eh    ::

    * Orbital Energies and Occupations

         #    Occupation            Energy/Eh            Energy/eV
      -------------------------------------------------------------
         1        2.0000           -0.8469200             -23.0459
       ...           ...                  ...                  ...
        16        2.0000           -0.5138997             -13.9839
        17        2.0000           -0.5085466             -13.8383
        18        2.0000           -0.4879719             -13.2784
        19        2.0000           -0.4845653             -13.1857
        20        2.0000           -0.4670682             -12.7096
        21        2.0000           -0.4473679             -12.1735
        22        2.0000           -0.4341215             -11.8130
        23        2.0000           -0.4324335             -11.7671
        24        2.0000           -0.4240543             -11.5391
        25        2.0000           -0.4094558             -11.1419
        26        2.0000           -0.3965925             -10.7918
        27        2.0000           -0.3842815             -10.4568
        28        2.0000           -0.3093012              -8.4165 (HOMO)
        29                         -0.1997592              -5.4357 (LUMO)
        30                         -0.1806491              -4.9157
        31                         -0.1350032              -3.6736
        32                         -0.1200897              -3.2678
        33                         -0.1082983              -2.9469
        34                         -0.0538842              -1.4663
        35                         -0.0530771              -1.4443
        36                         -0.0472575              -1.2859
        37                         -0.0428827              -1.1669
        38                          0.0166815               0.4539
        39                          0.0210707               0.5734
       ...                                ...                  ...
        57                          0.6361090              17.3094
      -------------------------------------------------------------
                  HL-Gap            0.1095420 Eh            2.9808 eV

Wiberg/Mayer (AO) data.
largest (>0.10) Wiberg bond orders for each atom

     #   Z sym  total        # sym  WBO       # sym  WBO       # sym  WBO
 ---------------------------------------------------------------------------
     1   6 C    3.932 --    12 H    0.987    11 H    0.982    13 H    0.982
                             2 O    0.933
     2   8 O    2.057 --     3 C    1.006     1 C    0.933
     3   6 C    3.425 --     5 C    1.335     2 O    1.006     4 Cl   0.802
                             6 N    0.145
     4  17 Cl   0.910 --     3 C    0.802
     5   6 C    3.855 --     6 N    1.409     3 C    1.335    10 O    0.982
     6   7 N    2.865 --     5 C    1.409     7 N    1.140     3 C    0.145
     7   7 N    2.983 --     8 C    1.678     6 N    1.140
     8   6 C    3.890 --     7 N    1.678    10 O    1.020     9 C    1.020
     9   6 C    3.995 --     8 C    1.020    15 H    0.986    16 H    0.974
                            14 H    0.973
    10   8 O    2.221 --     8 C    1.020     5 C    0.982
    11   1 H    1.019 --     1 C    0.982
    12   1 H    1.021 --     1 C    0.987
    13   1 H    1.020 --     1 C    0.982
    14   1 H    1.005 --     9 C    0.973
    15   1 H    1.006 --     9 C    0.986
    16   1 H    1.005 --     9 C    0.974
 ---------------------------------------------------------------------------

           -------------------------------------------------
          | TOTAL ENERGY              -34.130444763611 Eh   |
          | GRADIENT NORM               0.000223119418 Eh/α |
          | HOMO-LUMO GAP               2.980789073155 eV   |
           -------------------------------------------------

 * finished run on 2023/06/20 at 14:54:04.315
