   * xtb version 6.5.1 (579679a) compiled by 'ehlert@majestix' on 2022-07-11
          program call               : /lustre/hpc/kemi/ree/PhD/git/ReactivityQM/dep/xtb-6.5.1/bin/xtb --gfn 1 /lustre/hpc/kemi/ree/PhD/git/ReactivityQM/calculations/RaltegravirCLI/reac02prodN14/conf20/RaltegravirCLI_reac02prodN14_conf20_gfn1.xyz --opt --vfukui --chrg 1 --uhf 0 --alpb DMSO

   ID    Z sym.   atoms
    1    6 C      1-3, 5, 7, 8, 11-15, 17-19, 21, 24, 25
    2    7 N      4, 6, 10, 23
    3    8 O      9, 20, 22
    4    9 F      16
    5    1 H      26-47

      * Solvation model:               ALPB
        Solvent                        DMSO
        Solvent mass                       7.8130E+01 g/mol
          :  Hamiltonian                  GFN1-xTB          :
 * total energy  :   -79.4625079 Eh     change       -0.8125767E-10 Eh
 * total energy  :   -79.4752086 Eh     change       -0.1270065E-01 Eh
 * total energy  :   -79.4796921 Eh     change       -0.4483523E-02 Eh
 * total energy  :   -79.4805935 Eh     change       -0.9014378E-03 Eh
 * total energy  :   -79.4810323 Eh     change       -0.4387859E-03 Eh
 * total energy  :   -79.4812334 Eh     change       -0.2011414E-03 Eh
 * total energy  :   -79.4813991 Eh     change       -0.1656163E-03 Eh
 * total energy  :   -79.4815315 Eh     change       -0.1324498E-03 Eh
 * total energy  :   -79.4816269 Eh     change       -0.9539850E-04 Eh
 * total energy  :   -79.4817060 Eh     change       -0.7911435E-04 Eh
 * total energy  :   -79.4824164 Eh     change       -0.2026396E-04 Eh
 * total energy  :   -79.4824448 Eh     change       -0.2845306E-04 Eh
 * total energy  :   -79.4824705 Eh     change       -0.2565639E-04 Eh
 * total energy  :   -79.4824978 Eh     change       -0.2728709E-04 Eh
 * total energy  :   -79.4825191 Eh     change       -0.2130632E-04 Eh
 * total energy  :   -79.4825362 Eh     change       -0.1708354E-04 Eh
 * total energy  :   -79.4825458 Eh     change       -0.9646666E-05 Eh
 * total energy  :   -79.4825488 Eh     change       -0.2942042E-05 Eh
 * total energy  :   -79.4825526 Eh     change       -0.3811031E-05 Eh
   *** GEOMETRY OPTIMIZATION CONVERGED AFTER 38 ITERATIONS ***

 final structure:
================
47
 xtb: 6.5.1 (579679a)
C           -2.83122556081248        2.27045385541530        0.55868040539811
C           -3.10705288808602        0.88336699153931        1.16499935280573
C           -2.75069014368604        0.88705204939791        2.66219777336612
N           -4.51289193967777        0.55545795564249        0.98728611662142
C           -2.17543500741991       -0.09355570396669        0.46771217256188
N           -0.95011882267238       -0.04586728982093        0.76827250364763
C            0.05719618898934       -0.80358893634271        0.20686790814475
C            1.40197425991409       -0.53025699302586        0.83745671513747
O            1.50288111953975        0.28671902065982        1.73937589449686
N            2.43303060803781       -1.24082920782937        0.35898467657121
C            3.78047374748064       -1.04784396132041        0.89759789997497
C            4.48927475220934        0.07175961635619        0.16536924211534
C            5.32165154505653       -0.21134788276988       -0.91459527540230
C            5.96260471324766        0.81252966274314       -1.59899077961810
C            5.74879143591441        2.11372526145111       -1.18172096049730
F            6.36468465978729        3.10949281789039       -1.83754147047911
C            4.92510804714625        2.43015541701406       -0.11587414118942
C            4.29359756774700        1.39460214989144        0.55758429020520
C           -0.24006755745923       -1.65244292289626       -0.81470862895301
O            0.67384738395925       -2.38795096352484       -1.46017057981517
C           -1.60070527616686       -1.81333563374860       -1.28955790122533
O           -1.92881328607507       -2.53264295971693       -2.18989487215695
N           -2.68076414413622       -1.05436376189108       -0.56292766753030
C           -3.49649235624104       -2.11267749771702        0.11495926513302
C           -3.49060661684252       -0.36026996846051       -1.61031919643326
H           -1.76973649123439        2.50572559001369        0.62775552907481
H           -3.13346810089680        2.29432206970088       -0.48661806801178
H           -3.39988454195088        3.01909194985287        1.10778725164408
H           -2.91550391858964       -0.10284705620607        3.08478077658967
H           -1.70629993473679        1.16464188065009        2.80271853241351
H           -3.38814858567659        1.60354387608872        3.17667834482514
H           -5.06030011766959        1.40181546978674        0.91363121742786
H           -4.85676713254081        0.04108938048076        1.78703490475300
H            2.32300961885301       -1.87901219893397       -0.40921771914418
H            3.68619540988569       -0.81066969117966        1.96172383497670
H            4.31881658575160       -1.99022373671602        0.78049120958381
H            5.47446852331537       -1.23802813364122       -1.22466741130680
H            6.61320388664143        0.60608936225981       -2.43876567689497
H            4.78202498406244        3.46219099018748        0.17738635896088
H            3.63963266084165        1.61597299908899        1.39310515034874
H            0.27026735900621       -2.94061865178988       -2.15116238130828
H           -3.74321727842464       -2.86794697197723       -0.62771281089343
H           -4.39782265273219       -1.64806720281728        0.49839809538409
H           -2.90510348462780       -2.54014947315272        0.92055414198075
H           -2.86924550404704        0.40050556572097       -2.07524620761972
H           -4.35696170206064        0.08084049239540       -1.12671794502204
H           -3.79541601291949       -1.10660662478289       -2.34015887064137

          :  Hamiltonian                  GFN1-xTB          :
         :: total energy             -79.482552572853 Eh    ::
         :: gradient norm              0.000542374003 Eh/a0 ::
         :: HOMO-LUMO gap              1.278459347336 eV    ::
         :: SCC energy               -80.381395697330 Eh    ::
         :: -> Gsolv                  -0.113841879350 Eh    ::
         :: repulsion energy           0.930232357944 Eh    ::

    * Orbital Energies and Occupations

         #    Occupation            Energy/Eh            Energy/eV
      -------------------------------------------------------------
         1        2.0000           -0.8927295             -24.2924
       ...           ...                  ...                  ...
        55        2.0000           -0.5169581             -14.0671
        56        2.0000           -0.5153761             -14.0241
        57        2.0000           -0.5120988             -13.9349
        58        2.0000           -0.5096624             -13.8686
        59        2.0000           -0.5071511             -13.8003
        60        2.0000           -0.4871934             -13.2572
        61        2.0000           -0.4783578             -13.0168
        62        2.0000           -0.4753419             -12.9347
        63        2.0000           -0.4705967             -12.8056
        64        2.0000           -0.4561759             -12.4132
        65        2.0000           -0.4543519             -12.3635
        66        2.0000           -0.4426374             -12.0448
        67        2.0000           -0.4376843             -11.9100 (HOMO)
        68                         -0.3907018             -10.6315 (LUMO)
        69                         -0.3193137              -8.6890
        70                         -0.2790030              -7.5921
        71                         -0.2781159              -7.5679
        72                         -0.2718952              -7.3986
        73                         -0.1998881              -5.4392
        74                         -0.1631396              -4.4393
        75                         -0.1580492              -4.3007
        76                         -0.1513276              -4.1178
        77                         -0.1389716              -3.7816
        78                         -0.1348095              -3.6684
       ...                                ...                  ...
       144                          0.7099605              19.3190
      -------------------------------------------------------------
                  HL-Gap            0.0469825 Eh            1.2785 eV

Wiberg/Mayer (AO) data.
largest (>0.10) Wiberg bond orders for each atom

     #   Z sym  total        # sym  WBO       # sym  WBO       # sym  WBO
 ---------------------------------------------------------------------------
     1   6 C    3.986 --    26 H    0.984    27 H    0.984    28 H    0.979
                             2 C    0.966
     2   6 C    3.958 --     4 N    0.994     5 C    0.983     3 C    0.973
                             1 C    0.966
     3   6 C    3.988 --    29 H    0.985    31 H    0.983    30 H    0.981
                             2 C    0.973
     4   7 N    2.997 --     2 C    0.994    33 H    0.930    32 H    0.928
     5   6 C    3.888 --     6 N    1.774     2 C    0.983    23 N    0.870
     6   7 N    3.087 --     5 C    1.774     7 C    1.118
     7   6 C    3.953 --    19 C    1.531     6 N    1.118     8 C    0.976
     8   6 C    3.919 --     9 O    1.581    10 N    1.288     7 C    0.976
     9   8 O    1.898 --     8 C    1.581    10 N    0.187
    10   7 N    3.380 --     8 C    1.288    11 C    0.931    34 H    0.883
                             9 O    0.187
    11   6 C    3.937 --    12 C    0.991    36 H    0.976    35 H    0.970
                            10 N    0.931
    12   6 C    3.987 --    13 C    1.422    18 C    1.417    11 C    0.991
    13   6 C    3.993 --    14 C    1.441    12 C    1.422    37 H    0.971
                            17 C    0.110
    14   6 C    3.991 --    13 C    1.441    15 C    1.402    38 H    0.969
                            18 C    0.111
    15   6 C    3.861 --    14 C    1.402    17 C    1.399    16 F    0.927
    16   9 F    1.056 --    15 C    0.927
    17   6 C    3.992 --    18 C    1.446    15 C    1.399    39 H    0.969
                            13 C    0.110
    18   6 C    3.992 --    17 C    1.446    12 C    1.417    40 H    0.969
                            14 C    0.111
    19   6 C    3.924 --     7 C    1.531    20 O    1.096    21 C    1.076
    20   8 O    2.090 --    19 C    1.096    41 H    0.789
    21   6 C    3.870 --    22 O    1.752    19 C    1.076    23 N    0.862
    22   8 O    2.047 --    21 C    1.752
    23   7 N    3.622 --    25 C    0.877    24 C    0.870     5 C    0.870
                            21 C    0.862
    24   6 C    3.877 --    44 H    0.982    42 H    0.976    43 H    0.971
                            23 N    0.870
    25   6 C    3.875 --    45 H    0.983    47 H    0.976    46 H    0.968
                            23 N    0.877
    26   1 H    1.003 --     1 C    0.984
    27   1 H    1.000 --     1 C    0.984
    28   1 H    0.997 --     1 C    0.979
    29   1 H    1.000 --     3 C    0.985
    30   1 H    1.008 --     3 C    0.981
    31   1 H    0.999 --     3 C    0.983
    32   1 H    0.943 --     4 N    0.928
    33   1 H    0.948 --     4 N    0.930
    34   1 H    0.937 --    10 N    0.883
    35   1 H    1.006 --    11 C    0.970
    36   1 H    1.001 --    11 C    0.976
    37   1 H    0.998 --    13 C    0.971
    38   1 H    0.997 --    14 C    0.969
    39   1 H    0.998 --    17 C    0.969
    40   1 H    1.010 --    18 C    0.969
    41   1 H    0.818 --    20 O    0.789
    42   1 H    0.994 --    24 C    0.976
    43   1 H    1.007 --    24 C    0.971
    44   1 H    0.992 --    24 C    0.982
    45   1 H    0.995 --    25 C    0.983
    46   1 H    1.016 --    25 C    0.968
    47   1 H    0.996 --    25 C    0.976
 ---------------------------------------------------------------------------

           -------------------------------------------------
          | TOTAL ENERGY              -79.482552572853 Eh   |
          | GRADIENT NORM               0.000542374003 Eh/α |
          | HOMO-LUMO GAP               1.278459347336 eV   |
           -------------------------------------------------

 * finished run on 2023/06/20 at 15:36:03.905
