   * xtb version 6.5.1 (579679a) compiled by 'ehlert@majestix' on 2022-07-11
          program call               : /lustre/hpc/kemi/ree/PhD/git/ReactivityQM/dep/xtb-6.5.1/bin/xtb --gfn 1 /lustre/hpc/kemi/ree/PhD/git/ReactivityQM/calculations/R03/reac02prodN14/conf19/R03_reac02prodN14_conf19_gfn1.xyz --opt --vfukui --chrg 1 --uhf 0 --alpb DMSO

   ID    Z sym.   atoms
    1    6 C      1, 3, 5, 6, 8, 9, 12-16, 18, 20, 23, 24
    2    8 O      2, 4, 7, 10, 19, 25
    3    7 N      11, 17, 21, 22, 26
    4    1 H      27-46

      * Solvation model:               ALPB
        Solvent                        DMSO
        Solvent mass                       7.8130E+01 g/mol
          :  Hamiltonian                  GFN1-xTB          :
 * total energy  :   -86.2053774 Eh     change       -0.3524292E-10 Eh
 * total energy  :   -86.2284991 Eh     change       -0.2312173E-01 Eh
 * total energy  :   -86.2425793 Eh     change       -0.1408025E-01 Eh
 * total energy  :   -86.2475264 Eh     change       -0.4947035E-02 Eh
 * total energy  :   -86.2510710 Eh     change       -0.3544598E-02 Eh
 * total energy  :   -86.2526933 Eh     change       -0.1622296E-02 Eh
 * total energy  :   -86.2535849 Eh     change       -0.8915830E-03 Eh
 * total energy  :   -86.2541738 Eh     change       -0.5889364E-03 Eh
 * total energy  :   -86.2545561 Eh     change       -0.3823162E-03 Eh
 * total energy  :   -86.2548605 Eh     change       -0.3044201E-03 Eh
 * total energy  :   -86.3049353 Eh     change       -0.2126517E-04 Eh
 * total energy  :   -86.3049487 Eh     change       -0.1339225E-04 Eh
 * total energy  :   -86.3049706 Eh     change       -0.2195763E-04 Eh
 * total energy  :   -86.3049816 Eh     change       -0.1099412E-04 Eh
 * total energy  :   -86.3049954 Eh     change       -0.1382577E-04 Eh
 * total energy  :   -86.3050044 Eh     change       -0.8975556E-05 Eh
 * total energy  :   -86.3050115 Eh     change       -0.7086233E-05 Eh
 * total energy  :   -86.3050164 Eh     change       -0.4861485E-05 Eh
 * total energy  :   -86.3050210 Eh     change       -0.4615091E-05 Eh
   *** GEOMETRY OPTIMIZATION CONVERGED AFTER 124 ITERATIONS ***

 final structure:
================
46
 xtb: 6.5.1 (579679a)
C           -4.99829928379758       -0.64214171376339        2.93433278660506
O           -3.94441595104984       -0.55836736642005        1.95689087970239
C           -4.15818866430997        0.10425835625350        0.84969634251577
O           -5.15932723402739        0.68561838708720        0.53075822325080
C           -2.92991984293479        0.08305974954031       -0.05301516123605
C           -3.10631714854896       -0.22191364792166       -1.49894196551153
O           -4.07154131407330       -1.19309467181550       -1.69965248974242
C           -1.79242515267390       -0.57190844549077       -2.15234515205744
C           -3.52440654191393        1.13636069729697       -2.15832971310127
O           -1.67154024556578       -1.20248376547456       -3.15569072625421
N           -0.63012182425250        0.03483297883947       -1.53902300769258
C            0.55465190904199       -0.07250394271960       -2.39585113093611
C           -0.65915319746603        0.49322421483757       -0.30246366215748
C            0.51967001236162        1.09847044654420        0.41949479698681
C            0.25708957901230        1.17840708981590        1.92973642210151
C            0.67938770787112        2.51911642873916       -0.16273656128779
N            1.70289661895140        0.27679204744102        0.18642903623376
C            2.94751027467177        0.65759785779632        0.61267648804042
O            3.24809379805070        1.76734582747585        0.99331160601292
C            3.88550334192655       -0.48072612498613        0.51965227098375
N            3.57500729560665       -1.69774124185148        0.18211991362844
N            4.71898314756749       -2.42718687868305        0.25314540283525
C            5.65816596876304       -1.61036437785655        0.63305266467957
C            7.08607092891377       -1.91942478600703        0.86232849404547
O            5.19049414167521       -0.36849653318733        0.81862139449996
N           -1.80791645346417        0.48275957279164        0.43314836586172
H           -5.96323637278391       -0.44135101898115        2.46625464284575
H           -4.96737973271804       -1.65033352765159        3.34374693568394
H           -4.80020433989084        0.09083851931721        3.71697138025183
H           -4.05656001923554       -1.52372039550299       -2.60900222267627
H           -3.59930486679575        0.97861859000310       -3.23208589739626
H           -4.49657956767483        1.41538294631779       -1.75579785751936
H           -2.79270070526286        1.91072736388942       -1.94521037489527
H            0.84763431830438       -1.12047207986494       -2.44513089689857
H            1.36220853224096        0.53092633990985       -2.00278236228694
H            0.26905125472609        0.26775622399318       -3.38992152226534
H           -0.60772513089733        1.80818292671719        2.12619279112574
H            0.07517349508963        0.18353086081857        2.33109849471182
H            1.13095403835634        1.60953265403762        2.41498340879777
H           -0.27634342257365        3.03786169284862       -0.11105849641100
H            1.00835431381565        2.47963826845369       -1.19779185152341
H            1.41283941285534        3.06646489603825        0.42567321452573
H            1.55339743673630       -0.71799347497038        0.09780408755375
H            7.28066738080482       -2.95898434170140        0.60995287443052
H            7.71040496933540       -1.26838529156395        0.25055772917686
H            7.33939813523635       -1.74418631039514        1.90819740476031

          :  Hamiltonian                  GFN1-xTB          :
         :: total energy             -86.305020975390 Eh    ::
         :: gradient norm              0.000952999111 Eh/a0 ::
         :: HOMO-LUMO gap              1.043550418024 eV    ::
         :: SCC energy               -87.135181770911 Eh    ::
         :: -> Gsolv                  -0.106159223853 Eh    ::
         :: repulsion energy           0.859783532013 Eh    ::

    * Orbital Energies and Occupations

         #    Occupation            Energy/Eh            Energy/eV
      -------------------------------------------------------------
         1        2.0000           -0.9009376             -24.5158
       ...           ...                  ...                  ...
        58        2.0000           -0.5362077             -14.5910
        59        2.0000           -0.5344650             -14.5435
        60        2.0000           -0.5304808             -14.4351
        61        2.0000           -0.5253123             -14.2945
        62        2.0000           -0.5236882             -14.2503
        63        2.0000           -0.5173939             -14.0790
        64        2.0000           -0.5063194             -13.7777
        65        2.0000           -0.4959709             -13.4961
        66        2.0000           -0.4938620             -13.4387
        67        2.0000           -0.4841761             -13.1751
        68        2.0000           -0.4783783             -13.0173
        69        2.0000           -0.4646300             -12.6432
        70        2.0000           -0.4630262             -12.5996 (HOMO)
        71                         -0.4246765             -11.5560 (LUMO)
        72                         -0.3522969              -9.5865
        73                         -0.3288664              -8.9489
        74                         -0.3110840              -8.4650
        75                         -0.2831639              -7.7053
        76                         -0.2664689              -7.2510
        77                         -0.2157398              -5.8706
        78                         -0.1698482              -4.6218
        79                         -0.1574672              -4.2849
        80                         -0.1554473              -4.2299
        81                         -0.1472072              -4.0057
       ...                                ...                  ...
       144                          0.7197985              19.5867
      -------------------------------------------------------------
                  HL-Gap            0.0383498 Eh            1.0436 eV

Wiberg/Mayer (AO) data.
largest (>0.10) Wiberg bond orders for each atom

     #   Z sym  total        # sym  WBO       # sym  WBO       # sym  WBO
 ---------------------------------------------------------------------------
     1   6 C    3.838 --    28 H    0.981    27 H    0.979    29 H    0.975
                             2 O    0.865
     2   8 O    2.246 --     3 C    1.180     1 C    0.865     4 O    0.157
     3   6 C    3.863 --     4 O    1.691     2 O    1.180     5 C    0.923
     4   8 O    1.986 --     3 C    1.691     2 O    0.157
     5   6 C    3.904 --    26 N    1.651     6 C    1.003     3 C    0.923
     6   6 C    3.940 --     5 C    1.003     7 O    1.001     8 C    0.952
                             9 C    0.857
     7   8 O    1.921 --     6 C    1.001    30 H    0.818
     8   6 C    3.853 --    10 O    1.799    11 N    0.957     6 C    0.952
     9   6 C    3.959 --    33 H    0.985    31 H    0.971    32 H    0.970
                             6 C    0.857
    10   8 O    2.054 --     8 C    1.799
    11   7 N    3.570 --    13 C    1.448     8 C    0.957    12 C    0.905
    12   6 C    3.880 --    35 H    0.973    36 H    0.966    34 H    0.960
                            11 N    0.905
    13   6 C    3.884 --    11 N    1.448    26 N    1.190    14 C    0.999
    14   6 C    3.930 --    13 C    0.999    15 C    0.981    16 C    0.939
                            17 N    0.938
    15   6 C    3.981 --    38 H    0.983    37 H    0.982    14 C    0.981
                            39 H    0.979
    16   6 C    3.973 --    40 H    0.983    41 H    0.980    42 H    0.965
                            14 C    0.939
    17   7 N    3.294 --    18 C    1.181    14 C    0.938    43 H    0.891
                            19 O    0.159
    18   6 C    3.907 --    19 O    1.635    17 N    1.181    20 C    1.000
    19   8 O    1.945 --    18 C    1.635    17 N    0.159
    20   6 C    3.881 --    21 N    1.597    25 O    1.067    18 C    1.000
    21   7 N    3.024 --    20 C    1.597    22 N    1.212
    22   7 N    2.982 --    23 C    1.591    21 N    1.212
    23   6 C    3.866 --    22 N    1.591    25 O    1.087    24 C    1.033
    24   6 C    3.984 --    23 C    1.033    44 H    0.982    45 H    0.963
                            46 H    0.960
    25   8 O    2.337 --    23 C    1.087    20 C    1.067
    26   7 N    3.051 --     5 C    1.651    13 C    1.190
    27   1 H    1.002 --     1 C    0.979
    28   1 H    1.005 --     1 C    0.981
    29   1 H    1.001 --     1 C    0.975
    30   1 H    0.835 --     7 O    0.818
    31   1 H    0.992 --     9 C    0.971
    32   1 H    1.003 --     9 C    0.970
    33   1 H    0.993 --     9 C    0.985
    34   1 H    0.992 --    12 C    0.960
    35   1 H    1.005 --    12 C    0.973
    36   1 H    0.992 --    12 C    0.966
    37   1 H    1.006 --    15 C    0.982
    38   1 H    1.000 --    15 C    0.983
    39   1 H    1.000 --    15 C    0.979
    40   1 H    0.997 --    16 C    0.983
    41   1 H    0.997 --    16 C    0.980
    42   1 H    1.005 --    16 C    0.965
    43   1 H    0.948 --    17 N    0.891
    44   1 H    0.997 --    24 C    0.982
    45   1 H    0.995 --    24 C    0.963
    46   1 H    0.995 --    24 C    0.960
 ---------------------------------------------------------------------------

           -------------------------------------------------
          | TOTAL ENERGY              -86.305020975390 Eh   |
          | GRADIENT NORM               0.000952999111 Eh/α |
          | HOMO-LUMO GAP               1.043550418024 eV   |
           -------------------------------------------------

 * finished run on 2023/06/20 at 15:50:39.492
