   * xtb version 6.5.1 (579679a) compiled by 'ehlert@majestix' on 2022-07-11
          program call               : /lustre/hpc/kemi/ree/PhD/git/ReactivityQM/dep/xtb-6.5.1/bin/xtb --gfn 1 /lustre/hpc/kemi/ree/PhD/git/ReactivityQM/calculations/R02oxygendeprot/reac01prodN16/conf20/R02oxygendeprot_reac01prodN16_conf20_gfn1.xyz --opt --vfukui --chrg 0 --uhf 0 --alpb DMSO

   ID    Z sym.   atoms
    1    6 C      1, 2, 5, 6, 9-12, 14, 15, 18-20, 22
    2    7 N      3, 4, 8, 13, 24
    3    8 O      7, 16, 17, 21, 23, 25
    4    1 H      26-42

      * Solvation model:               ALPB
        Solvent                        DMSO
        Solvent mass                       7.8130E+01 g/mol
          :  Hamiltonian                  GFN1-xTB          :
 * total energy  :   -82.9215107 Eh     change       -0.2060574E-10 Eh
 * total energy  :   -82.9385735 Eh     change       -0.1706280E-01 Eh
 * total energy  :   -82.9469259 Eh     change       -0.8352378E-02 Eh
 * total energy  :   -82.9489097 Eh     change       -0.1983816E-02 Eh
 * total energy  :   -82.9503040 Eh     change       -0.1394253E-02 Eh
 * total energy  :   -82.9510810 Eh     change       -0.7769874E-03 Eh
 * total energy  :   -82.9515757 Eh     change       -0.4947224E-03 Eh
 * total energy  :   -82.9519913 Eh     change       -0.4156375E-03 Eh
 * total energy  :   -82.9523209 Eh     change       -0.3295390E-03 Eh
 * total energy  :   -82.9525813 Eh     change       -0.2604283E-03 Eh
 * total energy  :   -82.9547137 Eh     change       -0.9556617E-05 Eh
 * total energy  :   -82.9547190 Eh     change       -0.5304926E-05 Eh
 * total energy  :   -82.9547243 Eh     change       -0.5308709E-05 Eh
 * total energy  :   -82.9547374 Eh     change       -0.1310218E-04 Eh
 * total energy  :   -82.9547418 Eh     change       -0.4401630E-05 Eh
 * total energy  :   -82.9547490 Eh     change       -0.7244269E-05 Eh
 * total energy  :   -82.9547542 Eh     change       -0.5224440E-05 Eh
 * total energy  :   -82.9547596 Eh     change       -0.5403980E-05 Eh
 * total energy  :   -82.9547628 Eh     change       -0.3197817E-05 Eh
   *** GEOMETRY OPTIMIZATION CONVERGED AFTER 46 ITERATIONS ***

 final structure:
================
42
 xtb: 6.5.1 (579679a)
C            7.12140254674607        0.52531527084771        1.82035642161504
C            5.85806044234657        0.00780139078574        1.25068341802189
N            5.43425492766159       -1.22038759310461        1.24593665074695
N            4.23254566609883       -1.21367709260564        0.60503665534113
C            3.99837472554891        0.01757233542548        0.26161194180570
C            2.80429056665759        0.51256820618521       -0.46827436857159
O            2.61490660536103        1.69472078800252       -0.71087329823553
N            1.98278306310076       -0.50300407895469       -0.79155354870027
C            0.77162001758498       -0.41103019150334       -1.62092150591377
C            0.41110423976777       -1.84148938522687       -2.02707651035766
C            1.03527819394623        0.43548608544686       -2.87284889866740
C           -0.37311260330965        0.18526679897157       -0.81548578850288
N           -1.45168804422123       -0.48707176495641       -0.67389524084971
C           -2.53475975550856        0.05362836315452        0.02034217927674
C           -3.59166216111870       -0.85392990375682        0.08499868647285
O           -3.78698046756016       -1.96474538010411       -0.30434722778480
O           -4.82485539464937       -0.26810737816419        0.93380672064272
C           -5.49299209916188       -1.32558845554855        1.64940560851161
C           -5.71510478860444        0.51290446476223        0.10663624883599
C           -2.49749995764285        1.37433288210844        0.57557415080365
O           -3.43344895476910        1.94386469292101        1.13900744971225
C           -1.17375995689452        2.10609144280523        0.42299460210491
O           -0.96277252307221        3.21147437953099        0.89205963360709
N           -0.21422332819133        1.44796889876341       -0.29455344791583
O            4.99352422215063        0.83591088498134        0.64675587011922
H            6.90808499192854        1.24410964618179        2.61148748347666
H            7.69578475927786        1.03508756105295        1.04720721394711
H            7.70384480740774       -0.29845493729708        2.22487230431903
H            2.27750940085220       -1.43309099097766       -0.53210151947760
H           -0.49034513970847       -1.83185183508684       -2.63743713080281
H            0.22323761399596       -2.44962235176290       -1.14331883033490
H            1.22508824267918       -2.28058516518175       -2.60053022513583
H            1.88885642997354        0.03143791963761       -3.41428447427976
H            1.23873374914509        1.47241973747653       -2.61556713161520
H            0.15734613189014        0.39983183098203       -3.51605606506581
H           -6.28889028662846       -0.87073962398766        2.23464113012219
H           -5.89942530666515       -2.05627768033324        0.94798475956669
H           -4.75361693639603       -1.78738518305603        2.30095711783129
H           -5.11156927980603        1.26785995246741       -0.39249582424573
H           -6.21549230430586       -0.13220045005128       -0.61696733755427
H           -6.43806641786003        0.98782008619985        0.76731511158490
H            0.67363636195641        1.92576482296871       -0.42568998450242

          :  Hamiltonian                  GFN1-xTB          :
         :: total energy             -82.954762846057 Eh    ::
         :: gradient norm              0.000571913880 Eh/a0 ::
         :: HOMO-LUMO gap              2.424333952736 eV    ::
         :: SCC energy               -83.745675280772 Eh    ::
         :: -> Gsolv                  -0.060246430968 Eh    ::
         :: repulsion energy           0.816683524337 Eh    ::

    * Orbital Energies and Occupations

         #    Occupation            Energy/Eh            Energy/eV
      -------------------------------------------------------------
         1        2.0000           -0.8813072             -23.9816
       ...           ...                  ...                  ...
        55        2.0000           -0.5070304             -13.7970
        56        2.0000           -0.5039224             -13.7124
        57        2.0000           -0.4988634             -13.5748
        58        2.0000           -0.4909433             -13.3592
        59        2.0000           -0.4838611             -13.1665
        60        2.0000           -0.4706078             -12.8059
        61        2.0000           -0.4671509             -12.7118
        62        2.0000           -0.4636966             -12.6178
        63        2.0000           -0.4539175             -12.3517
        64        2.0000           -0.4535287             -12.3411
        65        2.0000           -0.4412983             -12.0083
        66        2.0000           -0.4170493             -11.3485
        67        2.0000           -0.4096017             -11.1458 (HOMO)
        68                         -0.3205090              -8.7215 (LUMO)
        69                         -0.3127890              -8.5114
        70                         -0.2679831              -7.2922
        71                         -0.2578494              -7.0164
        72                         -0.2398724              -6.5273
        73                         -0.2009951              -5.4694
        74                         -0.1680587              -4.5731
        75                         -0.1528846              -4.1602
        76                         -0.1471494              -4.0041
        77                         -0.1435476              -3.9061
        78                         -0.1424519              -3.8763
       ...                                ...                  ...
       134                          0.7878995              21.4398
      -------------------------------------------------------------
                  HL-Gap            0.0890926 Eh            2.4243 eV

Wiberg/Mayer (AO) data.
largest (>0.10) Wiberg bond orders for each atom

     #   Z sym  total        # sym  WBO       # sym  WBO       # sym  WBO
 ---------------------------------------------------------------------------
     1   6 C    3.986 --     2 C    1.032    28 H    0.983    27 H    0.964
                            26 H    0.962
     2   6 C    3.870 --     3 N    1.603    25 O    1.084     1 C    1.032
     3   7 N    2.981 --     2 C    1.603     4 N    1.201
     4   7 N    3.017 --     5 C    1.608     3 N    1.201
     5   6 C    3.876 --     4 N    1.608    25 O    1.065     6 C    0.992
     6   6 C    3.917 --     7 O    1.570     8 N    1.268     5 C    0.992
     7   8 O    1.920 --     6 C    1.570     8 N    0.177
     8   7 N    3.350 --     6 C    1.268     9 C    0.915    29 H    0.894
                             7 O    0.177
     9   6 C    3.932 --    10 C    1.001    11 C    0.984    12 C    0.968
                             8 N    0.915
    10   6 C    3.992 --     9 C    1.001    32 H    0.985    31 H    0.983
                            30 H    0.982
    11   6 C    3.988 --    35 H    0.985     9 C    0.984    33 H    0.984
                            34 H    0.979
    12   6 C    3.935 --    13 N    1.659    24 N    1.115     9 C    0.968
    13   7 N    3.024 --    12 C    1.659    14 C    1.098
    14   6 C    3.918 --    15 C    1.302    20 C    1.193    13 N    1.098
                            16 O    0.111
    15   6 C    3.809 --    16 O    1.719    14 C    1.302    17 O    0.601
    16   8 O    2.044 --    15 C    1.719    14 C    0.111
    17   8 O    2.442 --    18 C    0.861    19 C    0.852    15 C    0.601
    18   6 C    3.833 --    38 H    0.979    37 H    0.979    36 H    0.979
                            17 O    0.861
    19   6 C    3.826 --    40 H    0.983    41 H    0.978    39 H    0.974
                            17 O    0.852
    20   6 C    3.922 --    21 O    1.594    14 C    1.193    22 C    0.944
    21   8 O    1.907 --    20 C    1.594
    22   6 C    3.889 --    23 O    1.624    24 N    1.173    20 C    0.944
    23   8 O    1.901 --    22 C    1.624    24 N    0.140
    24   7 N    3.443 --    22 C    1.173    12 C    1.115    42 H    0.860
                            23 O    0.140
    25   8 O    2.332 --     2 C    1.084     5 C    1.065
    26   1 H    0.996 --     1 C    0.962
    27   1 H    0.996 --     1 C    0.964
    28   1 H    0.998 --     1 C    0.983
    29   1 H    0.951 --     8 N    0.894
    30   1 H    1.009 --    10 C    0.982
    31   1 H    1.006 --    10 C    0.983
    32   1 H    0.999 --    10 C    0.985
    33   1 H    0.999 --    11 C    0.984
    34   1 H    1.009 --    11 C    0.979
    35   1 H    1.001 --    11 C    0.985
    36   1 H    1.000 --    18 C    0.979
    37   1 H    1.005 --    18 C    0.979
    38   1 H    1.001 --    18 C    0.979
    39   1 H    1.014 --    19 C    0.974
    40   1 H    0.998 --    19 C    0.983
    41   1 H    1.002 --    19 C    0.978
    42   1 H    0.938 --    24 N    0.860
 ---------------------------------------------------------------------------

           -------------------------------------------------
          | TOTAL ENERGY              -82.954762846057 Eh   |
          | GRADIENT NORM               0.000571913880 Eh/α |
          | HOMO-LUMO GAP               2.424333952736 eV   |
           -------------------------------------------------

 * finished run on 2023/06/21 at 17:36:19.825
