   * xtb version 6.5.1 (579679a) compiled by 'ehlert@majestix' on 2022-07-11
          program call               : /lustre/hpc/kemi/ree/PhD/git/ReactivityQM/dep/xtb-6.5.1/bin/xtb --gfn 1 /lustre/hpc/kemi/ree/PhD/git/ReactivityQM/calculations/R03/reac02prodE07/conf19/R03_reac02prodE07_conf19_gfn1.xyz --opt --vfukui --chrg -1 --uhf 0 --alpb DMSO

   ID    Z sym.   atoms
    1    6 C      1, 3, 5, 7-10, 12, 14, 15, 18, 19, 22, 23, 25
    2    8 O      2, 4, 13, 20, 24, 26
    3    7 N      6, 11, 16, 17, 21
    4    1 H      27-46

      * Solvation model:               ALPB
        Solvent                        DMSO
        Solvent mass                       7.8130E+01 g/mol
          :  Hamiltonian                  GFN1-xTB          :
 * total energy  :   -86.9931572 Eh     change       -0.2024194E-09 Eh
 * total energy  :   -87.0067891 Eh     change       -0.1363187E-01 Eh
 * total energy  :   -87.0127698 Eh     change       -0.5980653E-02 Eh
 * total energy  :   -87.0139890 Eh     change       -0.1219187E-02 Eh
 * total energy  :   -87.0147745 Eh     change       -0.7855942E-03 Eh
 * total energy  :   -87.0150788 Eh     change       -0.3042239E-03 Eh
 * total energy  :   -87.0152811 Eh     change       -0.2022852E-03 Eh
 * total energy  :   -87.0154453 Eh     change       -0.1642575E-03 Eh
 * total energy  :   -87.0155901 Eh     change       -0.1448236E-03 Eh
 * total energy  :   -87.0157216 Eh     change       -0.1314169E-03 Eh
 * total energy  :   -87.0205469 Eh     change       -0.1708731E-04 Eh
 * total energy  :   -87.0205679 Eh     change       -0.2106195E-04 Eh
 * total energy  :   -87.0205947 Eh     change       -0.2672452E-04 Eh
 * total energy  :   -87.0206154 Eh     change       -0.2074861E-04 Eh
 * total energy  :   -87.0206260 Eh     change       -0.1057601E-04 Eh
 * total energy  :   -87.0206372 Eh     change       -0.1125182E-04 Eh
 * total energy  :   -87.0206479 Eh     change       -0.1069441E-04 Eh
 * total energy  :   -87.0206546 Eh     change       -0.6656794E-05 Eh
 * total energy  :   -87.0206581 Eh     change       -0.3551994E-05 Eh
   *** GEOMETRY OPTIMIZATION CONVERGED AFTER 94 ITERATIONS ***

 final structure:
================
46
 xtb: 6.5.1 (579679a)
C            5.63514585741181        2.77653681144607       -1.88986661138402
O            4.91066139097083        2.13096765598034       -0.84161129728180
C            3.76986400670373        1.49344819997528       -1.22754834053145
O            3.41077997783766        1.48990019981607       -2.39319128555598
C            3.05846708156183        0.83891285823569       -0.12929044571725
N            1.90544135801994        0.21082899619762       -0.52365111124660
C            1.14945023405483       -0.42163518625064        0.31351468284000
C           -0.07599593461890       -1.10877739624338       -0.27486535059741
C            0.09141419217818       -2.63294693496099       -0.18696924635908
C           -0.21594171564516       -0.70082335873307       -1.75155692487791
N           -1.27637160355414       -0.67109728333053        0.47992293034217
C           -2.52280295514915       -1.17698806032714       -0.01684308330197
O           -2.81050279168372       -2.50740340394723        0.26814996276098
C           -3.73482404419556       -2.73097860756223        1.33071939170470
C           -3.49200093633097       -0.32605767547115       -0.49142047983055
N           -4.76934193398741       -0.60779494370076       -0.81407660863172
N           -5.31300146348602        0.57217636168276       -1.27007871188242
C           -4.39988318575169        1.47689432327390       -1.21378800380081
C           -4.51907580522584        2.90800950775182       -1.59395971802814
O           -3.20755122322238        1.00421136237497       -0.73597060939212
N            1.46423862245631       -0.49184818566146        1.65073617876200
C            0.66278796308660       -1.18765816285696        2.65754015695221
C            2.64057660620471        0.07658268623390        2.16301339391117
O            2.91091331415379       -0.05387827936823        3.36091343638780
C            3.44627790086303        0.78622116171725        1.20343512882560
O            4.57042778075405        1.35251670787840        1.71218345910179
H            6.50270933850666        3.24703500412697       -1.43249884764409
H            5.95591538622753        2.04410857944855       -2.63601624343146
H            5.00985137064701        3.53194242692216       -2.37375104616906
H           -0.01948308412647       -2.98438642334737        0.83628514361021
H            1.07842154725866       -2.91504191613605       -0.55271163187979
H           -0.66119242497623       -3.12756374657704       -0.79936362228249
H            0.65910991463499       -1.01960050759393       -2.31591398060730
H           -1.10377680999941       -1.17048714568070       -2.17409222626110
H           -0.31340900460371        0.38096602475198       -1.83542417983141
H           -1.31652290093261        0.34639463725133        0.44202972248993
H           -3.36684294485488       -2.30646163891812        2.27280155928156
H           -3.84242021285080       -3.81155043072850        1.44009348030578
H           -4.71242624851706       -2.28994994062362        1.09518654282073
H           -4.29263046387867        3.54895283339413       -0.74114283609481
H           -5.53342817866993        3.10819069815435       -1.93233561651449
H           -3.81952784759055        3.15354485892642       -2.39399506044867
H            0.64569723558768       -0.58018811859727        3.56363124533734
H           -0.35420771841378       -1.32944847425252        2.30325485264124
H            1.12156203580057       -2.15056543887516        2.89092770531356
H            5.07345131732817        1.82478736422013        1.02924714623168

          :  Hamiltonian                  GFN1-xTB          :
         :: total energy             -87.020658133780 Eh    ::
         :: gradient norm              0.000420241463 Eh/a0 ::
         :: HOMO-LUMO gap              0.096395508660 eV    ::
         :: SCC energy               -87.805094840400 Eh    ::
         :: -> Gsolv                  -0.106448834079 Eh    ::
         :: repulsion energy           0.813604718209 Eh    ::

    * Orbital Energies and Occupations

         #    Occupation            Energy/Eh            Energy/eV
      -------------------------------------------------------------
         1        2.0000           -0.8169436             -22.2302
       ...           ...                  ...                  ...
        59        2.0000           -0.4711028             -12.8194
        60        2.0000           -0.4566674             -12.4266
        61        2.0000           -0.4441111             -12.0849
        62        2.0000           -0.4413250             -12.0091
        63        2.0000           -0.4366942             -11.8831
        64        2.0000           -0.4286304             -11.6636
        65        2.0000           -0.4222959             -11.4913
        66        2.0000           -0.4167010             -11.3390
        67        2.0000           -0.4138986             -11.2628
        68        2.0000           -0.3985190             -10.8443
        69        2.0000           -0.3960061             -10.7759
        70        2.0000           -0.3896427             -10.6027
        71        1.7316           -0.3041610              -8.2766 (HOMO)
        72        0.2684           -0.3006185              -8.1802 (LUMO)
        73                         -0.2522222              -6.8633
        74                         -0.2128822              -5.7928
        75                         -0.2035357              -5.5385
        76                         -0.1613745              -4.3912
        77                         -0.1288921              -3.5073
        78                         -0.1267874              -3.4501
        79                         -0.1231619              -3.3514
        80                         -0.1217165              -3.3121
        81                         -0.1131880              -3.0800
        82                         -0.1052316              -2.8635
       ...                                ...                  ...
       144                          0.7149095              19.4537
      -------------------------------------------------------------
                  HL-Gap            0.0035425 Eh            0.0964 eV

Wiberg/Mayer (AO) data.
largest (>0.10) Wiberg bond orders for each atom

     #   Z sym  total        # sym  WBO       # sym  WBO       # sym  WBO
 ---------------------------------------------------------------------------
     1   6 C    3.880 --    27 H    0.987    28 H    0.981    29 H    0.980
                             2 O    0.904
     2   8 O    2.151 --     3 C    1.031     1 C    0.904     4 O    0.111
     3   6 C    3.772 --     4 O    1.602     5 C    1.071     2 O    1.031
     4   8 O    1.837 --     3 C    1.602     2 O    0.111
     5   6 C    3.877 --    25 C    1.386     6 N    1.176     3 C    1.071
     6   7 N    3.018 --     7 C    1.573     5 C    1.176
     7   6 C    3.905 --     6 N    1.573    21 N    1.153     8 C    0.980
     8   6 C    3.955 --    10 C    0.992     9 C    0.986     7 C    0.980
                            11 N    0.938
     9   6 C    3.993 --    31 H    0.987     8 C    0.986    30 H    0.981
                            32 H    0.981
    10   6 C    3.993 --     8 C    0.992    33 H    0.985    35 H    0.984
                            34 H    0.983
    11   7 N    3.055 --    12 C    0.990     8 C    0.938    36 H    0.935
    12   6 C    3.582 --    15 C    1.418    11 N    0.990    13 O    0.956
    13   8 O    2.013 --    12 C    0.956    14 C    0.928
    14   6 C    3.910 --    38 H    0.986    37 H    0.983    39 H    0.981
                            13 O    0.928
    15   6 C    3.861 --    12 C    1.418    16 N    1.317    20 O    0.971
    16   7 N    2.722 --    15 C    1.317    17 N    1.160
    17   7 N    2.981 --    18 C    1.662    16 N    1.160
    18   6 C    3.834 --    17 N    1.662    19 C    1.022    20 O    1.009
    19   6 C    3.994 --    18 C    1.022    41 H    0.986    40 H    0.973
                            42 H    0.972
    20   8 O    2.190 --    18 C    1.009    15 C    0.971
    21   7 N    3.423 --     7 C    1.153    23 C    1.077    22 C    0.938
                            24 O    0.118
    22   6 C    3.932 --    45 H    0.979    43 H    0.978    44 H    0.971
                            21 N    0.938
    23   6 C    3.871 --    24 O    1.520    25 C    1.141    21 N    1.077
    24   8 O    1.812 --    23 C    1.520    21 N    0.118
    25   6 C    3.795 --     5 C    1.386    23 C    1.141    26 O    1.059
    26   8 O    2.018 --    25 C    1.059    46 H    0.816
    27   1 H    1.012 --     1 C    0.987
    28   1 H    1.010 --     1 C    0.981
    29   1 H    1.010 --     1 C    0.980
    30   1 H    1.011 --     9 C    0.981
    31   1 H    1.005 --     9 C    0.987
    32   1 H    1.013 --     9 C    0.981
    33   1 H    1.015 --    10 C    0.985
    34   1 H    1.012 --    10 C    0.983
    35   1 H    1.013 --    10 C    0.984
    36   1 H    0.971 --    11 N    0.935
    37   1 H    1.014 --    14 C    0.983
    38   1 H    1.018 --    14 C    0.986
    39   1 H    1.031 --    14 C    0.981
    40   1 H    1.002 --    19 C    0.973
    41   1 H    1.005 --    19 C    0.986
    42   1 H    1.002 --    19 C    0.972
    43   1 H    1.012 --    22 C    0.978
    44   1 H    1.030 --    22 C    0.971
    45   1 H    1.005 --    22 C    0.979
    46   1 H    0.869 --    26 O    0.816
 ---------------------------------------------------------------------------

           -------------------------------------------------
          | TOTAL ENERGY              -87.020658133780 Eh   |
          | GRADIENT NORM               0.000420241463 Eh/α |
          | HOMO-LUMO GAP               0.096395508660 eV   |
           -------------------------------------------------

 * finished run on 2023/06/20 at 15:23:02.290
