   * xtb version 6.5.1 (579679a) compiled by 'ehlert@majestix' on 2022-07-11
          program call               : /lustre/hpc/kemi/ree/PhD/git/ReactivityQM/dep/xtb-6.5.1/bin/xtb --gfn 1 /lustre/hpc/kemi/ree/PhD/git/ReactivityQM/calculations/R02oxygendeprot/reac01prodN16/conf04/R02oxygendeprot_reac01prodN16_conf04_gfn1.xyz --opt --vfukui --chrg 0 --uhf 0 --alpb DMSO

   ID    Z sym.   atoms
    1    6 C      1, 2, 5, 6, 9-12, 14, 15, 18-20, 22
    2    7 N      3, 4, 8, 13, 24
    3    8 O      7, 16, 17, 21, 23, 25
    4    1 H      26-42

      * Solvation model:               ALPB
        Solvent                        DMSO
        Solvent mass                       7.8130E+01 g/mol
          :  Hamiltonian                  GFN1-xTB          :
 * total energy  :   -82.9208352 Eh     change       -0.1982414E-10 Eh
 * total energy  :   -82.9376559 Eh     change       -0.1682069E-01 Eh
 * total energy  :   -82.9457361 Eh     change       -0.8080185E-02 Eh
 * total energy  :   -82.9476466 Eh     change       -0.1910461E-02 Eh
 * total energy  :   -82.9491009 Eh     change       -0.1454377E-02 Eh
 * total energy  :   -82.9500136 Eh     change       -0.9126250E-03 Eh
 * total energy  :   -82.9506728 Eh     change       -0.6591939E-03 Eh
 * total energy  :   -82.9512270 Eh     change       -0.5542181E-03 Eh
 * total energy  :   -82.9516687 Eh     change       -0.4417346E-03 Eh
 * total energy  :   -82.9520413 Eh     change       -0.3725480E-03 Eh
 * total energy  :   -82.9545647 Eh     change       -0.3347587E-04 Eh
 * total energy  :   -82.9545950 Eh     change       -0.3028678E-04 Eh
 * total energy  :   -82.9546162 Eh     change       -0.2125145E-04 Eh
 * total energy  :   -82.9546301 Eh     change       -0.1382427E-04 Eh
 * total energy  :   -82.9546362 Eh     change       -0.6101439E-05 Eh
 * total energy  :   -82.9546409 Eh     change       -0.4714808E-05 Eh
 * total energy  :   -82.9546384 Eh     change        0.2520745E-05 Eh
 * total energy  :   -82.9546455 Eh     change       -0.7091736E-05 Eh
 * total energy  :   -82.9546487 Eh     change       -0.3247322E-05 Eh
   *** GEOMETRY OPTIMIZATION CONVERGED AFTER 34 ITERATIONS ***

 final structure:
================
42
 xtb: 6.5.1 (579679a)
C            6.50218967226197        2.09497727913212       -2.08654231633813
C            5.41919426763984        1.62275613312207       -1.19613323876282
N            5.08137172853108        2.09902039905189       -0.03553717371678
N            4.02973989857162        1.35050927739530        0.39952296848188
C            3.79361919043195        0.46521542473516       -0.52186264072539
C            2.72790210087513       -0.56866989555520       -0.49292205903008
O            2.54573849704408       -1.36231043504841       -1.40274210468521
N            2.01556837200711       -0.48964502675256        0.64588660700143
C            0.89521188377223       -1.36294536152593        1.02948697541390
C            0.58233691114102       -1.05575497668978        2.49549201025706
C            1.28630787143369       -2.83760345426942        0.88119647718918
C           -0.32044126271554       -1.02305049675420        0.17736929706594
N           -1.33212542763978       -0.46676531734633        0.72786525895261
C           -2.45806059879912       -0.14176114265757       -0.02950023219501
C           -3.45956372321162        0.40881715753376        0.76985365303907
O           -3.58196007104304        0.66511688469414        1.92882920030813
O           -4.78630702846022        0.72699807606561       -0.07913290922707
C           -5.96327037891978        0.50395948470833        0.72200108438775
C           -4.73507366964681        2.04542090508819       -0.66673437397203
C           -2.51626867410644       -0.37273279480989       -1.44303889396633
O           -3.44024264060878       -0.04168020672877       -2.18751092897587
C           -1.30351108339405       -1.06964216539573       -2.03729421945075
O           -1.21378540858602       -1.37042156515605       -3.21525637888710
N           -0.29089536123749       -1.34168963837714       -1.15984221173649
O            4.64246527260410        0.59122905655203       -1.55743498186595
H            7.13116245625683        1.25708849229024       -2.38515937621312
H            7.10163986965564        2.84072634740747       -1.57010505107013
H            6.07584332244980        2.53579732641073       -2.98830810883112
H            2.27793126693930        0.22648205929736        1.30718484583054
H            1.45374115360379       -1.26582292501850        3.11269282773776
H            0.30177121836743       -0.00985837158814        2.61133910367650
H           -0.24829660087554       -1.67546572313135        2.82933503307644
H            0.45563079065846       -3.46139352020956        1.20774969719985
H            2.15363552959903       -3.04691304058832        1.50502314826483
H            1.52901195657618       -3.08712830945573       -0.14899024635161
H           -5.93762826455632       -0.53527095395353        1.04362958835514
H           -5.96543964529197        1.17460318330435        1.58291798587332
H           -6.82818514039771        0.68808275868694        0.08877706471899
H           -3.81206000338221        2.10638013265654       -1.23981345343993
H           -4.76384100741216        2.80550977065304        0.11600003452500
H           -5.59428267738058        2.13870385508326       -1.32920592207891
H            0.54922543723695       -1.76086868285954       -1.54600903982295

          :  Hamiltonian                  GFN1-xTB          :
         :: total energy             -82.954648700979 Eh    ::
         :: gradient norm              0.000671661273 Eh/a0 ::
         :: HOMO-LUMO gap              2.423182562011 eV    ::
         :: SCC energy               -83.745525945980 Eh    ::
         :: -> Gsolv                  -0.060419177429 Eh    ::
         :: repulsion energy           0.816679147781 Eh    ::

    * Orbital Energies and Occupations

         #    Occupation            Energy/Eh            Energy/eV
      -------------------------------------------------------------
         1        2.0000           -0.8815671             -23.9887
       ...           ...                  ...                  ...
        55        2.0000           -0.5068069             -13.7909
        56        2.0000           -0.5041239             -13.7179
        57        2.0000           -0.4992323             -13.5848
        58        2.0000           -0.4910664             -13.3626
        59        2.0000           -0.4836609             -13.1611
        60        2.0000           -0.4711394             -12.8204
        61        2.0000           -0.4665083             -12.6943
        62        2.0000           -0.4635045             -12.6126
        63        2.0000           -0.4535830             -12.3426
        64        2.0000           -0.4534342             -12.3386
        65        2.0000           -0.4413598             -12.0100
        66        2.0000           -0.4172427             -11.3538
        67        2.0000           -0.4098886             -11.1536 (HOMO)
        68                         -0.3208383              -8.7305 (LUMO)
        69                         -0.3121967              -8.4953
        70                         -0.2684334              -7.3044
        71                         -0.2576848              -7.0120
        72                         -0.2400755              -6.5328
        73                         -0.2001910              -5.4475
        74                         -0.1679650              -4.5706
        75                         -0.1531507              -4.1674
        76                         -0.1474675              -4.0128
        77                         -0.1434267              -3.9028
        78                         -0.1424058              -3.8751
       ...                                ...                  ...
       134                          0.7875413              21.4301
      -------------------------------------------------------------
                  HL-Gap            0.0890503 Eh            2.4232 eV

Wiberg/Mayer (AO) data.
largest (>0.10) Wiberg bond orders for each atom

     #   Z sym  total        # sym  WBO       # sym  WBO       # sym  WBO
 ---------------------------------------------------------------------------
     1   6 C    3.986 --     2 C    1.031    27 H    0.982    26 H    0.967
                            28 H    0.960
     2   6 C    3.870 --     3 N    1.603    25 O    1.084     1 C    1.031
     3   7 N    2.980 --     2 C    1.603     4 N    1.201
     4   7 N    3.017 --     5 C    1.609     3 N    1.201
     5   6 C    3.876 --     4 N    1.609    25 O    1.065     6 C    0.990
     6   6 C    3.918 --     7 O    1.574     8 N    1.268     5 C    0.990
     7   8 O    1.919 --     6 C    1.574     8 N    0.178
     8   7 N    3.351 --     6 C    1.268     9 C    0.913    29 H    0.893
                             7 O    0.178
     9   6 C    3.932 --    10 C    1.002    11 C    0.989    12 C    0.966
                             8 N    0.913
    10   6 C    3.992 --     9 C    1.002    30 H    0.985    32 H    0.983
                            31 H    0.982
    11   6 C    3.988 --     9 C    0.989    33 H    0.985    34 H    0.984
                            35 H    0.977
    12   6 C    3.935 --    13 N    1.659    24 N    1.115     9 C    0.966
    13   7 N    3.024 --    12 C    1.659    14 C    1.098
    14   6 C    3.919 --    15 C    1.301    20 C    1.192    13 N    1.098
                            16 O    0.111
    15   6 C    3.809 --    16 O    1.719    14 C    1.301    17 O    0.602
    16   8 O    2.043 --    15 C    1.719    14 C    0.111
    17   8 O    2.443 --    18 C    0.860    19 C    0.853    15 C    0.602
    18   6 C    3.832 --    36 H    0.979    37 H    0.979    38 H    0.979
                            17 O    0.860
    19   6 C    3.827 --    40 H    0.983    41 H    0.978    39 H    0.974
                            17 O    0.853
    20   6 C    3.922 --    21 O    1.595    14 C    1.192    22 C    0.945
    21   8 O    1.907 --    20 C    1.595
    22   6 C    3.889 --    23 O    1.625    24 N    1.171    20 C    0.945
    23   8 O    1.902 --    22 C    1.625    24 N    0.140
    24   7 N    3.444 --    22 C    1.171    12 C    1.115    42 H    0.864
                            23 O    0.140
    25   8 O    2.332 --     2 C    1.084     5 C    1.065
    26   1 H    0.996 --     1 C    0.967
    27   1 H    0.998 --     1 C    0.982
    28   1 H    0.997 --     1 C    0.960
    29   1 H    0.950 --     8 N    0.893
    30   1 H    0.999 --    10 C    0.985
    31   1 H    1.009 --    10 C    0.982
    32   1 H    1.007 --    10 C    0.983
    33   1 H    1.001 --    11 C    0.985
    34   1 H    1.000 --    11 C    0.984
    35   1 H    1.008 --    11 C    0.977
    36   1 H    1.001 --    18 C    0.979
    37   1 H    1.005 --    18 C    0.979
    38   1 H    1.000 --    18 C    0.979
    39   1 H    1.014 --    19 C    0.974
    40   1 H    0.998 --    19 C    0.983
    41   1 H    1.001 --    19 C    0.978
    42   1 H    0.942 --    24 N    0.864
 ---------------------------------------------------------------------------

           -------------------------------------------------
          | TOTAL ENERGY              -82.954648700979 Eh   |
          | GRADIENT NORM               0.000671661273 Eh/α |
          | HOMO-LUMO GAP               2.423182562011 eV   |
           -------------------------------------------------

 * finished run on 2023/06/21 at 17:36:22.830
