   * xtb version 6.5.1 (579679a) compiled by 'ehlert@majestix' on 2022-07-11
          program call               : /lustre/hpc/kemi/ree/PhD/git/ReactivityQM/dep/xtb-6.5.1/bin/xtb --gfn 1 /lustre/hpc/kemi/ree/PhD/git/ReactivityQM/calculations/R02deprot/reac01prodN18/conf01/R02deprot_reac01prodN18_conf01_gfn1.xyz --opt --vfukui --chrg 0 --uhf 0 --alpb DMSO

   ID    Z sym.   atoms
    1    6 C      1, 3, 5, 7-10, 12, 13, 15, 18, 19, 22, 24
    2    8 O      2, 4, 14, 20, 23, 25
    3    7 N      6, 11, 16, 17, 21
    4    1 H      26-42

      * Solvation model:               ALPB
        Solvent                        DMSO
        Solvent mass                       7.8130E+01 g/mol
          :  Hamiltonian                  GFN1-xTB          :
 * total energy  :   -82.9322687 Eh     change       -0.3195311E-09 Eh
 * total energy  :   -82.9456564 Eh     change       -0.1338769E-01 Eh
 * total energy  :   -82.9507087 Eh     change       -0.5052293E-02 Eh
 * total energy  :   -82.9518747 Eh     change       -0.1165971E-02 Eh
 * total energy  :   -82.9525811 Eh     change       -0.7064390E-03 Eh
 * total energy  :   -82.9529720 Eh     change       -0.3908712E-03 Eh
 * total energy  :   -82.9532672 Eh     change       -0.2951549E-03 Eh
 * total energy  :   -82.9535260 Eh     change       -0.2588611E-03 Eh
 * total energy  :   -82.9537570 Eh     change       -0.2309982E-03 Eh
 * total energy  :   -82.9539806 Eh     change       -0.2235932E-03 Eh
 * total energy  :   -82.9563517 Eh     change       -0.3742539E-04 Eh
 * total energy  :   -82.9563754 Eh     change       -0.2376739E-04 Eh
 * total energy  :   -82.9563921 Eh     change       -0.1662696E-04 Eh
 * total energy  :   -82.9564075 Eh     change       -0.1543157E-04 Eh
 * total energy  :   -82.9564205 Eh     change       -0.1298804E-04 Eh
 * total energy  :   -82.9564288 Eh     change       -0.8294184E-05 Eh
 * total energy  :   -82.9564355 Eh     change       -0.6702788E-05 Eh
 * total energy  :   -82.9564413 Eh     change       -0.5783974E-05 Eh
 * total energy  :   -82.9564457 Eh     change       -0.4447234E-05 Eh
   *** GEOMETRY OPTIMIZATION CONVERGED AFTER 42 ITERATIONS ***

 final structure:
================
42
 xtb: 6.5.1 (579679a)
C           -4.48527396077174        3.06658422869849        0.24152037226512
O           -4.12157046349041        1.72804573534986       -0.09606525043267
C           -2.84441266174589        1.38604568018413        0.11011929058900
O           -2.02274182945694        2.16524185369045        0.55296174239451
C           -2.53800137427108       -0.01750944848997       -0.24547783283127
N           -1.21709990128761       -0.35867552953785       -0.07252732624737
C           -0.86489931600575       -1.59681811829966       -0.34574731204961
C            0.62394972285066       -1.86499848944921       -0.17562810890569
C            1.32396370181224       -1.54980230032446       -1.50006510115073
C            0.92996053587371       -3.27964194035729        0.28661817607873
N            1.04252543465242       -0.81857786167652        0.84873190660782
C            0.70406603817941       -1.15943958384947        2.25062766173310
C            2.47493514704957       -0.45036254682003        0.76608568194742
O            3.31248513456510       -1.19434192237985        1.17798354841787
C            2.64058203721639        0.86083088563735        0.17626561292680
N            1.67979762661026        1.63560417272166       -0.25789334611463
N            2.25743168657633        2.75033330775116       -0.72816614170673
C            3.54900364927709        2.60955889518026       -0.56010364684422
C            4.61269514397198        3.56680093292832       -0.91684791340848
O            3.84464455770643        1.43881539301598        0.00417056917666
N           -1.61496782697971       -2.58973222254997       -0.78950525045693
C           -2.93696574496047       -2.33452319785759       -0.99232571760761
O           -3.75498890038914       -3.17167874144989       -1.40105811934806
C           -3.40791758313183       -0.97087463509783       -0.69949636111773
O           -4.72340889241510       -0.77639922830517       -0.90745343083617
H           -3.89621586485118        3.77876950799346       -0.34187362311399
H           -5.54294346191146        3.17354382113790        0.00738112641155
H           -4.31509943245429        3.24755928048453        1.30560380986735
H            1.14706368848783       -0.51260861197073       -1.78206063326934
H            2.39544881204270       -1.72948048312834       -1.43486048129311
H            0.90626052464890       -2.19740596836872       -2.27007800454122
H            0.64928812025652       -3.95997625848867       -0.51713938798134
H            0.34808631252382       -3.54129800012373        1.16791127026180
H            1.99060516526001       -3.39555921019041        0.50127659033416
H            0.40395949861646       -0.01676306318137        0.57404647533834
H            1.35188755915276       -1.96002969238836        2.59540999885017
H           -0.34136071623216       -1.45673778576641        2.28002950358433
H            0.85922352636534       -0.26737894763054        2.85312763932685
H            5.30052505642646        3.10654731823224       -1.62619206181828
H            4.17478977077860        4.45977720416305       -1.35516504812036
H            5.18229369394059        3.83322588627221       -0.02636664160447
H           -5.07760221449747       -1.63667031576467       -1.22093423530920

          :  Hamiltonian                  GFN1-xTB          :
         :: total energy             -82.956445705033 Eh    ::
         :: gradient norm              0.000947355616 Eh/a0 ::
         :: HOMO-LUMO gap              0.506942372710 eV    ::
         :: SCC energy               -83.722819703057 Eh    ::
         :: -> Gsolv                  -0.065364224720 Eh    ::
         :: repulsion energy           0.794389267310 Eh    ::

    * Orbital Energies and Occupations

         #    Occupation            Energy/Eh            Energy/eV
      -------------------------------------------------------------
         1        2.0000           -0.8949313             -24.3523
       ...           ...                  ...                  ...
        55        2.0000           -0.5094402             -13.8626
        56        2.0000           -0.5038612             -13.7108
        57        2.0000           -0.4965843             -13.5127
        58        2.0000           -0.4928983             -13.4124
        59        2.0000           -0.4875222             -13.2662
        60        2.0000           -0.4852197             -13.2035
        61        2.0000           -0.4823573             -13.1256
        62        2.0000           -0.4659513             -12.6792
        63        2.0000           -0.4593602             -12.4998
        64        2.0000           -0.4412479             -12.0070
        65        2.0000           -0.4292366             -11.6801
        66        2.0000           -0.3959967             -10.7756
        67        1.9999           -0.3914559             -10.6521 (HOMO)
        68        0.0001           -0.3728261             -10.1451 (LUMO)
        69                         -0.2920000              -7.9457
        70                         -0.2844764              -7.7410
        71                         -0.2542575              -6.9187
        72                         -0.2482169              -6.7543
        73                         -0.2064699              -5.6183
        74                         -0.1592069              -4.3322
        75                         -0.1536826              -4.1819
        76                         -0.1357269              -3.6933
        77                         -0.1336635              -3.6372
        78                         -0.1304205              -3.5489
       ...                                ...                  ...
       134                          0.7336599              19.9639
      -------------------------------------------------------------
                  HL-Gap            0.0186298 Eh            0.5069 eV

Wiberg/Mayer (AO) data.
largest (>0.10) Wiberg bond orders for each atom

     #   Z sym  total        # sym  WBO       # sym  WBO       # sym  WBO
 ---------------------------------------------------------------------------
     1   6 C    3.881 --    27 H    0.986    26 H    0.980    28 H    0.980
                             2 O    0.906
     2   8 O    2.192 --     3 C    1.097     1 C    0.906     4 O    0.126
     3   6 C    3.843 --     4 O    1.632     2 O    1.097     5 C    1.023
     4   8 O    1.896 --     3 C    1.632     2 O    0.126
     5   6 C    3.956 --    24 C    1.491     6 N    1.174     3 C    1.023
     6   7 N    3.077 --     7 C    1.444     5 C    1.174    35 H    0.116
     7   6 C    3.961 --     6 N    1.444    21 N    1.394     8 C    0.962
     8   6 C    3.877 --    10 C    1.006     9 C    0.991     7 C    0.962
                            11 N    0.833
     9   6 C    3.989 --     8 C    0.991    29 H    0.983    30 H    0.981
                            31 H    0.978
    10   6 C    3.989 --     8 C    1.006    34 H    0.982    33 H    0.981
                            32 H    0.975
    11   7 N    3.590 --    12 C    0.907    13 C    0.893     8 C    0.833
                            35 H    0.806
    12   6 C    3.898 --    38 H    0.983    36 H    0.982    37 H    0.980
                            11 N    0.907
    13   6 C    3.883 --    14 O    1.777    15 C    1.071    11 N    0.893
    14   8 O    2.041 --    13 C    1.777
    15   6 C    3.888 --    16 N    1.531    13 C    1.071    20 O    1.055
    16   7 N    3.041 --    15 C    1.531    17 N    1.273
    17   7 N    2.990 --    18 C    1.528    16 N    1.273
    18   6 C    3.855 --    17 N    1.528    20 O    1.110    19 C    1.039
    19   6 C    3.979 --    18 C    1.039    40 H    0.980    41 H    0.955
                            39 H    0.955
    20   8 O    2.350 --    18 C    1.110    15 C    1.055
    21   7 N    2.982 --     7 C    1.394    22 C    1.223    23 O    0.119
    22   6 C    3.925 --    23 O    1.504    21 N    1.223    24 C    1.060
    23   8 O    1.838 --    22 C    1.504    21 N    0.119
    24   6 C    3.908 --     5 C    1.491    25 O    1.087    22 C    1.060
    25   8 O    2.062 --    24 C    1.087    42 H    0.809
    26   1 H    1.010 --     1 C    0.980
    27   1 H    1.012 --     1 C    0.986
    28   1 H    1.009 --     1 C    0.980
    29   1 H    1.006 --     9 C    0.983
    30   1 H    0.998 --     9 C    0.981
    31   1 H    1.001 --     9 C    0.978
    32   1 H    1.009 --    10 C    0.975
    33   1 H    1.002 --    10 C    0.981
    34   1 H    1.002 --    10 C    0.982
    35   1 H    0.980 --    11 N    0.806     6 N    0.116
    36   1 H    0.999 --    12 C    0.982
    37   1 H    0.999 --    12 C    0.980
    38   1 H    0.992 --    12 C    0.983
    39   1 H    0.992 --    19 C    0.955
    40   1 H    0.995 --    19 C    0.980
    41   1 H    0.992 --    19 C    0.955
    42   1 H    0.868 --    25 O    0.809
 ---------------------------------------------------------------------------

           -------------------------------------------------
          | TOTAL ENERGY              -82.956445705033 Eh   |
          | GRADIENT NORM               0.000947355616 Eh/α |
          | HOMO-LUMO GAP               0.506942372710 eV   |
           -------------------------------------------------

 * finished run on 2023/06/20 at 18:29:36.023
