   * xtb version 6.5.1 (579679a) compiled by 'ehlert@majestix' on 2022-07-11
          program call               : /lustre/hpc/kemi/ree/PhD/git/ReactivityQM/dep/xtb-6.5.1/bin/xtb --gfn 1 /lustre/hpc/kemi/ree/PhD/git/ReactivityQM/calculations/RaltegravirCLI/reac02prodN14/conf05/RaltegravirCLI_reac02prodN14_conf05_gfn1.xyz --opt --vfukui --chrg 1 --uhf 0 --alpb DMSO

   ID    Z sym.   atoms
    1    6 C      1-3, 5, 7, 8, 11-15, 17-19, 21, 24, 25
    2    7 N      4, 6, 10, 23
    3    8 O      9, 20, 22
    4    9 F      16
    5    1 H      26-47

      * Solvation model:               ALPB
        Solvent                        DMSO
        Solvent mass                       7.8130E+01 g/mol
          :  Hamiltonian                  GFN1-xTB          :
 * total energy  :   -79.4628191 Eh     change       -0.8130030E-10 Eh
 * total energy  :   -79.4753683 Eh     change       -0.1254919E-01 Eh
 * total energy  :   -79.4798461 Eh     change       -0.4477820E-02 Eh
 * total energy  :   -79.4807748 Eh     change       -0.9287318E-03 Eh
 * total energy  :   -79.4812385 Eh     change       -0.4636365E-03 Eh
 * total energy  :   -79.4814449 Eh     change       -0.2063898E-03 Eh
 * total energy  :   -79.4816107 Eh     change       -0.1657819E-03 Eh
 * total energy  :   -79.4817398 Eh     change       -0.1291047E-03 Eh
 * total energy  :   -79.4818255 Eh     change       -0.8576007E-04 Eh
 * total energy  :   -79.4818936 Eh     change       -0.6807967E-04 Eh
 * total energy  :   -79.4824254 Eh     change       -0.1642017E-04 Eh
 * total energy  :   -79.4824394 Eh     change       -0.1404378E-04 Eh
 * total energy  :   -79.4824554 Eh     change       -0.1599380E-04 Eh
 * total energy  :   -79.4824725 Eh     change       -0.1704586E-04 Eh
 * total energy  :   -79.4824869 Eh     change       -0.1440885E-04 Eh
 * total energy  :   -79.4824950 Eh     change       -0.8125745E-05 Eh
 * total energy  :   -79.4825004 Eh     change       -0.5417289E-05 Eh
 * total energy  :   -79.4825059 Eh     change       -0.5534197E-05 Eh
 * total energy  :   -79.4825082 Eh     change       -0.2279973E-05 Eh
   *** GEOMETRY OPTIMIZATION CONVERGED AFTER 38 ITERATIONS ***

 final structure:
================
47
 xtb: 6.5.1 (579679a)
C           -2.64165388075994        2.10379915084854       -1.81266777459964
C           -3.10847347852655        1.22128428312267       -0.64144202918817
C           -3.00877617488059        2.01070103737076        0.67547717760475
N           -4.48758293207130        0.80695799232006       -0.84662497617657
C           -2.14856144614959        0.04900111949909       -0.53084493662449
N           -0.91460410374220        0.29173886337436       -0.64226019666292
C            0.11034598356202       -0.62381028789206       -0.51892720017572
C            1.46386325187275       -0.01273203123941       -0.79461399204118
O            1.55059949545990        1.15170510999989       -1.15255092425045
N            2.51939353869439       -0.82482316884345       -0.64178520378526
C            3.87533430788388       -0.33878663998053       -0.90119788283485
C            4.48022709425432        0.25356674755990        0.35374935016587
C            5.32132142282942       -0.51088169775587        1.15839579396162
C            5.87069209159014        0.02580893420439        2.31510747663845
C            5.55792468642156        1.33229271777307        2.64403696256009
F            6.08570454934021        1.85959798455772        3.75944177420216
C            4.72198520647333        2.11751284689811        1.86969692232562
C            4.18246100062246        1.56580627274212        0.71701404293963
C           -0.18299002321873       -1.90771013859350       -0.17553503073769
O            0.74249750533363       -2.85529371767269        0.02029721971276
C           -1.55274884191163       -2.34367587033722        0.01379375792555
O           -1.87882443837383       -3.45132144596142        0.33350351155758
N           -2.64123051855123       -1.34049275071647       -0.27003396452759
C           -3.57980695043837       -1.38501061585702        0.89209166415872
C           -3.31172375970099       -1.85855766984000       -1.50616020766839
H           -2.67241304818827        1.53608669720619       -2.74110070070694
H           -3.30648638894304        2.96103932947667       -1.89767613793484
H           -1.62315966746485        2.45101584989345       -1.64178854478568
H           -1.97106629624746        2.27414436603480        0.87658427044369
H           -3.39280834302869        1.41926763388177        1.50433111232417
H           -3.59902871779679        2.92167681886739        0.58986256706660
H           -4.71631979888134        0.82782193976238       -1.83141076065932
H           -5.11423886281367        1.44613254022860       -0.37743176202500
H            2.41692397068950       -1.76501351660018       -0.30276705473274
H            3.81423455917093        0.41752581272751       -1.68963927513875
H            4.46605888951808       -1.18631950659000       -1.25416256551655
H            5.55157153875657       -1.53284532596279        0.88263919171663
H            6.52738244634472       -0.55672756759552        2.94792917869391
H            4.50112888348617        3.13570188309837        2.16299945449655
H            3.52246660964213        2.15890984794021        0.09424621472840
H            0.33963393149635       -3.71071416152197        0.24773922920568
H           -3.86665951110050       -2.42275092549779        1.04508519210759
H           -4.44691868051034       -0.77882499973048        0.64731970213833
H           -3.06172490634581       -0.99744475619286        1.76535303868829
H           -2.62627189820243       -1.74657635761359       -2.34249272324361
H           -3.55113133741240       -2.90627874698538       -1.33926914330077
H           -4.21654595818307       -1.28250088040839       -1.66431581804663

          :  Hamiltonian                  GFN1-xTB          :
         :: total energy             -79.482508219381 Eh    ::
         :: gradient norm              0.000468480169 Eh/a0 ::
         :: HOMO-LUMO gap              1.279966850584 eV    ::
         :: SCC energy               -80.381386332753 Eh    ::
         :: -> Gsolv                  -0.113801991306 Eh    ::
         :: repulsion energy           0.930231116448 Eh    ::

    * Orbital Energies and Occupations

         #    Occupation            Energy/Eh            Energy/eV
      -------------------------------------------------------------
         1        2.0000           -0.8927267             -24.2923
       ...           ...                  ...                  ...
        55        2.0000           -0.5171636             -14.0727
        56        2.0000           -0.5152770             -14.0214
        57        2.0000           -0.5120672             -13.9341
        58        2.0000           -0.5095931             -13.8667
        59        2.0000           -0.5071407             -13.8000
        60        2.0000           -0.4871750             -13.2567
        61        2.0000           -0.4783955             -13.0178
        62        2.0000           -0.4753753             -12.9356
        63        2.0000           -0.4706574             -12.8072
        64        2.0000           -0.4562226             -12.4144
        65        2.0000           -0.4544407             -12.3660
        66        2.0000           -0.4426125             -12.0441
        67        2.0000           -0.4377613             -11.9121 (HOMO)
        68                         -0.3907234             -10.6321 (LUMO)
        69                         -0.3193599              -8.6902
        70                         -0.2789925              -7.5918
        71                         -0.2781483              -7.5688
        72                         -0.2719915              -7.4013
        73                         -0.2000652              -5.4441
        74                         -0.1632228              -4.4415
        75                         -0.1581404              -4.3032
        76                         -0.1513921              -4.1196
        77                         -0.1391172              -3.7856
        78                         -0.1345343              -3.6609
       ...                                ...                  ...
       144                          0.7098112              19.3149
      -------------------------------------------------------------
                  HL-Gap            0.0470379 Eh            1.2800 eV

Wiberg/Mayer (AO) data.
largest (>0.10) Wiberg bond orders for each atom

     #   Z sym  total        # sym  WBO       # sym  WBO       # sym  WBO
 ---------------------------------------------------------------------------
     1   6 C    3.988 --    26 H    0.985    27 H    0.983    28 H    0.981
                             2 C    0.974
     2   6 C    3.958 --     4 N    0.994     5 C    0.983     1 C    0.974
                             3 C    0.966
     3   6 C    3.986 --    29 H    0.984    30 H    0.983    31 H    0.978
                             2 C    0.966
     4   7 N    2.996 --     2 C    0.994    32 H    0.931    33 H    0.928
     5   6 C    3.888 --     6 N    1.775     2 C    0.983    23 N    0.870
     6   7 N    3.088 --     5 C    1.775     7 C    1.118
     7   6 C    3.953 --    19 C    1.531     6 N    1.118     8 C    0.976
     8   6 C    3.919 --     9 O    1.581    10 N    1.288     7 C    0.976
     9   8 O    1.898 --     8 C    1.581    10 N    0.187
    10   7 N    3.380 --     8 C    1.288    11 C    0.931    34 H    0.884
                             9 O    0.187
    11   6 C    3.937 --    12 C    0.991    36 H    0.975    35 H    0.970
                            10 N    0.931
    12   6 C    3.987 --    13 C    1.422    18 C    1.416    11 C    0.991
    13   6 C    3.993 --    14 C    1.441    12 C    1.422    37 H    0.971
                            17 C    0.110
    14   6 C    3.991 --    13 C    1.441    15 C    1.402    38 H    0.969
                            18 C    0.111
    15   6 C    3.861 --    14 C    1.402    17 C    1.398    16 F    0.927
    16   9 F    1.056 --    15 C    0.927
    17   6 C    3.992 --    18 C    1.447    15 C    1.398    39 H    0.969
                            13 C    0.110
    18   6 C    3.992 --    17 C    1.447    12 C    1.416    40 H    0.969
                            14 C    0.111
    19   6 C    3.924 --     7 C    1.531    20 O    1.096    21 C    1.076
    20   8 O    2.090 --    19 C    1.096    41 H    0.789
    21   6 C    3.870 --    22 O    1.753    19 C    1.076    23 N    0.861
    22   8 O    2.047 --    21 C    1.753
    23   7 N    3.622 --    24 C    0.878     5 C    0.870    25 C    0.870
                            21 C    0.861
    24   6 C    3.875 --    44 H    0.983    42 H    0.976    43 H    0.968
                            23 N    0.878
    25   6 C    3.876 --    45 H    0.982    46 H    0.976    47 H    0.971
                            23 N    0.870
    26   1 H    1.000 --     1 C    0.985
    27   1 H    0.999 --     1 C    0.983
    28   1 H    1.008 --     1 C    0.981
    29   1 H    1.002 --     3 C    0.984
    30   1 H    1.000 --     3 C    0.983
    31   1 H    0.996 --     3 C    0.978
    32   1 H    0.948 --     4 N    0.931
    33   1 H    0.943 --     4 N    0.928
    34   1 H    0.937 --    10 N    0.884
    35   1 H    1.006 --    11 C    0.970
    36   1 H    1.001 --    11 C    0.975
    37   1 H    0.999 --    13 C    0.971
    38   1 H    0.997 --    14 C    0.969
    39   1 H    0.998 --    17 C    0.969
    40   1 H    1.010 --    18 C    0.969
    41   1 H    0.818 --    20 O    0.789
    42   1 H    0.997 --    24 C    0.976
    43   1 H    1.016 --    24 C    0.968
    44   1 H    0.995 --    24 C    0.983
    45   1 H    0.992 --    25 C    0.982
    46   1 H    0.994 --    25 C    0.976
    47   1 H    1.007 --    25 C    0.971
 ---------------------------------------------------------------------------

           -------------------------------------------------
          | TOTAL ENERGY              -79.482508219381 Eh   |
          | GRADIENT NORM               0.000468480169 Eh/α |
          | HOMO-LUMO GAP               1.279966850584 eV   |
           -------------------------------------------------

 * finished run on 2023/06/20 at 15:36:05.906
