   * xtb version 6.5.1 (579679a) compiled by 'ehlert@majestix' on 2022-07-11
          program call               : /lustre/hpc/kemi/ree/PhD/git/ReactivityQM/dep/xtb-6.5.1/bin/xtb --gfn 1 /lustre/hpc/kemi/ree/PhD/git/ReactivityQM/calculations/R01/reac02/conf15/R01_reac02_conf15_gfn1.xyz --opt --vfukui --chrg 0 --uhf 0 --alpb DMSO

   ID    Z sym.   atoms
    1    6 C      1, 3, 5, 7-10, 13, 15
    2    8 O      2, 4, 14, 16
    3    7 N      6, 11, 12
    4    1 H      17-29

      * Solvation model:               ALPB
        Solvent                        DMSO
        Solvent mass                       7.8130E+01 g/mol
          :  Hamiltonian                  GFN1-xTB          :
 * total energy  :   -54.5053477 Eh     change       -0.4632739E-11 Eh
 * total energy  :   -54.5125229 Eh     change       -0.7175214E-02 Eh
 * total energy  :   -54.5146812 Eh     change       -0.2158311E-02 Eh
 * total energy  :   -54.5150292 Eh     change       -0.3479648E-03 Eh
 * total energy  :   -54.5153392 Eh     change       -0.3100147E-03 Eh
 * total energy  :   -54.5154604 Eh     change       -0.1212381E-03 Eh
 * total energy  :   -54.5155465 Eh     change       -0.8608457E-04 Eh
 * total energy  :   -54.5155921 Eh     change       -0.4562061E-04 Eh
 * total energy  :   -54.5156184 Eh     change       -0.2622680E-04 Eh
 * total energy  :   -54.5156352 Eh     change       -0.1681314E-04 Eh
 * total energy  :   -54.5156468 Eh     change       -0.1163728E-04 Eh
 * total energy  :   -54.5156522 Eh     change       -0.5392369E-05 Eh
 * total energy  :   -54.5156601 Eh     change       -0.7914245E-05 Eh
 * total energy  :   -54.5156663 Eh     change       -0.6162138E-05 Eh
 * total energy  :   -54.5156695 Eh     change       -0.3182943E-05 Eh
   *** GEOMETRY OPTIMIZATION CONVERGED AFTER 15 ITERATIONS ***

 final structure:
================
29
 xtb: 6.5.1 (579679a)
C            4.75530358287292       -0.60914535640325       -1.03381304802713
O            3.61761888052138       -0.48225406171043       -0.16833935796690
C            2.43564835629150       -0.29091962180315       -0.77397291465603
O            2.32222643340132       -0.23085707567674       -1.97514512397297
C            1.29660439063640       -0.15861665096615        0.17628655480732
N            0.09483193527085        0.03613709264202       -0.46310966364450
C           -0.97646937585119        0.17823848564774        0.24150635399727
C           -2.32858189659860        0.34801620786576       -0.41698800495062
C           -2.85141234884319       -1.04914867571127       -0.77999786834695
C           -2.19522858171252        1.22013438011027       -1.67190600727130
N           -3.23139379555244        0.94613059199409        0.56193049003966
N           -0.96327990059007        0.12607893731655        1.59933938812541
C            0.16627576618589       -0.06182815555424        2.36094467788048
O            0.11482070858792       -0.09072264404397        3.58028875935596
C            1.37900678677223       -0.21565094719374        1.54578331287025
O            2.49883885310644       -0.39867393250421        2.25919018504021
H            4.60710779651358       -1.44289324249594       -1.72369648638903
H            4.89368395399341        0.31351815126751       -1.60150291518155
H            5.61434180799169       -0.79347836839271       -0.39357930341996
H           -3.81726159438207       -0.96468614304509       -1.27528728867091
H           -2.15192610337107       -1.54788880844408       -1.45020089857988
H           -2.96885500873843       -1.64853389647018        0.12211805699712
H           -3.16274705817507        1.31292310912199       -2.16142607832387
H           -1.84022619168216        2.21348439030223       -1.40084901826101
H           -1.48317466954816        0.76818086362652       -2.36247027598551
H           -3.07472273998217        1.94399046193033        0.60629650041937
H           -4.18825751878337        0.80127663805172        0.27479189723233
H           -1.85050431676334        0.26825274763673        2.07114980036677
H            3.28773284842829       -0.49106347709807        1.69801627651566

          :  Hamiltonian                  GFN1-xTB          :
         :: total energy             -54.515669452448 Eh    ::
         :: gradient norm              0.000599657379 Eh/a0 ::
         :: HOMO-LUMO gap              2.637985860563 eV    ::
         :: SCC energy               -55.042140316261 Eh    ::
         :: -> Gsolv                  -0.043589749774 Eh    ::
         :: repulsion energy           0.542446474236 Eh    ::

    * Orbital Energies and Occupations

         #    Occupation            Energy/Eh            Energy/eV
      -------------------------------------------------------------
         1        2.0000           -0.8438392             -22.9620
       ...           ...                  ...                  ...
        32        2.0000           -0.5166431             -14.0586
        33        2.0000           -0.5156181             -14.0307
        34        2.0000           -0.5120816             -13.9344
        35        2.0000           -0.5038052             -13.7092
        36        2.0000           -0.4994597             -13.5910
        37        2.0000           -0.4956009             -13.4860
        38        2.0000           -0.4875584             -13.2671
        39        2.0000           -0.4839768             -13.1697
        40        2.0000           -0.4815210             -13.1029
        41        2.0000           -0.4546276             -12.3710
        42        2.0000           -0.4458712             -12.1328
        43        2.0000           -0.4257141             -11.5843
        44        2.0000           -0.4180769             -11.3765 (HOMO)
        45                         -0.3211327              -8.7385 (LUMO)
        46                         -0.2762039              -7.5159
        47                         -0.2382787              -6.4839
        48                         -0.1556210              -4.2347
        49                         -0.1376517              -3.7457
        50                         -0.1252724              -3.4088
        51                         -0.1209885              -3.2923
        52                         -0.1024797              -2.7886
        53                         -0.0955648              -2.6005
        54                         -0.0906479              -2.4667
        55                         -0.0736817              -2.0050
       ...                                ...                  ...
        90                          0.7319217              19.9166
      -------------------------------------------------------------
                  HL-Gap            0.0969442 Eh            2.6380 eV

Wiberg/Mayer (AO) data.
largest (>0.10) Wiberg bond orders for each atom

     #   Z sym  total        # sym  WBO       # sym  WBO       # sym  WBO
 ---------------------------------------------------------------------------
     1   6 C    3.862 --    19 H    0.986    17 H    0.980    18 H    0.980
                             2 O    0.885
     2   8 O    2.202 --     3 C    1.085     1 C    0.885     4 O    0.129
     3   6 C    3.845 --     4 O    1.670     2 O    1.085     5 C    1.008
     4   8 O    1.931 --     3 C    1.670     2 O    0.129
     5   6 C    3.965 --    15 C    1.501     6 N    1.178     3 C    1.008
     6   7 N    3.019 --     7 C    1.577     5 C    1.178
     7   6 C    3.923 --     6 N    1.577    12 N    1.181     8 C    0.979
     8   6 C    3.966 --    11 N    0.987    10 C    0.986     7 C    0.979
                             9 C    0.979
     9   6 C    3.993 --    22 H    0.986    21 H    0.986    20 H    0.983
                             8 C    0.979
    10   6 C    3.994 --     8 C    0.986    23 H    0.986    24 H    0.985
                            25 H    0.983
    11   7 N    2.981 --     8 C    0.987    26 H    0.940    27 H    0.937
    12   7 N    3.472 --     7 C    1.181    13 C    1.134    28 H    0.869
                            14 O    0.135
    13   6 C    3.912 --    14 O    1.587    12 N    1.134    15 C    1.058
    14   8 O    1.883 --    13 C    1.587    12 N    0.135
    15   6 C    3.918 --     5 C    1.501    16 O    1.102    13 C    1.058
    16   8 O    2.082 --    15 C    1.102    29 H    0.802
    17   1 H    1.007 --     1 C    0.980
    18   1 H    1.006 --     1 C    0.980
    19   1 H    1.009 --     1 C    0.986
    20   1 H    1.000 --     9 C    0.983
    21   1 H    1.004 --     9 C    0.986
    22   1 H    1.003 --     9 C    0.986
    23   1 H    1.002 --    10 C    0.986
    24   1 H    1.004 --    10 C    0.985
    25   1 H    1.010 --    10 C    0.983
    26   1 H    0.954 --    11 N    0.940
    27   1 H    0.951 --    11 N    0.937
    28   1 H    0.950 --    12 N    0.869
    29   1 H    0.855 --    16 O    0.802
 ---------------------------------------------------------------------------

           -------------------------------------------------
          | TOTAL ENERGY              -54.515669452448 Eh   |
          | GRADIENT NORM               0.000599657379 Eh/α |
          | HOMO-LUMO GAP               2.637985860563 eV   |
           -------------------------------------------------

 * finished run on 2023/06/20 at 14:51:58.266
