   * xtb version 6.5.1 (579679a) compiled by 'ehlert@majestix' on 2022-07-11
          program call               : /lustre/hpc/kemi/ree/PhD/git/ReactivityQM/dep/xtb-6.5.1/bin/xtb --gfn 1 /lustre/hpc/kemi/ree/PhD/git/ReactivityQM/calculations/R02oxygendeprot/reac01prodN09/conf04/R02oxygendeprot_reac01prodN09_conf04_gfn1.xyz --opt --vfukui --chrg 0 --uhf 0 --alpb DMSO

   ID    Z sym.   atoms
    1    6 C      1, 3, 4, 6, 8-11, 13, 15, 18, 19, 22, 24
    2    8 O      2, 5, 14, 20, 23, 25
    3    7 N      7, 12, 16, 17, 21
    4    1 H      26-42

      * Solvation model:               ALPB
        Solvent                        DMSO
        Solvent mass                       7.8130E+01 g/mol
          :  Hamiltonian                  GFN1-xTB          :
 * total energy  :   -82.8655662 Eh     change       -0.3408900E-08 Eh
 * total energy  :   -82.8786931 Eh     change       -0.1312692E-01 Eh
 * total energy  :   -82.8853465 Eh     change       -0.6653453E-02 Eh
 * total energy  :   -82.8871350 Eh     change       -0.1788477E-02 Eh
 * total energy  :   -82.8889012 Eh     change       -0.1766209E-02 Eh
 * total energy  :   -82.8908437 Eh     change       -0.1942457E-02 Eh
 * total energy  :   -82.8931920 Eh     change       -0.2348297E-02 Eh
 * total energy  :   -82.8962709 Eh     change       -0.3078895E-02 Eh
 * total energy  :   -82.9004196 Eh     change       -0.4148787E-02 Eh
 * total energy  :   -82.9062313 Eh     change       -0.5811616E-02 Eh
 * total energy  :   -83.0046981 Eh     change       -0.5793069E-05 Eh
 * total energy  :   -83.0047041 Eh     change       -0.5991283E-05 Eh
 * total energy  :   -83.0047106 Eh     change       -0.6449844E-05 Eh
 * total energy  :   -83.0047179 Eh     change       -0.7358474E-05 Eh
 * total energy  :   -83.0047262 Eh     change       -0.8263500E-05 Eh
 * total energy  :   -83.0047344 Eh     change       -0.8214739E-05 Eh
 * total energy  :   -83.0047413 Eh     change       -0.6923539E-05 Eh
 * total energy  :   -83.0047467 Eh     change       -0.5408250E-05 Eh
 * total energy  :   -83.0047514 Eh     change       -0.4657846E-05 Eh
   *** GEOMETRY OPTIMIZATION CONVERGED AFTER 116 ITERATIONS ***

 final structure:
================
42
 xtb: 6.5.1 (579679a)
C           -3.16494276586533        3.28127885451628       -1.62653950465152
O           -2.93768445830092        2.37888199864564       -0.53138880826060
C           -2.37370238429473        1.22473740269879       -0.81075616087825
C           -2.19767393951085        1.18664963437503        1.74044017017271
O           -2.05541251557605        0.84974140851589       -1.90740345026837
C           -2.18450302188799        0.34830981840171        0.46322757700559
N           -0.89727554849705       -0.28824256536449        0.30728088863266
C           -0.78471618772990       -1.39789235584126       -0.29537979815495
C            0.58658132041046       -2.00515258677967       -0.52012962287184
C            0.70041893331853       -3.31674031945441        0.27006803951459
C            0.82532145243688       -2.23036001552166       -2.01993699651379
N            1.55378275511778       -1.03437550042828       -0.01636479287941
C            2.88450763425240       -1.22637969838013       -0.02779071798884
O            3.45343554193432       -2.23164081893712       -0.42456301581614
C            3.63728535646764       -0.05944951236382        0.50112021666560
N            4.92031416290593        0.04428070341101        0.65708063739897
N            5.15793097704400        1.29382129514910        1.14685785861347
C            4.00545404533049        1.87679605383000        1.25789145057951
C            3.72913863002288        3.24787328440757        1.73859563878466
O            3.00032084403538        1.07468027636411        0.86775202632142
N           -1.86429958430217       -2.13654426489474       -0.76020163088296
C           -3.16524689340311       -1.85634312129683       -0.46530028072408
O           -4.08305296246362       -2.54526782205851       -0.84715172732328
C           -3.35806973734724       -0.61311023136212        0.41162282046058
O           -4.39646928737150       -0.40495965881851        0.98121693827856
H           -3.80281558050493        2.80480964498690       -2.37338354010627
H           -2.21064933764465        3.55591420331564       -2.07909888244322
H           -3.65344183873553        4.15616749603608       -1.20424913074199
H           -1.97070626261597        0.54653652037625        2.59058620434395
H           -1.44697837436627        1.96967632008057        1.67320592716582
H           -3.17945816860311        1.63482165158719        1.87986179803122
H           -0.07001493348447       -4.01222473843047       -0.05583519065433
H            1.67654031211156       -3.76718946838325        0.09873162054417
H            0.57702573694802       -3.12067833026716        1.33390365066672
H            1.83265186904243       -2.61263962405395       -2.17524145455644
H            0.71007403031408       -1.29128078540321       -2.55899316322501
H            0.11515765148211       -2.95634491712288       -2.40912681771057
H            1.17279216698345       -0.16697992305138        0.34003210094464
H            4.66672618877103        3.75871484480780        1.94447855411167
H            3.12803251196855        3.21057819773460        2.64687173047920
H            3.16799643450134        3.79983509416343        0.98535698149413
H           -1.70437577289427       -2.97031044520336       -1.30554014355308

          :  Hamiltonian                  GFN1-xTB          :
         :: total energy             -83.004751396999 Eh    ::
         :: gradient norm              0.000190984209 Eh/a0 ::
         :: HOMO-LUMO gap              2.418998950050 eV    ::
         :: SCC energy               -83.792709874954 Eh    ::
         :: -> Gsolv                  -0.054386988249 Eh    ::
         :: repulsion energy           0.814658275575 Eh    ::

    * Orbital Energies and Occupations

         #    Occupation            Energy/Eh            Energy/eV
      -------------------------------------------------------------
         1        2.0000           -0.8652077             -23.5435
       ...           ...                  ...                  ...
        55        2.0000           -0.5109977             -13.9050
        56        2.0000           -0.5055157             -13.7558
        57        2.0000           -0.5044841             -13.7277
        58        2.0000           -0.5031854             -13.6924
        59        2.0000           -0.4923460             -13.3974
        60        2.0000           -0.4798161             -13.0565
        61        2.0000           -0.4712216             -12.8226
        62        2.0000           -0.4636185             -12.6157
        63        2.0000           -0.4619013             -12.5690
        64        2.0000           -0.4588186             -12.4851
        65        2.0000           -0.4514211             -12.2838
        66        2.0000           -0.4476396             -12.1809
        67        2.0000           -0.4420251             -12.0281 (HOMO)
        68                         -0.3531286              -9.6091 (LUMO)
        69                         -0.3095441              -8.4231
        70                         -0.2982502              -8.1158
        71                         -0.2702625              -7.3542
        72                         -0.2567731              -6.9872
        73                         -0.2261529              -6.1539
        74                         -0.1975528              -5.3757
        75                         -0.1461609              -3.9772
        76                         -0.1430407              -3.8923
        77                         -0.1420848              -3.8663
        78                         -0.1258949              -3.4258
       ...                                ...                  ...
       134                          0.7588521              20.6494
      -------------------------------------------------------------
                  HL-Gap            0.0888966 Eh            2.4190 eV

Wiberg/Mayer (AO) data.
largest (>0.10) Wiberg bond orders for each atom

     #   Z sym  total        # sym  WBO       # sym  WBO       # sym  WBO
 ---------------------------------------------------------------------------
     1   6 C    3.852 --    28 H    0.985    26 H    0.980    27 H    0.980
                             2 O    0.874
     2   8 O    2.233 --     3 C    1.160     1 C    0.874     5 O    0.140
     3   6 C    3.845 --     5 O    1.696     2 O    1.160     6 C    0.863
     4   6 C    3.984 --    30 H    0.984    29 H    0.983     6 C    0.983
                            31 H    0.982
     5   8 O    1.964 --     3 C    1.696     2 O    0.140
     6   6 C    3.962 --     4 C    0.983     7 N    0.977    24 C    0.950
                             3 C    0.863
     7   7 N    3.048 --     8 C    1.752     6 C    0.977
     8   6 C    3.926 --     7 N    1.752    21 N    1.071     9 C    0.980
     9   6 C    3.939 --     8 C    0.980    11 C    0.979    10 C    0.977
                            12 N    0.937
    10   6 C    3.986 --    34 H    0.985    32 H    0.984    33 H    0.977
                             9 C    0.977
    11   6 C    3.987 --    36 H    0.985    37 H    0.982     9 C    0.979
                            35 H    0.978
    12   7 N    3.360 --    13 C    1.269     9 C    0.937    38 H    0.876
                            14 O    0.179
    13   6 C    3.919 --    14 O    1.577    12 N    1.269    15 C    0.990
    14   8 O    1.897 --    13 C    1.577    12 N    0.179
    15   6 C    3.872 --    16 N    1.624    20 O    1.047    13 C    0.990
    16   7 N    2.999 --    15 C    1.624    17 N    1.197
    17   7 N    2.982 --    18 C    1.613    16 N    1.197
    18   6 C    3.869 --    17 N    1.613    20 O    1.072    19 C    1.031
    19   6 C    3.987 --    18 C    1.031    39 H    0.982    41 H    0.965
                            40 H    0.962
    20   8 O    2.315 --    18 C    1.072    15 C    1.047
    21   7 N    3.429 --    22 C    1.184     8 C    1.071    42 H    0.880
                            23 O    0.148
    22   6 C    3.892 --    23 O    1.676    21 N    1.184    24 C    0.906
    23   8 O    1.960 --    22 C    1.676    21 N    0.148
    24   6 C    3.847 --    25 O    1.813     6 C    0.950    22 C    0.906
    25   8 O    2.027 --    24 C    1.813
    26   1 H    1.004 --     1 C    0.980
    27   1 H    1.003 --     1 C    0.980
    28   1 H    1.007 --     1 C    0.985
    29   1 H    1.001 --     4 C    0.983
    30   1 H    1.003 --     4 C    0.984
    31   1 H    1.007 --     4 C    0.982
    32   1 H    0.999 --    10 C    0.984
    33   1 H    1.008 --    10 C    0.977
    34   1 H    1.001 --    10 C    0.985
    35   1 H    1.007 --    11 C    0.978
    36   1 H    1.000 --    11 C    0.985
    37   1 H    0.998 --    11 C    0.982
    38   1 H    0.955 --    12 N    0.876
    39   1 H    0.998 --    19 C    0.982
    40   1 H    0.997 --    19 C    0.962
    41   1 H    0.997 --    19 C    0.965
    42   1 H    0.928 --    21 N    0.880
 ---------------------------------------------------------------------------

           -------------------------------------------------
          | TOTAL ENERGY              -83.004751396999 Eh   |
          | GRADIENT NORM               0.000190984209 Eh/α |
          | HOMO-LUMO GAP               2.418998950050 eV   |
           -------------------------------------------------

 * finished run on 2023/06/21 at 17:25:03.843
