   * xtb version 6.5.1 (579679a) compiled by 'ehlert@majestix' on 2022-07-11
          program call               : /lustre/hpc/kemi/ree/PhD/git/ReactivityQM/dep/xtb-6.5.1/bin/xtb --gfn 1 /lustre/hpc/kemi/ree/PhD/git/ReactivityQM/calculations/R02methylcation/reac01prodN05/conf18/R02methylcation_reac01prodN05_conf18_gfn1.xyz --opt --vfukui --chrg 0 --uhf 0 --alpb DMSO

   ID    Z sym.   atoms
    1    6 C      1, 3, 5, 6, 8, 11-14, 16, 18, 21, 22, 25
    2    8 O      2, 4, 7, 9, 17, 23
    3    7 N      10, 15, 19, 20, 24
    4    1 H      26-42

      * Solvation model:               ALPB
        Solvent                        DMSO
        Solvent mass                       7.8130E+01 g/mol
          :  Hamiltonian                  GFN1-xTB          :
 * total energy  :   -82.9693121 Eh     change       -0.3034017E-10 Eh
 * total energy  :   -82.9814395 Eh     change       -0.1212733E-01 Eh
 * total energy  :   -82.9866483 Eh     change       -0.5208855E-02 Eh
 * total energy  :   -82.9879582 Eh     change       -0.1309912E-02 Eh
 * total energy  :   -82.9887836 Eh     change       -0.8253948E-03 Eh
 * total energy  :   -82.9892012 Eh     change       -0.4175592E-03 Eh
 * total energy  :   -82.9895156 Eh     change       -0.3144604E-03 Eh
 * total energy  :   -82.9897745 Eh     change       -0.2588221E-03 Eh
 * total energy  :   -82.9899923 Eh     change       -0.2177986E-03 Eh
 * total energy  :   -82.9901801 Eh     change       -0.1878297E-03 Eh
 * total energy  :   -82.9910416 Eh     change       -0.1667118E-04 Eh
 * total energy  :   -82.9910589 Eh     change       -0.1734598E-04 Eh
 * total energy  :   -82.9910673 Eh     change       -0.8405099E-05 Eh
 * total energy  :   -82.9910765 Eh     change       -0.9158286E-05 Eh
 * total energy  :   -82.9910868 Eh     change       -0.1030023E-04 Eh
 * total energy  :   -82.9910962 Eh     change       -0.9402943E-05 Eh
 * total energy  :   -82.9911024 Eh     change       -0.6187725E-05 Eh
 * total energy  :   -82.9911137 Eh     change       -0.1133939E-04 Eh
 * total energy  :   -82.9911186 Eh     change       -0.4884779E-05 Eh
   *** GEOMETRY OPTIMIZATION CONVERGED AFTER 44 ITERATIONS ***

 final structure:
================
42
 xtb: 6.5.1 (579679a)
C           -6.48940613899171       -1.16939439018392       -0.30431476121931
O           -5.32116432959850       -0.67402025452401        0.35012903848663
C           -4.25156555661348       -0.47807511816437       -0.42622888230822
O           -4.28687079920560       -0.69563829652978       -1.62744150346491
C           -3.06146268701215       -0.04330311164735        0.31556274372595
C           -2.94284628027747       -0.27042439763705        1.71505244623552
O           -3.83762110185851       -0.66222882398290        2.46478599421187
C           -1.57153707721182       -0.03112054425596        2.29789710819773
O           -1.28385153813490       -0.10008217802425        3.47458219647385
N           -0.58175543137974        0.23650421056782        1.36566980639806
C           -0.74903420686746        0.48480641861920        0.04722895516493
C            0.54307358033151        0.84400739864808       -0.69003905767003
C            0.75058340057159        2.36130480566657       -0.59567806196138
C            0.62548611032845        0.33980853369905       -2.13912397833366
N            1.59326359455898        0.12154197674760        0.04697120018821
C            2.91224660448961        0.46971376179318        0.06412832503723
O            3.38003314533253        1.54116807637035       -0.25588828266228
C            3.72075005528325       -0.65616899893935        0.59309101277385
N            3.26765845925605       -1.81508999991551        0.96834606152473
N            4.34188587373609       -2.54415515768485        1.37402227809927
C            5.38545283769898       -1.78469495230292        1.21731503537817
C            6.79837094124013       -2.12135388543192        1.49685801511938
O            5.05623117377062       -0.58078773056453        0.72896952414395
N           -1.96896845209377        0.42763023818641       -0.43990958443932
C           -2.26403401254988        0.98231611064675       -1.76712041202294
H           -6.82538099943247       -0.45986537935947       -1.06448520370788
H           -7.25224860089141       -1.28672310195137        0.46356773240961
H           -6.27914064601547       -2.13094815887322       -0.77972885583657
H            0.35475514060620        0.33428954850243        1.73663693905707
H           -0.15847907967011        2.87618427101607       -0.90024561305908
H            1.56134077624664        2.67211503210666       -1.25015725097765
H            0.98809241932594        2.64392245092927        0.42808169718768
H            0.18680322993048       -0.65209152349642       -2.22727706717107
H            0.13746871064814        1.01713481820177       -2.83386461551479
H            1.67673946366674        0.28127455993068       -2.41809123890859
H            1.41819056786716       -0.86990917955948        0.15491737314715
H            7.33739340837282       -2.25674091108109        0.55854172621734
H            6.85004600426451       -3.04109700067632        2.07416248091172
H            7.27443875293380       -1.31013928499931        2.04569197436500
H           -1.55899540355945        1.77520664822229       -1.98839455445490
H           -2.21231673848513        0.20060815973986       -2.52180245067971
H           -3.26362717060383        1.40837136019600       -1.75241829006114

          :  Hamiltonian                  GFN1-xTB          :
         :: total energy             -82.991118591487 Eh    ::
         :: gradient norm              0.000401722597 Eh/a0 ::
         :: HOMO-LUMO gap              2.493302184879 eV    ::
         :: SCC energy               -83.771794383149 Eh    ::
         :: -> Gsolv                  -0.068956667519 Eh    ::
         :: repulsion energy           0.807306387299 Eh    ::

    * Orbital Energies and Occupations

         #    Occupation            Energy/Eh            Energy/eV
      -------------------------------------------------------------
         1        2.0000           -0.8682217             -23.6255
       ...           ...                  ...                  ...
        55        2.0000           -0.5106972             -13.8968
        56        2.0000           -0.5101263             -13.8812
        57        2.0000           -0.4952117             -13.4754
        58        2.0000           -0.4913249             -13.3696
        59        2.0000           -0.4892471             -13.3131
        60        2.0000           -0.4876519             -13.2697
        61        2.0000           -0.4748079             -12.9202
        62        2.0000           -0.4726914             -12.8626
        63        2.0000           -0.4690169             -12.7626
        64        2.0000           -0.4577326             -12.4555
        65        2.0000           -0.4559395             -12.4067
        66        2.0000           -0.4266895             -11.6108
        67        2.0000           -0.4160862             -11.3223 (HOMO)
        68                         -0.3244591              -8.8290 (LUMO)
        69                         -0.3194161              -8.6918
        70                         -0.3048068              -8.2942
        71                         -0.2608480              -7.0980
        72                         -0.2390175              -6.5040
        73                         -0.2075669              -5.6482
        74                         -0.1689808              -4.5982
        75                         -0.1521608              -4.1405
        76                         -0.1435705              -3.9068
        77                         -0.1386200              -3.7720
        78                         -0.1335910              -3.6352
       ...                                ...                  ...
       134                          0.7510405              20.4369
      -------------------------------------------------------------
                  HL-Gap            0.0916272 Eh            2.4933 eV

Wiberg/Mayer (AO) data.
largest (>0.10) Wiberg bond orders for each atom

     #   Z sym  total        # sym  WBO       # sym  WBO       # sym  WBO
 ---------------------------------------------------------------------------
     1   6 C    3.877 --    27 H    0.986    28 H    0.980    26 H    0.980
                             2 O    0.903
     2   8 O    2.200 --     3 C    1.103     1 C    0.903     4 O    0.120
     3   6 C    3.866 --     4 O    1.582     2 O    1.103     5 C    1.084
     4   8 O    1.894 --     3 C    1.582     2 O    0.120
     5   6 C    3.848 --     6 C    1.260     3 C    1.084    24 N    1.049
                             7 O    0.140
     6   6 C    3.944 --     7 O    1.572     5 C    1.260     8 C    0.952
     7   8 O    1.883 --     6 C    1.572     5 C    0.140
     8   6 C    3.867 --     9 O    1.660    10 N    1.091     6 C    0.952
     9   8 O    1.930 --     8 C    1.660    10 N    0.116
    10   7 N    3.457 --    11 C    1.211     8 C    1.091    29 H    0.871
                             9 O    0.116
    11   6 C    3.914 --    24 N    1.437    10 N    1.211    12 C    0.974
    12   6 C    3.931 --    14 C    0.985    13 C    0.979    11 C    0.974
                            15 N    0.929
    13   6 C    3.981 --    32 H    0.982    30 H    0.979    12 C    0.979
                            31 H    0.976
    14   6 C    3.986 --    12 C    0.985    33 H    0.984    35 H    0.979
                            34 H    0.979
    15   7 N    3.305 --    16 C    1.200    12 C    0.929    36 H    0.894
                            17 O    0.164
    16   6 C    3.910 --    17 O    1.629    15 N    1.200    18 C    0.993
    17   8 O    1.937 --    16 C    1.629    15 N    0.164
    18   6 C    3.878 --    19 N    1.604    23 O    1.066    16 C    0.993
    19   7 N    3.022 --    18 C    1.604    20 N    1.206
    20   7 N    2.981 --    21 C    1.597    19 N    1.206
    21   6 C    3.869 --    20 N    1.597    23 O    1.086    22 C    1.032
    22   6 C    3.985 --    21 C    1.032    38 H    0.981    39 H    0.968
                            37 H    0.958
    23   8 O    2.335 --    21 C    1.086    18 C    1.066
    24   7 N    3.586 --    11 C    1.437     5 C    1.049    25 C    0.917
    25   6 C    3.911 --    40 H    0.977    42 H    0.975    41 H    0.971
                            24 N    0.917
    26   1 H    1.009 --     1 C    0.980
    27   1 H    1.012 --     1 C    0.986
    28   1 H    1.009 --     1 C    0.980
    29   1 H    0.934 --    10 N    0.871
    30   1 H    1.001 --    13 C    0.979
    31   1 H    1.009 --    13 C    0.976
    32   1 H    1.001 --    13 C    0.982
    33   1 H    0.998 --    14 C    0.984
    34   1 H    1.000 --    14 C    0.979
    35   1 H    0.997 --    14 C    0.979
    36   1 H    0.952 --    15 N    0.894
    37   1 H    0.996 --    22 C    0.958
    38   1 H    0.998 --    22 C    0.981
    39   1 H    0.996 --    22 C    0.968
    40   1 H    1.005 --    25 C    0.977
    41   1 H    1.011 --    25 C    0.971
    42   1 H    1.005 --    25 C    0.975
 ---------------------------------------------------------------------------

           -------------------------------------------------
          | TOTAL ENERGY              -82.991118591487 Eh   |
          | GRADIENT NORM               0.000401722597 Eh/α |
          | HOMO-LUMO GAP               2.493302184879 eV   |
           -------------------------------------------------

 * finished run on 2023/06/21 at 17:35:14.017
