                         Program Version 5.0.1 -  RELEASE  -
|  1> # ORCA input file
|  2> ! SP r2SCAN-3c CPCM
|  3>
|  4> %maxcore 1875.0
|  5> %pal nprocs 4 end
|  6> %cpcm smd true SMDsolvent "DMSO" end
|  7>
|  8> *xyz 0 1
|  9> C       6.619425    1.031901    0.311999
| 10> O       5.370444    0.552229    0.806614
| 11> C       4.386834    0.427932   -0.092874
| 12> O       4.541087    0.712027   -1.266089
| 13> C       3.116089   -0.085563    0.462624
| 14> N       2.143809   -0.222232   -0.473867
| 15> C       0.975818   -0.679061   -0.151803
| 16> C      -0.091011   -0.865161   -1.199117
| 17> C       0.270401   -0.112847   -2.480113
| 18> C      -0.307812   -2.356555   -1.469314
| 19> N      -1.361945   -0.338911   -0.656934
| 20> C      -1.406888    0.876519   -0.122889
| 21> O      -0.463151    1.603072    0.080099
| 22> C      -2.857523    1.349095    0.289240
| 23> C      -3.188730    2.605520   -0.513845
| 24> N      -2.846529    1.551529    1.696453
| 25> N      -3.670684    0.715186    2.243113
| 26> C      -4.242018   -0.004810    1.279578
| 27> C      -5.250236   -1.056903    1.461641
| 28> O      -3.806991    0.326263    0.081837
| 29> N       0.673296   -1.068802    1.121319
| 30> C       1.540477   -0.957794    2.187907
| 31> O       1.183784   -1.292166    3.304570
| 32> C       2.911907   -0.409627    1.846512
| 33> O       3.745093   -0.282715    2.746060
| 34> H       6.986953    0.381388   -0.485894
| 35> H       7.313604    1.026138    1.150321
| 36> H       6.508570    2.047032   -0.078235
| 37> H      -0.530910   -0.218367   -3.207345
| 38> H       0.423848    0.943441   -2.262688
| 39> H       1.190186   -0.525493   -2.892270
| 40> H       0.613552   -2.799124   -1.844686
| 41> H      -0.601839   -2.867851   -0.554778
| 42> H      -1.090907   -2.486266   -2.213152
| 43> H      -2.208747   -0.832419   -0.876298
| 44> H      -4.156847    2.984898   -0.196054
| 45> H      -3.225864    2.355500   -1.571104
| 46> H      -2.416342    3.350802   -0.334045
| 47> H      -5.240687   -1.416695    2.488373
| 48> H      -5.068906   -1.873064    0.764008
| 49> H      -6.238415   -0.646713    1.239165
| 50> H      -0.242194   -1.441334    1.313501
| 51> **                         ****END OF INPUT****

CARTESIAN COORDINATES (ANGSTROEM)
---------------------------------
  C      6.619425    1.031901    0.311999
  O      5.370444    0.552229    0.806614
  C      4.386834    0.427932   -0.092874
  O      4.541087    0.712027   -1.266089
  C      3.116089   -0.085563    0.462624
  N      2.143809   -0.222232   -0.473867
  C      0.975818   -0.679061   -0.151803
  C     -0.091011   -0.865161   -1.199117
  C      0.270401   -0.112847   -2.480113
  C     -0.307812   -2.356555   -1.469314
  N     -1.361945   -0.338911   -0.656934
  C     -1.406888    0.876519   -0.122889
  O     -0.463151    1.603072    0.080099
  C     -2.857523    1.349095    0.289240
  C     -3.188730    2.605520   -0.513845
  N     -2.846529    1.551529    1.696453
  N     -3.670684    0.715186    2.243113
  C     -4.242018   -0.004810    1.279578
  C     -5.250236   -1.056903    1.461641
  O     -3.806991    0.326263    0.081837
  N      0.673296   -1.068802    1.121319
  C      1.540477   -0.957794    2.187907
  O      1.183784   -1.292166    3.304570
  C      2.911907   -0.409627    1.846512
  O      3.745093   -0.282715    2.746060
  H      6.986953    0.381388   -0.485894
  H      7.313604    1.026138    1.150321
  H      6.508570    2.047032   -0.078235
  H     -0.530910   -0.218367   -3.207345
  H      0.423848    0.943441   -2.262688
  H      1.190186   -0.525493   -2.892270
  H      0.613552   -2.799124   -1.844686
  H     -0.601839   -2.867851   -0.554778
  H     -1.090907   -2.486266   -2.213152
  H     -2.208747   -0.832419   -0.876298
  H     -4.156847    2.984898   -0.196054
  H     -3.225864    2.355500   -1.571104
  H     -2.416342    3.350802   -0.334045
  H     -5.240687   -1.416695    2.488373
  H     -5.068906   -1.873064    0.764008
  H     -6.238415   -0.646713    1.239165
  H     -0.242194   -1.441334    1.313501

 Total Charge           Charge          ....    0
 Multiplicity           Mult            ....    1
 Number of Electrons    NEL             ....  184
 Basis Dimension        Dim             ....  615

ORBITAL ENERGIES
----------------

  NO   OCC          E(Eh)            E(eV)
   0   2.0000     -19.067564      -518.8548
   1   2.0000     -18.988302      -516.6980
   2   2.0000     -18.960785      -515.9492
   3   2.0000     -18.930963      -515.1377
   4   2.0000     -18.923644      -514.9385
   5   2.0000     -18.918241      -514.7915
   6   2.0000     -14.230070      -387.2199
   7   2.0000     -14.228257      -387.1706
   8   2.0000     -14.218575      -386.9071
   9   2.0000     -14.216816      -386.8592
  10   2.0000     -14.164802      -385.4439
  11   2.0000     -10.178710      -276.9768
  12   2.0000     -10.167718      -276.6777
  13   2.0000     -10.166452      -276.6432
  14   2.0000     -10.147149      -276.1180
  15   2.0000     -10.138168      -275.8736
  16   2.0000     -10.122240      -275.4401
  17   2.0000     -10.108057      -275.0542
  18   2.0000     -10.104277      -274.9513
  19   2.0000     -10.077056      -274.2106
  20   2.0000     -10.070424      -274.0302
  21   2.0000     -10.055132      -273.6140
  22   2.0000     -10.048420      -273.4314
  23   2.0000     -10.031926      -272.9826
  24   2.0000     -10.021264      -272.6925
  25   2.0000      -1.160116       -31.5684
  26   2.0000      -1.063181       -28.9306
  27   2.0000      -1.049750       -28.5652
  28   2.0000      -1.023691       -27.8561
  29   2.0000      -1.005584       -27.3633
  30   2.0000      -0.977638       -26.6029
  31   2.0000      -0.970604       -26.4115
  32   2.0000      -0.960830       -26.1455
  33   2.0000      -0.926862       -25.2212
  34   2.0000      -0.874254       -23.7897
  35   2.0000      -0.845835       -23.0163
  36   2.0000      -0.784048       -21.3350
  37   2.0000      -0.742763       -20.2116
  38   2.0000      -0.727304       -19.7909
  39   2.0000      -0.696173       -18.9438
  40   2.0000      -0.687762       -18.7150
  41   2.0000      -0.669192       -18.2096
  42   2.0000      -0.651144       -17.7185
  43   2.0000      -0.637032       -17.3345
  44   2.0000      -0.624976       -17.0065
  45   2.0000      -0.619206       -16.8495
  46   2.0000      -0.597879       -16.2691
  47   2.0000      -0.567703       -15.4480
  48   2.0000      -0.546263       -14.8646
  49   2.0000      -0.535967       -14.5844
  50   2.0000      -0.518938       -14.1210
  51   2.0000      -0.497630       -13.5412
  52   2.0000      -0.494830       -13.4650
  53   2.0000      -0.489364       -13.3163
  54   2.0000      -0.470964       -12.8156
  55   2.0000      -0.451960       -12.2984
  56   2.0000      -0.445110       -12.1120
  57   2.0000      -0.438246       -11.9253
  58   2.0000      -0.433160       -11.7869
  59   2.0000      -0.426927       -11.6173
  60   2.0000      -0.425968       -11.5912
  61   2.0000      -0.420359       -11.4386
  62   2.0000      -0.415258       -11.2997
  63   2.0000      -0.406109       -11.0508
  64   2.0000      -0.400912       -10.9094
  65   2.0000      -0.392583       -10.6827
  66   2.0000      -0.389157       -10.5895
  67   2.0000      -0.387509       -10.5446
  68   2.0000      -0.383671       -10.4402
  69   2.0000      -0.375586       -10.2202
  70   2.0000      -0.372767       -10.1435
  71   2.0000      -0.370297       -10.0763
  72   2.0000      -0.367557       -10.0017
  73   2.0000      -0.364505        -9.9187
  74   2.0000      -0.359471        -9.7817
  75   2.0000      -0.348882        -9.4936
  76   2.0000      -0.342662        -9.3243
  77   2.0000      -0.338972        -9.2239
  78   2.0000      -0.336630        -9.1602
  79   2.0000      -0.333292        -9.0693
  80   2.0000      -0.327398        -8.9090
  81   2.0000      -0.314574        -8.5600
  82   2.0000      -0.277528        -7.5519
  83   2.0000      -0.273182        -7.4336
  84   2.0000      -0.271035        -7.3752
  85   2.0000      -0.265408        -7.2221
  86   2.0000      -0.263317        -7.1652
  87   2.0000      -0.256626        -6.9832
  88   2.0000      -0.246463        -6.7066
  89   2.0000      -0.230787        -6.2800
  90   2.0000      -0.200397        -5.4531
  91   2.0000      -0.179588        -4.8869
  92   0.0000      -0.172683        -4.6989
  93   0.0000      -0.070672        -1.9231
  94   0.0000      -0.045831        -1.2471
  95   0.0000      -0.029804        -0.8110
  96   0.0000      -0.024487        -0.6663

MULLIKEN ATOMIC CHARGES
-----------------------
   0 C :   -0.320657
   1 O :   -0.147467
   2 C :    0.144431
   3 O :   -0.416842
   4 C :    0.117822
   5 N :   -0.102091
   6 C :    0.144619
   7 C :    0.049785
   8 C :   -0.583899
   9 C :   -0.530142
  10 N :   -0.168496
  11 C :    0.330479
  12 O :   -0.407082
  13 C :    0.097449
  14 C :   -0.510234
  15 N :   -0.124724
  16 N :   -0.150011
  17 C :    0.384404
  18 C :   -0.619129
  19 O :   -0.089450
  20 N :   -0.015987
  21 C :    0.062357
  22 O :   -0.374164
  23 C :   -0.016145
  24 O :   -0.329926
  25 H :    0.170951
  26 H :    0.171613
  27 H :    0.170870
  28 H :    0.186022
  29 H :    0.192493
  30 H :    0.190532
  31 H :    0.198839
  32 H :    0.189761
  33 H :    0.192072
  34 H :    0.328123
  35 H :    0.197935
  36 H :    0.206107
  37 H :    0.215090
  38 H :    0.213132
  39 H :    0.208833
  40 H :    0.226949
  41 H :    0.315777
Sum of atomic charges:   -0.0000000

LOEWDIN ATOMIC CHARGES
----------------------
   0 C :   -0.044653
   1 O :   -0.582213
   2 C :    0.392330
   3 O :   -0.438359
   4 C :    0.196384
   5 N :   -0.550335
   6 C :    0.351191
   7 C :    0.108650
   8 C :   -0.341484
   9 C :   -0.331783
  10 N :   -0.552499
  11 C :    0.392421
  12 O :   -0.388802
  13 C :    0.316039
  14 C :   -0.285433
  15 N :   -0.289990
  16 N :   -0.303761
  17 C :    0.429399
  18 C :   -0.304657
  19 O :   -0.422760
  20 N :   -0.455486
  21 C :    0.371706
  22 O :   -0.429403
  23 C :    0.255173
  24 O :   -0.481756
  25 H :    0.179629
  26 H :    0.182226
  27 H :    0.178686
  28 H :    0.170274
  29 H :    0.180362
  30 H :    0.178515
  31 H :    0.180555
  32 H :    0.176136
  33 H :    0.176409
  34 H :    0.305694
  35 H :    0.185262
  36 H :    0.188060
  37 H :    0.195337
  38 H :    0.198156
  39 H :    0.198707
  40 H :    0.210231
  41 H :    0.305840

  Mayer bond orders larger than 0.100000
B(  0-C ,  1-O ) :   0.8391 B(  0-C , 25-H ) :   0.9581 B(  0-C , 26-H ) :   0.9665
B(  0-C , 27-H ) :   0.9564 B(  1-O ,  2-C ) :   1.1580 B(  2-C ,  3-O ) :   1.8922
B(  2-C ,  4-C ) :   1.0826 B(  4-C ,  5-N ) :   1.0100 B(  4-C , 23-C ) :   0.9418
B(  4-C , 24-O ) :  -0.1120 B(  5-N ,  6-C ) :   1.6820 B(  6-C ,  7-C ) :   0.8205
B(  6-C , 12-O ) :   0.1183 B(  6-C , 20-N ) :   1.0296 B(  7-C ,  8-C ) :   0.9256
B(  7-C ,  9-C ) :   0.9584 B(  7-C , 10-N ) :   0.7530 B(  8-C , 28-H ) :   0.9710
B(  8-C , 29-H ) :   0.9603 B(  8-C , 30-H ) :   0.9608 B(  9-C , 31-H ) :   0.9649
B(  9-C , 32-H ) :   0.9458 B(  9-C , 33-H ) :   0.9608 B( 10-N , 11-C ) :   1.2549
B( 10-N , 34-H ) :   0.8808 B( 11-C , 12-O ) :   1.7086 B( 11-C , 13-C ) :   0.8628
B( 13-C , 14-C ) :   0.9838 B( 13-C , 15-N ) :   0.9896 B( 13-C , 19-O ) :   0.7812
B( 14-C , 35-H ) :   0.9423 B( 14-C , 36-H ) :   0.9455 B( 14-C , 37-H ) :   0.9362
B( 15-N , 16-N ) :   1.5516 B( 16-N , 17-C ) :   1.3224 B( 17-C , 18-C ) :   0.8941
B( 17-C , 19-O ) :   1.1891 B( 18-C , 38-H ) :   0.9684 B( 18-C , 39-H ) :   0.9489
B( 18-C , 40-H ) :   0.9057 B( 20-N , 21-C ) :   0.9842 B( 20-N , 41-H ) :   0.8833
B( 21-C , 22-O ) :   2.0660 B( 21-C , 23-C ) :   0.8715 B( 23-C , 24-O ) :   1.9166

Dispersion correction           -0.019347377
FINAL SINGLE POINT ENERGY     -1268.594585625646

DIPOLE MOMENT
-------------
                                X             Y             Z
Electronic contribution:      4.66631       1.48455      12.40781
Nuclear contribution   :    -12.84607      -3.23465     -16.14282
                        -----------------------------------------
Total Dipole Moment    :     -8.17976      -1.75010      -3.73502
                        -----------------------------------------
Magnitude (a.u.)       :      9.16088
Magnitude (Debye)      :     23.28511

Rotational constants in cm-1:     0.014654     0.004061     0.003788
Rotational constants in MHz :   439.316611   121.741948   113.570835

                             ****ORCA TERMINATED NORMALLY****
TOTAL RUN TIME: 0 days 0 hours 5 minutes 5 seconds 906 msec
