   * xtb version 6.5.1 (579679a) compiled by 'ehlert@majestix' on 2022-07-11
          program call               : /lustre/hpc/kemi/ree/PhD/git/ReactivityQM/dep/xtb-6.5.1/bin/xtb --gfn 1 /lustre/hpc/kemi/ree/PhD/git/ReactivityQM/calculations/R02oxygendeprot/reac01prodN12/conf02/R02oxygendeprot_reac01prodN12_conf02_gfn1.xyz --opt --vfukui --chrg 0 --uhf 0 --alpb DMSO

   ID    Z sym.   atoms
    1    6 C      1, 3, 5, 7-10, 12, 14, 15, 18, 19, 22, 24
    2    8 O      2, 4, 13, 20, 23, 25
    3    7 N      6, 11, 16, 17, 21
    4    1 H      26-42

      * Solvation model:               ALPB
        Solvent                        DMSO
        Solvent mass                       7.8130E+01 g/mol
          :  Hamiltonian                  GFN1-xTB          :
 * total energy  :   -82.9292632 Eh     change       -0.2203322E-08 Eh
 * total energy  :   -82.9403150 Eh     change       -0.1105185E-01 Eh
 * total energy  :   -82.9445977 Eh     change       -0.4282688E-02 Eh
 * total energy  :   -82.9452994 Eh     change       -0.7017256E-03 Eh
 * total energy  :   -82.9457718 Eh     change       -0.4724115E-03 Eh
 * total energy  :   -82.9461125 Eh     change       -0.3406242E-03 Eh
 * total energy  :   -82.9464609 Eh     change       -0.3484757E-03 Eh
 * total energy  :   -82.9468810 Eh     change       -0.4200363E-03 Eh
 * total energy  :   -82.9473563 Eh     change       -0.4753342E-03 Eh
 * total energy  :   -82.9478251 Eh     change       -0.4688230E-03 Eh
 * total energy  :   -82.9550049 Eh     change       -0.1110169E-04 Eh
 * total energy  :   -82.9550121 Eh     change       -0.7156683E-05 Eh
 * total energy  :   -82.9550187 Eh     change       -0.6601326E-05 Eh
 * total energy  :   -82.9550286 Eh     change       -0.9869817E-05 Eh
 * total energy  :   -82.9550402 Eh     change       -0.1163354E-04 Eh
 * total energy  :   -82.9550477 Eh     change       -0.7506329E-05 Eh
 * total energy  :   -82.9550547 Eh     change       -0.7021498E-05 Eh
 * total energy  :   -82.9550618 Eh     change       -0.7085214E-05 Eh
 * total energy  :   -82.9550668 Eh     change       -0.4945745E-05 Eh
   *** GEOMETRY OPTIMIZATION CONVERGED AFTER 65 ITERATIONS ***

 final structure:
================
42
 xtb: 6.5.1 (579679a)
C            6.61942502239650        1.03190149248667        0.31199863217185
O            5.37044398169565        0.55222862137867        0.80661398727175
C            4.38683439915221        0.42793247321436       -0.09287369846936
O            4.54108743953768        0.71202708382883       -1.26608904886143
C            3.11608889948056       -0.08556337846090        0.46262404597355
N            2.14380867447884       -0.22223184245479       -0.47386687418749
C            0.97581815717865       -0.67906135282215       -0.15180288774932
C           -0.09101070030180       -0.86516117298528       -1.19911694716525
C            0.27040107442670       -0.11284690409419       -2.48011330958865
C           -0.30781232718501       -2.35655457620509       -1.46931363966700
N           -1.36194474406861       -0.33891066477423       -0.65693356011838
C           -1.40688832963589        0.87651864843875       -0.12288896872219
O           -0.46315089776075        1.60307196215876        0.08009874016560
C           -2.85752322416372        1.34909466094898        0.28923982912527
C           -3.18873017593320        2.60551983466081       -0.51384480439349
N           -2.84652875813469        1.55152869679182        1.69645316442257
N           -3.67068381094933        0.71518648412408        2.24311305664501
C           -4.24201780553191       -0.00480965272872        1.27957783710821
C           -5.25023591886792       -1.05690267279917        1.46164083039038
O           -3.80699115243222        0.32626258965607        0.08183655601607
N            0.67329601993418       -1.06880200613104        1.12131853250539
C            1.54047720082455       -0.95779376661307        2.18790669822382
O            1.18378441474754       -1.29216599474192        3.30456993467987
C            2.91190678221703       -0.40962708171750        1.84651223860257
O            3.74509266292337       -0.28271542453889        2.74606032167477
H            6.98695322209181        0.38138842267521       -0.48589435023470
H            7.31360364409607        1.02613846581231        1.15032060222679
H            6.50856958747953        2.04703223754831       -0.07823508102681
H           -0.53091016409418       -0.21836734787732       -3.20734511074775
H            0.42384813001492        0.94344051710273       -2.26268802533806
H            1.19018560563316       -0.52549321295938       -2.89227017139142
H            0.61355248014880       -2.79912377135214       -1.84468608134416
H           -0.60183932307793       -2.86785090931753       -0.55477800067671
H           -1.09090704317942       -2.48626589334474       -2.21315229203630
H           -2.20874683867467       -0.83241862968973       -0.87629782543822
H           -4.15684711575761        2.98489813211945       -0.19605378150947
H           -3.22586434037528        2.35550041032217       -1.57110366701726
H           -2.41634220940518        3.35080211519108       -0.33404467991677
H           -5.24068690967118       -1.41669458563851        2.48837340039780
H           -5.06890566769620       -1.87306401017104        0.76400809598500
H           -6.23841456861569       -0.64671270074775        1.23916468527904
H           -0.24219437294570       -1.44133429631562        1.31350061672777

          :  Hamiltonian                  GFN1-xTB          :
         :: total energy             -82.955066759069 Eh    ::
         :: gradient norm              0.000766493785 Eh/a0 ::
         :: HOMO-LUMO gap              0.134857178725 eV    ::
         :: SCC energy               -83.726132270637 Eh    ::
         :: -> Gsolv                  -0.090742458122 Eh    ::
         :: repulsion energy           0.798118946186 Eh    ::

    * Orbital Energies and Occupations

         #    Occupation            Energy/Eh            Energy/eV
      -------------------------------------------------------------
         1        2.0000           -0.8891734             -24.1956
       ...           ...                  ...                  ...
        55        2.0000           -0.5152248             -14.0200
        56        2.0000           -0.5082351             -13.8298
        57        2.0000           -0.5055189             -13.7559
        58        2.0000           -0.4944937             -13.4559
        59        2.0000           -0.4884223             -13.2906
        60        2.0000           -0.4867361             -13.2448
        61        2.0000           -0.4786684             -13.0252
        62        2.0000           -0.4770666             -12.9816
        63        2.0000           -0.4713191             -12.8252
        64        2.0000           -0.4672836             -12.7154
        65        2.0000           -0.4519536             -12.2983
        66        2.0000           -0.4155160             -11.3068
        67        1.8628           -0.4002884             -10.8924 (HOMO)
        68        0.1372           -0.3953325             -10.7575 (LUMO)
        69                         -0.3023061              -8.2262
        70                         -0.2899849              -7.8909
        71                         -0.2781823              -7.5697
        72                         -0.2750954              -7.4857
        73                         -0.2281310              -6.2078
        74                         -0.1571472              -4.2762
        75                         -0.1479921              -4.0271
        76                         -0.1427896              -3.8855
        77                         -0.1397568              -3.8030
        78                         -0.1326485              -3.6095
       ...                                ...                  ...
       134                          0.7448833              20.2693
      -------------------------------------------------------------
                  HL-Gap            0.0049559 Eh            0.1349 eV

Wiberg/Mayer (AO) data.
largest (>0.10) Wiberg bond orders for each atom

     #   Z sym  total        # sym  WBO       # sym  WBO       # sym  WBO
 ---------------------------------------------------------------------------
     1   6 C    3.881 --    27 H    0.986    28 H    0.980    26 H    0.979
                             2 O    0.907
     2   8 O    2.186 --     3 C    1.096     1 C    0.907     4 O    0.127
     3   6 C    3.841 --     4 O    1.622     2 O    1.096     5 C    1.040
     4   8 O    1.870 --     3 C    1.622     2 O    0.127
     5   6 C    3.759 --     6 N    1.267    24 C    1.187     3 C    1.040
     6   7 N    2.993 --     7 C    1.511     5 C    1.267
     7   6 C    3.865 --     6 N    1.511    21 N    1.154     8 C    0.988
     8   6 C    3.922 --     9 C    0.992     7 C    0.988    10 C    0.980
                            11 N    0.894
     9   6 C    3.988 --     8 C    0.992    29 H    0.986    31 H    0.982
                            30 H    0.982
    10   6 C    3.978 --    33 H    0.983    32 H    0.982    34 H    0.981
                             8 C    0.980
    11   7 N    3.359 --    12 C    1.320     8 C    0.894    35 H    0.884
                            13 O    0.173
    12   6 C    3.888 --    13 O    1.633    11 N    1.320    14 C    0.809
    13   8 O    1.981 --    12 C    1.633    11 N    0.173
    14   6 C    3.850 --    16 N    1.063    15 C    0.936    20 O    0.907
                            12 C    0.809
    15   6 C    3.939 --    37 H    0.982    36 H    0.979    38 H    0.979
                            14 C    0.936
    16   7 N    2.757 --    17 N    1.465    14 C    1.063
    17   7 N    2.968 --    16 N    1.465    18 C    1.354
    18   6 C    3.696 --    17 N    1.354    20 O    1.160    19 C    1.054
    19   6 C    3.972 --    18 C    1.054    39 H    0.974    40 H    0.960
                            41 H    0.931
    20   8 O    2.243 --    18 C    1.160    14 C    0.907
    21   7 N    3.441 --     7 C    1.154    22 C    1.127    42 H    0.890
                            23 O    0.121
    22   6 C    3.858 --    23 O    1.630    21 N    1.127    24 C    0.953
    23   8 O    1.882 --    22 C    1.630    21 N    0.121
    24   6 C    3.882 --    25 O    1.591     5 C    1.187    22 C    0.953
    25   8 O    1.790 --    24 C    1.591
    26   1 H    1.009 --     1 C    0.979
    27   1 H    1.012 --     1 C    0.986
    28   1 H    1.008 --     1 C    0.980
    29   1 H    1.000 --     9 C    0.986
    30   1 H    1.007 --     9 C    0.982
    31   1 H    1.007 --     9 C    0.982
    32   1 H    0.998 --    10 C    0.982
    33   1 H    0.998 --    10 C    0.983
    34   1 H    0.995 --    10 C    0.981
    35   1 H    0.928 --    11 N    0.884
    36   1 H    0.994 --    15 C    0.979
    37   1 H    0.995 --    15 C    0.982
    38   1 H    1.000 --    15 C    0.979
    39   1 H    0.993 --    19 C    0.974
    40   1 H    0.986 --    19 C    0.960
    41   1 H    0.977 --    19 C    0.931
    42   1 H    0.939 --    21 N    0.890
 ---------------------------------------------------------------------------

           -------------------------------------------------
          | TOTAL ENERGY              -82.955066759069 Eh   |
          | GRADIENT NORM               0.000766493785 Eh/α |
          | HOMO-LUMO GAP               0.134857178725 eV   |
           -------------------------------------------------

 * finished run on 2023/06/21 at 17:27:49.628
