   * xtb version 6.5.1 (579679a) compiled by 'ehlert@majestix' on 2022-07-11
          program call               : /lustre/hpc/kemi/ree/PhD/git/ReactivityQM/dep/xtb-6.5.1/bin/xtb --gfn 1 /lustre/hpc/kemi/ree/PhD/git/ReactivityQM/calculations/R02/reac01prodE13/conf03/R02_reac01prodE13_conf03_gfn1.xyz --opt --vfukui --chrg -1 --uhf 0 --alpb DMSO

   ID    Z sym.   atoms
    1    6 C      1, 3, 5, 6, 8, 10, 12-15, 17, 19, 22, 23
    2    8 O      2, 4, 7, 9, 18, 24
    3    7 N      11, 16, 20, 21, 25
    4    1 H      26-43

      * Solvation model:               ALPB
        Solvent                        DMSO
        Solvent mass                       7.8130E+01 g/mol
          :  Hamiltonian                  GFN1-xTB          :
 * total energy  :   -83.8264878 Eh     change       -0.5345129E-09 Eh
 * total energy  :   -83.8420650 Eh     change       -0.1557716E-01 Eh
 * total energy  :   -83.8480621 Eh     change       -0.5997116E-02 Eh
 * total energy  :   -83.8494867 Eh     change       -0.1424652E-02 Eh
 * total energy  :   -83.8506915 Eh     change       -0.1204796E-02 Eh
 * total energy  :   -83.8513787 Eh     change       -0.6872090E-03 Eh
 * total energy  :   -83.8519511 Eh     change       -0.5723880E-03 Eh
 * total energy  :   -83.8524449 Eh     change       -0.4938359E-03 Eh
 * total energy  :   -83.8528699 Eh     change       -0.4249667E-03 Eh
 * total energy  :   -83.8531822 Eh     change       -0.3122541E-03 Eh
 * total energy  :   -83.8554149 Eh     change       -0.1075420E-04 Eh
 * total energy  :   -83.8554258 Eh     change       -0.1096155E-04 Eh
 * total energy  :   -83.8554353 Eh     change       -0.9486232E-05 Eh
 * total energy  :   -83.8554432 Eh     change       -0.7880298E-05 Eh
 * total energy  :   -83.8554495 Eh     change       -0.6253945E-05 Eh
 * total energy  :   -83.8554552 Eh     change       -0.5752066E-05 Eh
 * total energy  :   -83.8554607 Eh     change       -0.5470277E-05 Eh
 * total energy  :   -83.8554657 Eh     change       -0.5050152E-05 Eh
 * total energy  :   -83.8554701 Eh     change       -0.4386359E-05 Eh
   *** GEOMETRY OPTIMIZATION CONVERGED AFTER 57 ITERATIONS ***

 final structure:
================
43
 xtb: 6.5.1 (579679a)
C           -5.67126881871656        1.35994895972891       -1.53338843171518
O           -4.31940050160622        1.00024560906054       -1.32515331669972
C           -4.05840602136238        0.37359232775926       -0.10408551356352
O           -5.01293201866026        0.22036216463422        0.71621732925834
C           -2.74739750442200       -0.02203057780295        0.10777013932688
C           -2.37456085725754       -0.73379874892670        1.33324681568242
O           -3.36705323380603       -1.03952765934588        2.22597565871895
C           -1.09428936248604       -1.09571675815891        1.52286192509532
O           -0.52601980965210       -1.80372343082356        2.56916130100268
C           -1.12270027418323       -1.68593919998456        3.85030839627623
N           -0.09912493854109       -0.70095878616184        0.57788161785065
C           -0.56645397609844       -0.21575482618413       -0.65422679421262
C            0.48227511160297       -0.10967256942961       -1.74909074111156
C            0.66529600446228       -1.48323433807047       -2.40511706552767
C            0.06210306669541        0.92719022269925       -2.79583137646566
N            1.77164654900618        0.26295496898941       -1.15777754125022
C            1.92103221878818        1.34398289464058       -0.35361002213785
O            1.07474515505007        2.21919149411132       -0.19124800185219
C            3.23159607588737        1.38630457475187        0.31866774296208
N            3.66612387159669        2.28364233180611        1.16151171377983
N            4.91609163548074        1.88813899354873        1.54624418141606
C            5.16955673844967        0.78285287610078        0.92234468621255
C            6.39518141149891       -0.04300916363033        1.00380418339745
O            4.15055531724082        0.40338802193568        0.12827843285294
N           -1.76502213002968        0.14939947184353       -0.87877145131779
H           -6.32570551044267        0.47985198995808       -1.50742210634013
H           -5.73388932999791        1.82536055546317       -2.51861446308963
H           -6.01785013400116        2.07201148283876       -0.77395875442080
H           -4.20496077533878       -0.62225899881181        1.83847843404080
H           -0.40401154125987       -2.08659171528700        4.56880863362784
H           -2.05171049615582       -2.26462935800070        3.91576675536892
H           -1.33718745110734       -0.63969229519913        4.10135467469070
H            0.68606284373979       -1.33263460756387        0.52938601560383
H            1.42522250966302       -1.43364366954199       -3.18314147743432
H            0.97077335722393       -2.21937646924518       -1.66309080817873
H           -0.27514154069747       -1.80467292201690       -2.85062599780146
H           -0.06099892831930        1.90572216433948       -2.33222514501936
H           -0.88823961706661        0.62643405645033       -3.23582674548695
H            0.81606965053318        0.99338855970227       -3.57792525841454
H            2.51942484943296       -0.40545803094130       -1.20763408065532
H            7.09852167271058        0.41314295924960        1.69579583111990
H            6.85519452019130       -0.12723273947657        0.01990108920642
H            6.14685121196028       -1.04754881501859        1.34500153521189

          :  Hamiltonian                  GFN1-xTB          :
         :: total energy             -83.855470121393 Eh    ::
         :: gradient norm              0.000389288047 Eh/a0 ::
         :: HOMO-LUMO gap              0.162518368926 eV    ::
         :: SCC energy               -84.609462159648 Eh    ::
         :: -> Gsolv                  -0.123956375958 Eh    ::
         :: repulsion energy           0.779872820894 Eh    ::

    * Orbital Energies and Occupations

         #    Occupation            Energy/Eh            Energy/eV
      -------------------------------------------------------------
         1        2.0000           -0.8469003             -23.0453
       ...           ...                  ...                  ...
        56        2.0000           -0.4644336             -12.6379
        57        2.0000           -0.4614001             -12.5553
        58        2.0000           -0.4552971             -12.3893
        59        2.0000           -0.4456347             -12.1263
        60        2.0000           -0.4421025             -12.0302
        61        2.0000           -0.4405042             -11.9867
        62        2.0000           -0.4341364             -11.8135
        63        2.0000           -0.4272090             -11.6249
        64        2.0000           -0.4226886             -11.5019
        65        2.0000           -0.4047040             -11.0126
        66        2.0000           -0.3858878             -10.5005
        67        2.0000           -0.3790671             -10.3149
        68        1.9173           -0.2993422              -8.1455 (HOMO)
        69        0.0827           -0.2933698              -7.9830 (LUMO)
        70                         -0.2425519              -6.6002
        71                         -0.2231952              -6.0735
        72                         -0.1861448              -5.0653
        73                         -0.1778762              -4.8403
        74                         -0.1364145              -3.7120
        75                         -0.1203573              -3.2751
        76                         -0.1161920              -3.1617
        77                         -0.1111638              -3.0249
        78                         -0.1083920              -2.9495
        79                         -0.0953325              -2.5941
       ...                                ...                  ...
       136                          0.7238056              19.6958
      -------------------------------------------------------------
                  HL-Gap            0.0059724 Eh            0.1625 eV

Wiberg/Mayer (AO) data.
largest (>0.10) Wiberg bond orders for each atom

     #   Z sym  total        # sym  WBO       # sym  WBO       # sym  WBO
 ---------------------------------------------------------------------------
     1   6 C    3.915 --    27 H    0.987    26 H    0.981    28 H    0.981
                             2 O    0.945
     2   8 O    2.069 --     3 C    0.953     1 C    0.945
     3   6 C    3.844 --     5 C    1.383     4 O    1.356     2 O    0.953
     4   8 O    1.787 --     3 C    1.356    29 H    0.126     5 C    0.108
     5   6 C    3.824 --     3 C    1.383    25 N    1.079     6 C    1.071
                             4 O    0.108
     6   6 C    3.898 --     8 C    1.624     5 C    1.071     7 O    1.034
     7   8 O    1.973 --     6 C    1.034    29 H    0.744
     8   6 C    3.803 --     6 C    1.624    11 N    0.980     9 O    0.965
     9   8 O    2.054 --     8 C    0.965    10 C    0.932
    10   6 C    3.907 --    30 H    0.985    32 H    0.982    31 H    0.981
                             9 O    0.932
    11   7 N    3.204 --    12 C    1.052     8 C    0.980    33 H    0.915
                            25 N    0.103
    12   6 C    3.936 --    25 N    1.707    11 N    1.052    13 C    0.968
    13   6 C    3.934 --    15 C    0.993    14 C    0.989    12 C    0.968
                            16 N    0.921
    14   6 C    3.992 --    13 C    0.989    36 H    0.985    34 H    0.985
                            35 H    0.984
    15   6 C    3.993 --    13 C    0.993    39 H    0.988    38 H    0.984
                            37 H    0.981
    16   7 N    3.315 --    17 C    1.229    13 C    0.921    40 H    0.902
                            18 O    0.163
    17   6 C    3.889 --    18 O    1.543    16 N    1.229    19 C    1.020
    18   8 O    1.838 --    17 C    1.543    16 N    0.163
    19   6 C    3.822 --    20 N    1.571    24 O    1.027    17 C    1.020
    20   7 N    2.926 --    19 C    1.571    21 N    1.189
    21   7 N    2.980 --    22 C    1.622    20 N    1.189
    22   6 C    3.854 --    21 N    1.622    24 O    1.064    23 C    1.029
    23   6 C    3.989 --    22 C    1.029    41 H    0.984    43 H    0.966
                            42 H    0.965
    24   8 O    2.280 --    22 C    1.064    19 C    1.027
    25   7 N    3.025 --    12 C    1.707     5 C    1.079    11 N    0.103
    26   1 H    1.018 --     1 C    0.981
    27   1 H    1.019 --     1 C    0.987
    28   1 H    1.019 --     1 C    0.981
    29   1 H    0.883 --     7 O    0.744     4 O    0.126
    30   1 H    1.018 --    10 C    0.985
    31   1 H    1.024 --    10 C    0.981
    32   1 H    1.013 --    10 C    0.982
    33   1 H    0.961 --    11 N    0.915
    34   1 H    1.000 --    14 C    0.985
    35   1 H    1.001 --    14 C    0.984
    36   1 H    1.005 --    14 C    0.985
    37   1 H    1.019 --    15 C    0.981
    38   1 H    1.017 --    15 C    0.984
    39   1 H    1.005 --    15 C    0.988
    40   1 H    0.945 --    16 N    0.902
    41   1 H    1.000 --    23 C    0.984
    42   1 H    0.998 --    23 C    0.965
    43   1 H    0.998 --    23 C    0.966
 ---------------------------------------------------------------------------

           -------------------------------------------------
          | TOTAL ENERGY              -83.855470121393 Eh   |
          | GRADIENT NORM               0.000389288047 Eh/α |
          | HOMO-LUMO GAP               0.162518368926 eV   |
           -------------------------------------------------

 * finished run on 2023/06/20 at 15:16:01.041
