   * xtb version 6.5.1 (579679a) compiled by 'ehlert@majestix' on 2022-07-11
          program call               : /lustre/hpc/kemi/ree/PhD/git/ReactivityQM/dep/xtb-6.5.1/bin/xtb --gfn 1 /lustre/hpc/kemi/ree/PhD/git/ReactivityQM/calculations/RaltegravirCLI/reac02prodE11/conf16/RaltegravirCLI_reac02prodE11_conf16_gfn1.xyz --opt --vfukui --chrg -1 --uhf 0 --alpb DMSO

   ID    Z sym.   atoms
    1    6 C      1, 3-6, 9, 10, 13-17, 19-21, 23, 24
    2    7 N      2, 7, 8, 12
    3    8 O      11, 22, 25
    4    9 F      18
    5    1 H      26-47

      * Solvation model:               ALPB
        Solvent                        DMSO
        Solvent mass                       7.8130E+01 g/mol
          :  Hamiltonian                  GFN1-xTB          :
 * total energy  :   -80.1878846 Eh     change       -0.2043521E-10 Eh
 * total energy  :   -80.1972802 Eh     change       -0.9395622E-02 Eh
 * total energy  :   -80.2006016 Eh     change       -0.3321443E-02 Eh
 * total energy  :   -80.2011967 Eh     change       -0.5950487E-03 Eh
 * total energy  :   -80.2016349 Eh     change       -0.4382582E-03 Eh
 * total energy  :   -80.2018019 Eh     change       -0.1669081E-03 Eh
 * total energy  :   -80.2019475 Eh     change       -0.1456056E-03 Eh
 * total energy  :   -80.2020385 Eh     change       -0.9104281E-04 Eh
 * total energy  :   -80.2021232 Eh     change       -0.8473673E-04 Eh
 * total energy  :   -80.2022141 Eh     change       -0.9090929E-04 Eh
 * total energy  :   -80.2031607 Eh     change       -0.8050719E-05 Eh
 * total energy  :   -80.2031713 Eh     change       -0.1060822E-04 Eh
 * total energy  :   -80.2031854 Eh     change       -0.1409836E-04 Eh
 * total energy  :   -80.2032003 Eh     change       -0.1491445E-04 Eh
 * total energy  :   -80.2032120 Eh     change       -0.1172423E-04 Eh
 * total energy  :   -80.2032214 Eh     change       -0.9437921E-05 Eh
 * total energy  :   -80.2032282 Eh     change       -0.6717377E-05 Eh
 * total energy  :   -80.2032332 Eh     change       -0.5073246E-05 Eh
 * total energy  :   -80.2032359 Eh     change       -0.2703633E-05 Eh
   *** GEOMETRY OPTIMIZATION CONVERGED AFTER 44 ITERATIONS ***

 final structure:
================
47
 xtb: 6.5.1 (579679a)
C           -3.41354503349471        0.21129311961653       -2.03531073470729
N           -2.34920931242792       -0.39304100554949       -1.25510536509523
C           -1.78382900868948        0.15479171967103       -0.16293427513876
C           -2.36251690008529        1.38374184797508        0.56216578441862
C           -3.65223325335684        0.97149253154067        1.29924239470090
C           -2.61108805170611        2.60732914257925       -0.33213741287975
N           -1.37146509974941        1.81127411974455        1.55449368519584
N           -0.71199197884211       -0.33436628669092        0.39222467654581
C           -0.04956984893715       -1.40817818387432       -0.22430487673170
C            1.30955480007058       -1.66498328438857        0.24710381855911
O            2.05854271364949       -2.53234423474428       -0.23855629598248
N            1.69694436207557       -0.90109229336718        1.29976289788545
C            3.06280300981340       -0.91518884336222        1.79017927597858
C            3.92757460733414        0.03692456820130        0.98909666117833
C            4.45936066111325       -0.36640871730348       -0.23469094072569
C            5.22733191300796        0.50548163085926       -0.99301001425717
C            5.44724944289570        1.78052024133599       -0.50341521508541
F            6.19187224454024        2.63236023547144       -1.23262058569343
C            4.93672777486758        2.21475306865511        0.70565312811790
C            4.17010756477075        1.32810232433948        1.45060311564513
C           -0.62513716767391       -2.14915347323069       -1.20437078981393
O            0.01128667645295       -3.16926719809678       -1.81364850446873
C           -2.10528325056451       -1.94029590551581       -1.62523927971426
C           -2.97572895086746       -2.71029532345133       -0.56297090391785
O           -2.40366286518846       -2.18856379913190       -2.84869789575649
H           -4.29973756914758        0.42723230219058       -1.43415724552048
H           -3.69663535179552       -0.49792477044443       -2.82134061278234
H           -3.07277107987340        1.12947479730526       -2.51981424917961
H           -3.43488970485356        0.15871156481102        1.99187478604895
H           -4.03670848488668        1.81789826972051        1.86710176481399
H           -4.42404519333133        0.64299686561504        0.60519227317356
H           -2.66955458884713        3.49525718168298        0.29786485313993
H           -1.78777497846056        2.74237610881736       -1.03430302260524
H           -3.54711650406136        2.53331229203452       -0.88010847439429
H           -1.79295276478692        2.50263608268939        2.15917088203693
H           -1.11898725391537        1.01515017127072        2.13232905294058
H            1.09904471984652       -0.12818643438544        1.56464075859164
H            3.05338529065567       -0.62722560418093        2.84428382967920
H            3.44575100157341       -1.93754190639257        1.70208709358335
H            4.27173489936139       -1.37199285338767       -0.59570373626259
H            5.65298740634131        0.20608000985556       -1.94206442128968
H            5.13715593774464        3.21860569733386        1.05578175412089
H            3.76499876984088        1.64711641160449        2.40386679925836
H            0.91986996770564       -3.24519135374865       -1.43491791349551
H           -2.72954036201837       -2.40774000235902        0.45269539255380
H           -2.79105183189828       -3.77738963833117       -0.67990792656490
H           -4.02726037420501       -2.50854019298124       -0.75808398610755

          :  Hamiltonian                  GFN1-xTB          :
         :: total energy             -80.203235941074 Eh    ::
         :: gradient norm              0.000377437861 Eh/a0 ::
         :: HOMO-LUMO gap              1.830920373591 eV    ::
         :: SCC energy               -81.060264235833 Eh    ::
         :: -> Gsolv                  -0.113129966521 Eh    ::
         :: repulsion energy           0.888213681724 Eh    ::

    * Orbital Energies and Occupations

         #    Occupation            Energy/Eh            Energy/eV
      -------------------------------------------------------------
         1        2.0000           -0.8591931             -23.3798
       ...           ...                  ...                  ...
        56        2.0000           -0.4556917             -12.4000
        57        2.0000           -0.4530312             -12.3276
        58        2.0000           -0.4451099             -12.1121
        59        2.0000           -0.4425359             -12.0420
        60        2.0000           -0.4325678             -11.7708
        61        2.0000           -0.4192684             -11.4089
        62        2.0000           -0.4151784             -11.2976
        63        2.0000           -0.3984138             -10.8414
        64        2.0000           -0.3854818             -10.4895
        65        2.0000           -0.3814285             -10.3792
        66        2.0000           -0.3622052              -9.8561
        67        2.0000           -0.3480247              -9.4702
        68        2.0000           -0.3343844              -9.0991 (HOMO)
        69                         -0.2670993              -7.2681 (LUMO)
        70                         -0.2605149              -7.0890
        71                         -0.2488395              -6.7713
        72                         -0.2093658              -5.6971
        73                         -0.1392623              -3.7895
        74                         -0.1258396              -3.4243
        75                         -0.1175917              -3.1998
        76                         -0.1114778              -3.0335
        77                         -0.1084198              -2.9503
        78                         -0.0988344              -2.6894
        79                         -0.0975179              -2.6536
       ...                                ...                  ...
       144                          0.7061625              19.2157
      -------------------------------------------------------------
                  HL-Gap            0.0672851 Eh            1.8309 eV

Wiberg/Mayer (AO) data.
largest (>0.10) Wiberg bond orders for each atom

     #   Z sym  total        # sym  WBO       # sym  WBO       # sym  WBO
 ---------------------------------------------------------------------------
     1   6 C    3.964 --    28 H    0.982    26 H    0.976     2 N    0.969
                            27 H    0.968
     2   7 N    3.337 --     3 C    1.274     1 C    0.969    23 C    0.723
                             8 N    0.169
     3   6 C    3.947 --     8 N    1.537     2 N    1.274     4 C    0.962
     4   6 C    3.966 --     6 C    0.994     7 N    0.986     5 C    0.979
                             3 C    0.962
     5   6 C    3.995 --    29 H    0.985    30 H    0.985     4 C    0.979
                            31 H    0.979
     6   6 C    3.996 --     4 C    0.994    33 H    0.986    32 H    0.984
                            34 H    0.983
     7   7 N    2.955 --     4 C    0.986    35 H    0.953    36 H    0.942
     8   7 N    2.998 --     3 C    1.537     9 C    1.071     2 N    0.169
     9   6 C    3.947 --    21 C    1.574    10 C    1.078     8 N    1.071
    10   6 C    3.894 --    11 O    1.480    12 N    1.222     9 C    1.078
    11   8 O    1.867 --    10 C    1.480    12 N    0.133
    12   7 N    3.311 --    10 C    1.222    13 C    0.952    37 H    0.896
                            11 O    0.133
    13   6 C    3.960 --    14 C    0.992    38 H    0.978    39 H    0.971
                            12 N    0.952
    14   6 C    3.986 --    20 C    1.422    15 C    1.415    13 C    0.992
    15   6 C    3.992 --    16 C    1.446    14 C    1.415    40 H    0.968
                            19 C    0.111
    16   6 C    3.992 --    15 C    1.446    17 C    1.400    41 H    0.970
                            20 C    0.110
    17   6 C    3.858 --    19 C    1.404    16 C    1.400    18 F    0.918
    18   9 F    1.044 --    17 C    0.918
    19   6 C    3.992 --    20 C    1.439    17 C    1.404    42 H    0.970
                            15 C    0.111
    20   6 C    3.994 --    19 C    1.439    14 C    1.422    43 H    0.972
                            16 C    0.110
    21   6 C    3.878 --     9 C    1.574    22 O    1.093    23 C    0.911
    22   8 O    2.063 --    21 C    1.093    44 H    0.794
    23   6 C    3.924 --    25 O    1.283    24 C    0.921    21 C    0.911
                             2 N    0.723
    24   6 C    3.989 --    45 H    0.990    47 H    0.986    46 H    0.986
                            23 C    0.921
    25   8 O    1.573 --    23 C    1.283
    26   1 H    1.012 --     1 C    0.976
    27   1 H    1.028 --     1 C    0.968
    28   1 H    1.015 --     1 C    0.982
    29   1 H    1.008 --     5 C    0.985
    30   1 H    1.005 --     5 C    0.985
    31   1 H    1.007 --     5 C    0.979
    32   1 H    1.006 --     6 C    0.984
    33   1 H    1.009 --     6 C    0.986
    34   1 H    1.009 --     6 C    0.983
    35   1 H    0.969 --     7 N    0.953
    36   1 H    0.990 --     7 N    0.942
    37   1 H    0.979 --    12 N    0.896
    38   1 H    1.005 --    13 C    0.978
    39   1 H    1.013 --    13 C    0.971
    40   1 H    1.014 --    15 C    0.968
    41   1 H    0.999 --    16 C    0.970
    42   1 H    0.999 --    19 C    0.970
    43   1 H    1.000 --    20 C    0.972
    44   1 H    0.884 --    22 O    0.794
    45   1 H    1.011 --    24 C    0.990
    46   1 H    1.014 --    24 C    0.986
    47   1 H    1.014 --    24 C    0.986
 ---------------------------------------------------------------------------

           -------------------------------------------------
          | TOTAL ENERGY              -80.203235941074 Eh   |
          | GRADIENT NORM               0.000377437861 Eh/α |
          | HOMO-LUMO GAP               1.830920373591 eV   |
           -------------------------------------------------

 * finished run on 2023/06/20 at 15:13:15.618
