   * xtb version 6.5.1 (579679a) compiled by 'ehlert@majestix' on 2022-07-11
          program call               : /lustre/hpc/kemi/ree/PhD/git/ReactivityQM/dep/xtb-6.5.1/bin/xtb --gfn 1 /lustre/hpc/kemi/ree/PhD/git/ReactivityQM/calculations/R01/reac02prodN02/conf02/R01_reac02prodN02_conf02_gfn1.xyz --opt --vfukui --chrg 1 --uhf 0 --alpb DMSO

   ID    Z sym.   atoms
    1    6 C      1, 3-6, 8, 9, 12, 13, 15
    2    7 N      2, 7, 17
    3    8 O      10, 11, 14, 16
    4    1 H      18-33

      * Solvation model:               ALPB
        Solvent                        DMSO
        Solvent mass                       7.8130E+01 g/mol
          :  Hamiltonian                  GFN1-xTB          :
 * total energy  :   -57.8596242 Eh     change       -0.4277467E-11 Eh
 * total energy  :   -57.8696267 Eh     change       -0.1000248E-01 Eh
 * total energy  :   -57.8726039 Eh     change       -0.2977168E-02 Eh
 * total energy  :   -57.8730041 Eh     change       -0.4002124E-03 Eh
 * total energy  :   -57.8732282 Eh     change       -0.2240984E-03 Eh
 * total energy  :   -57.8733251 Eh     change       -0.9694120E-04 Eh
 * total energy  :   -57.8734148 Eh     change       -0.8966647E-04 Eh
 * total energy  :   -57.8734813 Eh     change       -0.6649036E-04 Eh
 * total energy  :   -57.8735446 Eh     change       -0.6329158E-04 Eh
 * total energy  :   -57.8735984 Eh     change       -0.5379564E-04 Eh
 * total energy  :   -57.8737122 Eh     change       -0.2099907E-04 Eh
 * total energy  :   -57.8737255 Eh     change       -0.1331785E-04 Eh
 * total energy  :   -57.8737322 Eh     change       -0.6738180E-05 Eh
 * total energy  :   -57.8737427 Eh     change       -0.1044959E-04 Eh
 * total energy  :   -57.8737495 Eh     change       -0.6863696E-05 Eh
 * total energy  :   -57.8737626 Eh     change       -0.1307437E-04 Eh
 * total energy  :   -57.8737752 Eh     change       -0.1257561E-04 Eh
 * total energy  :   -57.8737804 Eh     change       -0.5229828E-05 Eh
 * total energy  :   -57.8737847 Eh     change       -0.4241650E-05 Eh
   *** GEOMETRY OPTIMIZATION CONVERGED AFTER 23 ITERATIONS ***

 final structure:
================
33
 xtb: 6.5.1 (579679a)
C           -2.12119472092999        1.75265423111789       -1.02242330593909
N           -2.08640581958454        0.28855030208964       -1.25355903754411
C           -2.02542380010745       -0.56998954181423       -0.01826325106967
C           -3.08422032279575       -0.13613496795896        0.98985279562590
C           -2.25896460492298       -2.01175831244509       -0.48274064638504
C           -0.60656563785010       -0.43481089880876        0.48518412794278
N            0.29047831791167       -0.03950017125612       -0.34966131723187
C            1.60647165707586        0.04547892390143        0.04816393367194
C            2.50142620333409        0.51133361476957       -1.04888605473594
O            2.10092201615715        0.82772095937355       -2.14258311717417
O            3.79011865565941        0.54006166152493       -0.70064821751821
C            4.70951041438312        0.96822843195304       -1.72064906154932
C            1.97930897984455       -0.27988145580329        1.32686822631868
O            3.21609787464740       -0.22099465613170        1.81645087142385
C            0.96966259913571       -0.74360262498002        2.29277068510658
O            1.17654604479703       -1.06551806858321        3.44373739265623
N           -0.31253070155835       -0.79382628012719        1.75957307739850
H           -2.02051230178963        2.23605626584534       -1.99110088663191
H           -1.28790321975770        2.01883694891570       -0.37702470024348
H           -3.06897414238524        2.02081434331647       -0.56633520149457
H           -2.88827633973569        0.01989238297444       -1.81542290449452
H           -1.22725645310108        0.08259439573574       -1.77852416376960
H           -4.05122798384709       -0.05357486627729        0.49713516977866
H           -3.16374057143874       -0.88930372380804        1.77202010731796
H           -2.82831552412310        0.81739855921790        1.44708403221427
H           -1.53895914130465       -2.27939860501345       -1.25455144735233
H           -3.26752962745487       -2.11648499571579       -0.87797950086898
H           -2.13860219765192       -2.68642354675644        0.36309581610485
H            4.46078931747830        1.98282422487936       -2.03715701088251
H            4.64918293818765        0.29250321088339       -2.57585974700724
H            5.70193986383835        0.93712008536555       -1.27796273843123
H            3.86509682974418        0.08920720305638        1.15946600506473
H           -1.04094660185809       -1.11007202944068        2.38175906969883

          :  Hamiltonian                  GFN1-xTB          :
         :: total energy             -57.873784654086 Eh    ::
         :: gradient norm              0.000681883428 Eh/a0 ::
         :: HOMO-LUMO gap              2.964965940054 eV    ::
         :: SCC energy               -58.455385343513 Eh    ::
         :: -> Gsolv                  -0.118983608009 Eh    ::
         :: repulsion energy           0.600938711430 Eh    ::

    * Orbital Energies and Occupations

         #    Occupation            Energy/Eh            Energy/eV
      -------------------------------------------------------------
         1        2.0000           -0.8853105             -24.0905
       ...           ...                  ...                  ...
        35        2.0000           -0.5594063             -15.2222
        36        2.0000           -0.5522281             -15.0269
        37        2.0000           -0.5480067             -14.9120
        38        2.0000           -0.5450651             -14.8320
        39        2.0000           -0.5330846             -14.5060
        40        2.0000           -0.5304194             -14.4334
        41        2.0000           -0.5231280             -14.2350
        42        2.0000           -0.5084062             -13.8344
        43        2.0000           -0.5049309             -13.7399
        44        2.0000           -0.4989910             -13.5782
        45        2.0000           -0.4811905             -13.0939
        46        2.0000           -0.4700964             -12.7920
        47        2.0000           -0.4486246             -12.2077 (HOMO)
        48                         -0.3396641              -9.2427 (LUMO)
        49                         -0.3062388              -8.3332
        50                         -0.2552737              -6.9464
        51                         -0.1806529              -4.9158
        52                         -0.1764058              -4.8002
        53                         -0.1700132              -4.6263
        54                         -0.1634877              -4.4487
        55                         -0.1447051              -3.9376
        56                         -0.1417914              -3.8583
        57                         -0.1366234              -3.7177
        58                         -0.1199819              -3.2649
       ...                                ...                  ...
       100                          0.7271253              19.7861
      -------------------------------------------------------------
                  HL-Gap            0.1089605 Eh            2.9650 eV

Wiberg/Mayer (AO) data.
largest (>0.10) Wiberg bond orders for each atom

     #   Z sym  total        # sym  WBO       # sym  WBO       # sym  WBO
 ---------------------------------------------------------------------------
     1   6 C    3.896 --    20 H    0.984    19 H    0.983    18 H    0.980
                             2 N    0.919
     2   7 N    3.602 --     1 C    0.919    21 H    0.891     3 C    0.889
                            22 H    0.872
     3   6 C    3.907 --     4 C    0.999     6 C    0.984     5 C    0.981
                             2 N    0.889
     4   6 C    3.983 --     3 C    0.999    25 H    0.981    23 H    0.979
                            24 H    0.975
     5   6 C    3.980 --     3 C    0.981    26 H    0.981    27 H    0.979
                            28 H    0.978
     6   6 C    3.943 --     7 N    1.585    17 N    1.189     3 C    0.984
     7   7 N    3.055 --     6 C    1.585     8 C    1.159
     8   6 C    3.957 --    13 C    1.504     7 N    1.159     9 C    1.002
     9   6 C    3.852 --    10 O    1.671    11 O    1.101     8 C    1.002
    10   8 O    1.934 --     9 C    1.671    11 O    0.133
    11   8 O    2.210 --     9 C    1.101    12 C    0.878    10 O    0.133
    12   6 C    3.854 --    31 H    0.986    29 H    0.980    30 H    0.979
                            11 O    0.878
    13   6 C    3.920 --     8 C    1.504    14 O    1.126    15 C    1.047
    14   8 O    2.104 --    13 C    1.126    32 H    0.794
    15   6 C    3.904 --    16 O    1.629    17 N    1.100    13 C    1.047
    16   8 O    1.923 --    15 C    1.629    17 N    0.132
    17   7 N    3.461 --     6 C    1.189    15 C    1.100    33 H    0.879
                            16 O    0.132
    18   1 H    0.989 --     1 C    0.980
    19   1 H    0.999 --     1 C    0.983
    20   1 H    0.994 --     1 C    0.984
    21   1 H    0.917 --     2 N    0.891
    22   1 H    0.947 --     2 N    0.872
    23   1 H    0.992 --     4 C    0.979
    24   1 H    0.994 --     4 C    0.975
    25   1 H    0.996 --     4 C    0.981
    26   1 H    0.994 --     5 C    0.981
    27   1 H    0.992 --     5 C    0.979
    28   1 H    0.995 --     5 C    0.978
    29   1 H    1.005 --    12 C    0.980
    30   1 H    1.005 --    12 C    0.979
    31   1 H    1.008 --    12 C    0.986
    32   1 H    0.846 --    14 O    0.794
    33   1 H    0.921 --    17 N    0.879
 ---------------------------------------------------------------------------

           -------------------------------------------------
          | TOTAL ENERGY              -57.873784654086 Eh   |
          | GRADIENT NORM               0.000681883428 Eh/α |
          | HOMO-LUMO GAP               2.964965940054 eV   |
           -------------------------------------------------

 * finished run on 2023/06/20 at 15:03:38.254
