   * xtb version 6.5.1 (579679a) compiled by 'ehlert@majestix' on 2022-07-11
          program call               : /lustre/hpc/kemi/ree/PhD/git/ReactivityQM/dep/xtb-6.5.1/bin/xtb --gfn 1 /lustre/hpc/kemi/ree/PhD/git/ReactivityQM/calculations/R02oxygendeprot/reac01prodN04/conf16/R02oxygendeprot_reac01prodN04_conf16_gfn1.xyz --opt --vfukui --chrg 0 --uhf 0 --alpb DMSO

   ID    Z sym.   atoms
    1    6 C      1, 3, 5, 6, 8-11, 13, 15, 18, 19, 22, 24
    2    8 O      2, 4, 14, 20, 23, 25
    3    7 N      7, 12, 16, 17, 21
    4    1 H      26-42

      * Solvation model:               ALPB
        Solvent                        DMSO
        Solvent mass                       7.8130E+01 g/mol
          :  Hamiltonian                  GFN1-xTB          :
 * total energy  :   -82.9665491 Eh     change       -0.9336532E-11 Eh
 * total energy  :   -82.9834801 Eh     change       -0.1693105E-01 Eh
 * total energy  :   -82.9893197 Eh     change       -0.5839529E-02 Eh
 * total energy  :   -82.9906365 Eh     change       -0.1316882E-02 Eh
 * total energy  :   -82.9912168 Eh     change       -0.5802826E-03 Eh
 * total energy  :   -82.9914717 Eh     change       -0.2549244E-03 Eh
 * total energy  :   -82.9916963 Eh     change       -0.2245287E-03 Eh
 * total energy  :   -82.9918751 Eh     change       -0.1788007E-03 Eh
 * total energy  :   -82.9920204 Eh     change       -0.1453155E-03 Eh
 * total energy  :   -82.9921593 Eh     change       -0.1389410E-03 Eh
 * total energy  :   -82.9935502 Eh     change       -0.1728797E-04 Eh
 * total energy  :   -82.9935708 Eh     change       -0.2055260E-04 Eh
 * total energy  :   -82.9935876 Eh     change       -0.1676541E-04 Eh
 * total energy  :   -82.9935997 Eh     change       -0.1216036E-04 Eh
 * total energy  :   -82.9936102 Eh     change       -0.1043751E-04 Eh
 * total energy  :   -82.9936223 Eh     change       -0.1216451E-04 Eh
 * total energy  :   -82.9936293 Eh     change       -0.6997549E-05 Eh
 * total energy  :   -82.9936362 Eh     change       -0.6909978E-05 Eh
 * total energy  :   -82.9936407 Eh     change       -0.4438420E-05 Eh
   *** GEOMETRY OPTIMIZATION CONVERGED AFTER 39 ITERATIONS ***

 final structure:
================
42
 xtb: 6.5.1 (579679a)
C           -3.60005970925255       -0.62975196732416       -1.82666450235252
O           -4.34949144589630        0.37994931256086       -1.15368868996494
C           -3.93850330703770        1.07596651990810       -0.10824688036600
O           -4.82167555284416        1.95483812780270        0.31584583296291
C           -6.07775281521225        2.07101728784472       -0.35570741667019
C           -2.71485964561428        0.97026963605563        0.56138168969595
N           -1.80669754522389        0.02368134857048        0.09296113314706
C           -0.67604616613062       -0.13264302512609        0.66921257089550
C            0.30736891844964       -1.18489950538873        0.20097707027573
C           -0.03768786141537       -1.67194977025732       -1.20773269398894
C            0.28187301693797       -2.34761757710668        1.20465210416643
N            1.63223437845205       -0.55258586420579        0.19193875731041
C            2.77051249702183       -1.21790213030875       -0.11007714251034
O            2.87000312129309       -2.41809812274207       -0.28412481804618
C            3.92036080526234       -0.27969599077922       -0.18209340744877
N            3.87208198942442        1.00809810708195       -0.01723385775142
N            5.14445593827865        1.47141250486201       -0.16891898218046
C            5.88765138138910        0.43569076995651       -0.41758932383248
C            7.34685947401711        0.40565826482063       -0.66002290392515
O            5.17237164815428       -0.69856549928875       -0.43966348352665
N           -0.29370994322555        0.59999773352438        1.77176032210089
C           -1.05840067094898        1.58069730678207        2.34638446280536
O           -0.65669210378950        2.20214208573057        3.31256698695708
C           -2.41306219837224        1.81391034210348        1.69497325982032
O           -3.15140216289520        2.67637440673533        2.15674532784168
H           -3.36597095510969       -1.45180737753663       -1.14850606398214
H           -4.24189680047514       -0.98237861582300       -2.63474682490710
H           -2.67619976691571       -0.21634588920283       -2.23445864289076
H           -6.61703786112750        1.12234629443802       -0.31743678213866
H           -5.92425559049781        2.36109829115793       -1.39704448577272
H           -6.63309374231299        2.84307539509962        0.17427572340583
H           -0.04572943540503       -0.83398690725852       -1.90292576088672
H           -1.02141203087182       -2.13717502331329       -1.19983290767319
H            0.69754593818912       -2.40425331143597       -1.53644983668074
H            0.61018980709123       -2.00505466484962        2.18433250118004
H           -0.73538470601635       -2.72792666683321        1.28372687921303
H            0.93495790886737       -3.15102657465273        0.87024586174241
H            1.67177531693103        0.45606989920648        0.17481406545208
H            7.54916839089222        0.02890008833557       -1.66318681877195
H            7.75654098852439        1.40820023186669       -0.55830400857594
H            7.82828054732372       -0.26268579134945        0.05458955673983
H            0.60278695009051        0.41695632033583        2.19648312913705

          :  Hamiltonian                  GFN1-xTB          :
         :: total energy             -82.993640668090 Eh    ::
         :: gradient norm              0.000997589525 Eh/a0 ::
         :: HOMO-LUMO gap              2.392469118526 eV    ::
         :: SCC energy               -83.772891812820 Eh    ::
         :: -> Gsolv                  -0.060712526178 Eh    ::
         :: repulsion energy           0.805075933002 Eh    ::

    * Orbital Energies and Occupations

         #    Occupation            Energy/Eh            Energy/eV
      -------------------------------------------------------------
         1        2.0000           -0.8634396             -23.4954
       ...           ...                  ...                  ...
        55        2.0000           -0.5056760             -13.7601
        56        2.0000           -0.5047036             -13.7337
        57        2.0000           -0.5007459             -13.6260
        58        2.0000           -0.4958456             -13.4926
        59        2.0000           -0.4825039             -13.1296
        60        2.0000           -0.4789994             -13.0342
        61        2.0000           -0.4658912             -12.6775
        62        2.0000           -0.4611397             -12.5482
        63        2.0000           -0.4538141             -12.3489
        64        2.0000           -0.4508132             -12.2673
        65        2.0000           -0.4474224             -12.1750
        66        2.0000           -0.4210362             -11.4570
        67        2.0000           -0.4151624             -11.2971 (HOMO)
        68                         -0.3272407              -8.9047 (LUMO)
        69                         -0.3111559              -8.4670
        70                         -0.2748906              -7.4802
        71                         -0.2567092              -6.9854
        72                         -0.2482314              -6.7547
        73                         -0.1991484              -5.4191
        74                         -0.1559616              -4.2439
        75                         -0.1522802              -4.1438
        76                         -0.1431449              -3.8952
        77                         -0.1417420              -3.8570
        78                         -0.1253850              -3.4119
       ...                                ...                  ...
       134                          0.7553352              20.5537
      -------------------------------------------------------------
                  HL-Gap            0.0879216 Eh            2.3925 eV

Wiberg/Mayer (AO) data.
largest (>0.10) Wiberg bond orders for each atom

     #   Z sym  total        # sym  WBO       # sym  WBO       # sym  WBO
 ---------------------------------------------------------------------------
     1   6 C    3.853 --    27 H    0.981    28 H    0.976    26 H    0.975
                             2 O    0.882
     2   8 O    2.224 --     3 C    1.133     1 C    0.882
     3   6 C    3.833 --     6 C    1.333     4 O    1.154     2 O    1.133
     4   8 O    2.240 --     3 C    1.154     5 C    0.888
     5   6 C    3.861 --    31 H    0.984    29 H    0.978    30 H    0.978
                             4 O    0.888
     6   6 C    3.922 --     3 C    1.333    24 C    1.164     7 N    1.107
     7   7 N    3.044 --     8 C    1.656     6 C    1.107
     8   6 C    3.932 --     7 N    1.656    21 N    1.104     9 C    0.979
     9   6 C    3.934 --    10 C    0.992     8 C    0.979    11 C    0.979
                            12 N    0.920
    10   6 C    3.990 --     9 C    0.992    32 H    0.984    33 H    0.982
                            34 H    0.981
    11   6 C    3.986 --    36 H    0.985    35 H    0.984     9 C    0.979
                            37 H    0.978
    12   7 N    3.332 --    13 C    1.241     9 C    0.920    38 H    0.894
                            14 O    0.174
    13   6 C    3.916 --    14 O    1.602    12 N    1.241    15 C    0.989
    14   8 O    1.918 --    13 C    1.602    12 N    0.174
    15   6 C    3.875 --    16 N    1.610    20 O    1.065    13 C    0.989
    16   7 N    3.017 --    15 C    1.610    17 N    1.200
    17   7 N    2.981 --    18 C    1.605    16 N    1.200
    18   6 C    3.871 --    17 N    1.605    20 O    1.083    19 C    1.031
    19   6 C    3.986 --    18 C    1.031    40 H    0.983    41 H    0.964
                            39 H    0.962
    20   8 O    2.331 --    18 C    1.083    15 C    1.065
    21   7 N    3.435 --    22 C    1.159     8 C    1.104    42 H    0.886
                            23 O    0.138
    22   6 C    3.882 --    23 O    1.637    21 N    1.159    24 C    0.940
    23   8 O    1.915 --    22 C    1.637    21 N    0.138
    24   6 C    3.920 --    25 O    1.633     6 C    1.164    22 C    0.940
    25   8 O    1.919 --    24 C    1.633
    26   1 H    1.019 --     1 C    0.975
    27   1 H    1.008 --     1 C    0.981
    28   1 H    1.019 --     1 C    0.976
    29   1 H    1.005 --     5 C    0.978
    30   1 H    1.005 --     5 C    0.978
    31   1 H    1.008 --     5 C    0.984
    32   1 H    1.004 --    10 C    0.984
    33   1 H    1.007 --    10 C    0.982
    34   1 H    1.006 --    10 C    0.981
    35   1 H    1.001 --    11 C    0.984
    36   1 H    1.002 --    11 C    0.985
    37   1 H    1.010 --    11 C    0.978
    38   1 H    0.952 --    12 N    0.894
    39   1 H    0.997 --    19 C    0.962
    40   1 H    0.998 --    19 C    0.983
    41   1 H    0.997 --    19 C    0.964
    42   1 H    0.934 --    21 N    0.886
 ---------------------------------------------------------------------------

           -------------------------------------------------
          | TOTAL ENERGY              -82.993640668090 Eh   |
          | GRADIENT NORM               0.000997589525 Eh/α |
          | HOMO-LUMO GAP               2.392469118526 eV   |
           -------------------------------------------------

 * finished run on 2023/06/21 at 17:20:19.687
