   * xtb version 6.5.1 (579679a) compiled by 'ehlert@majestix' on 2022-07-11
          program call               : /lustre/hpc/kemi/ree/PhD/git/ReactivityQM/dep/xtb-6.5.1/bin/xtb --gfn 1 /lustre/hpc/kemi/ree/PhD/git/ReactivityQM/calculations/R02oxygendeprot/reac01prodE14/conf18/R02oxygendeprot_reac01prodE14_conf18_gfn1.xyz --opt --vfukui --chrg -2 --uhf 0 --alpb DMSO

   ID    Z sym.   atoms
    1    6 C      1, 3, 5, 7-10, 12, 14, 17, 18, 21, 23, 24
    2    8 O      2, 4, 13, 19, 22, 25
    3    7 N      6, 11, 15, 16, 20
    4    1 H      26-42

      * Solvation model:               ALPB
        Solvent                        DMSO
        Solvent mass                       7.8130E+01 g/mol
          :  Hamiltonian                  GFN1-xTB          :
 * total energy  :   -83.5851062 Eh     change       -0.5379945E-09 Eh
 * total energy  :   -83.6011798 Eh     change       -0.1607364E-01 Eh
 * total energy  :   -83.6076264 Eh     change       -0.6446643E-02 Eh
 * total energy  :   -83.6087726 Eh     change       -0.1146170E-02 Eh
 * total energy  :   -83.6094032 Eh     change       -0.6305371E-03 Eh
 * total energy  :   -83.6097347 Eh     change       -0.3315027E-03 Eh
 * total energy  :   -83.6100188 Eh     change       -0.2841591E-03 Eh
 * total energy  :   -83.6102535 Eh     change       -0.2347144E-03 Eh
 * total energy  :   -83.6104626 Eh     change       -0.2090701E-03 Eh
 * total energy  :   -83.6106827 Eh     change       -0.2201363E-03 Eh
 * total energy  :   -83.6119352 Eh     change       -0.1712534E-04 Eh
 * total energy  :   -83.6119469 Eh     change       -0.1167625E-04 Eh
 * total energy  :   -83.6119620 Eh     change       -0.1511437E-04 Eh
 * total energy  :   -83.6119818 Eh     change       -0.1978652E-04 Eh
 * total energy  :   -83.6119942 Eh     change       -0.1241232E-04 Eh
 * total energy  :   -83.6120026 Eh     change       -0.8359114E-05 Eh
 * total energy  :   -83.6120097 Eh     change       -0.7134759E-05 Eh
 * total energy  :   -83.6120154 Eh     change       -0.5673260E-05 Eh
 * total energy  :   -83.6120193 Eh     change       -0.3954324E-05 Eh
   *** GEOMETRY OPTIMIZATION CONVERGED AFTER 37 ITERATIONS ***

 final structure:
================
42
 xtb: 6.5.1 (579679a)
C           -6.13806206121667       -0.84887890506257        1.53961848545791
O           -5.03130367046956       -0.10232936294822        1.08569916943699
C           -3.89199683553849       -0.86466297455767        0.76458200531054
O           -3.96661407245046       -2.10391254338985        0.92078370248318
C           -2.79549076295339       -0.14452288309800        0.26602354159979
N           -1.68936046610412       -0.93602914485567        0.04253236102127
C           -0.62558086812550       -0.48668241879322       -0.51114639112410
C            0.59523835167550       -1.36385007925486       -0.69687925608724
C            0.75502560977867       -1.76978029006889       -2.17192205145461
C            0.47131598414108       -2.60526020864551        0.19308004692042
N            1.76731443655552       -0.56915908845741       -0.28801597729509
C            3.03178567725187       -1.02240850529472       -0.27450557770645
O            3.39346558732095       -2.15656114415701       -0.57131260561012
C            3.97031715387983        0.03470292510322        0.17568783596139
N            3.64550828431403        1.24020194354366        0.54995297414364
N            4.80619949674423        1.87175933861448        0.89405103855091
C            5.76155525908878        1.01663982220729        0.70929296648449
C            7.20891745628815        1.22201657717973        0.93976124974390
O            5.30511724667005       -0.16381108743441        0.25824916619936
N           -0.54030414866572        0.82362069294935       -1.03585777674947
C           -1.63712551054592        1.64702172259835       -1.00907986037891
O           -1.69993509906612        2.58147793791717       -1.81685294015986
C           -2.62168967878979        1.40741389009655        0.18780639084986
C           -3.96276396875944        2.10534669581000       -0.22508632683614
O           -2.06124642092991        1.95179296597378        1.28030606691265
H           -6.94731704029023       -0.14590560888200        1.74539723598475
H           -5.90325714854576       -1.40256782618055        2.45839456234580
H           -6.47497827190672       -1.56961118968082        0.78311420156779
H           -0.13998803930360       -2.29629198019350       -2.50069807382234
H            1.61642531015857       -2.42314995714957       -2.30013125077195
H            0.89228638430115       -0.88549619193525       -2.79222557657022
H           -0.47151824214209       -3.10565876806437       -0.02830174279205
H            1.29228910463170       -3.29620647873146        0.01434310240142
H            0.47205649399887       -2.31256925265007        1.24324631125484
H            1.61609481318809        0.40967397179703       -0.07570096679479
H            7.57851625119541        0.50238975429773        1.66968190951080
H            7.76106587374470        1.07418146180386        0.01236418807320
H            7.37961551511200        2.23083435748372        1.30629547368742
H            0.10945365750478        0.98012157963816       -1.78827020329541
H           -4.48694247734662        1.54307583506119       -0.99860447421940
H           -4.60435112330558        2.21234288493400        0.64740344378382
H           -3.73973604109144        3.10454753247173       -0.60308037802347

          :  Hamiltonian                  GFN1-xTB          :
         :: total energy             -83.612019324905 Eh    ::
         :: gradient norm              0.000347303348 Eh/a0 ::
         :: HOMO-LUMO gap              0.165597762589 eV    ::
         :: SCC energy               -84.347042341160 Eh    ::
         :: -> Gsolv                  -0.300335408713 Eh    ::
         :: repulsion energy           0.760698217292 Eh    ::

    * Orbital Energies and Occupations

         #    Occupation            Energy/Eh            Energy/eV
      -------------------------------------------------------------
         1        2.0000           -0.8475117             -23.0620
       ...           ...                  ...                  ...
        56        2.0000           -0.4430090             -12.0549
        57        2.0000           -0.4371108             -11.8944
        58        2.0000           -0.4321304             -11.7589
        59        2.0000           -0.4258575             -11.5882
        60        2.0000           -0.4217441             -11.4762
        61        2.0000           -0.4158119             -11.3148
        62        2.0000           -0.4008533             -10.9078
        63        2.0000           -0.3930551             -10.6956
        64        2.0000           -0.3842988             -10.4573
        65        2.0000           -0.3709697             -10.0946
        66        2.0000           -0.3081942              -8.3864
        67        1.9929           -0.3003832              -8.1738
        68        1.9253           -0.2981112              -8.1120 (HOMO)
        69        0.0817           -0.2920256              -7.9464 (LUMO)
        70                         -0.2438023              -6.6342
        71                         -0.2126664              -5.7869
        72                         -0.1788056              -4.8655
        73                         -0.1740250              -4.7355
        74                         -0.1374930              -3.7414
        75                         -0.1141165              -3.1053
        76                         -0.1060750              -2.8864
        77                         -0.1045123              -2.8439
        78                         -0.0983963              -2.6775
        79                         -0.0809473              -2.2027
       ...                                ...                  ...
       134                          0.7263680              19.7655
      -------------------------------------------------------------
                  HL-Gap            0.0060856 Eh            0.1656 eV

Wiberg/Mayer (AO) data.
largest (>0.10) Wiberg bond orders for each atom

     #   Z sym  total        # sym  WBO       # sym  WBO       # sym  WBO
 ---------------------------------------------------------------------------
     1   6 C    3.922 --    26 H    0.987    27 H    0.980    28 H    0.980
                             2 O    0.953
     2   8 O    2.081 --     1 C    0.953     3 C    0.931
     3   6 C    3.847 --     4 O    1.444     5 C    1.334     2 O    0.931
     4   8 O    1.742 --     3 C    1.444     5 C    0.108
     5   6 C    3.821 --     3 C    1.334     6 N    1.185    23 C    0.917
                             4 O    0.108
     6   7 N    3.053 --     7 C    1.625     5 C    1.185
     7   6 C    3.892 --     6 N    1.625    20 N    0.998     8 C    0.978
     8   6 C    3.924 --    10 C    0.995     9 C    0.982     7 C    0.978
                            11 N    0.905
     9   6 C    3.989 --    29 H    0.986    31 H    0.984    30 H    0.983
                             8 C    0.982
    10   6 C    3.994 --     8 C    0.995    34 H    0.986    33 H    0.985
                            32 H    0.983
    11   7 N    3.347 --    12 C    1.272     8 C    0.905    35 H    0.898
                            13 O    0.178
    12   6 C    3.895 --    13 O    1.548    11 N    1.272    14 C    0.999
    13   8 O    1.856 --    12 C    1.548    11 N    0.178
    14   6 C    3.832 --    15 N    1.585    19 O    1.048    12 C    0.999
    15   7 N    2.967 --    14 C    1.585    16 N    1.189
    16   7 N    2.980 --    17 C    1.618    15 N    1.189
    17   6 C    3.865 --    16 N    1.618    19 O    1.076    18 C    1.029
    18   6 C    3.989 --    17 C    1.029    38 H    0.984    36 H    0.966
                            37 H    0.966
    19   8 O    2.301 --    17 C    1.076    14 C    1.048
    20   7 N    3.340 --    21 C    1.167     7 C    0.998    39 H    0.914
                            22 O    0.115
    21   6 C    3.810 --    22 O    1.564    20 N    1.167    23 C    0.878
    22   8 O    1.831 --    21 C    1.564    20 N    0.115
    23   6 C    3.962 --    25 O    1.122    24 C    0.947     5 C    0.917
                            21 C    0.878
    24   6 C    3.989 --    40 H    0.990    41 H    0.987    42 H    0.986
                            23 C    0.947
    25   8 O    1.409 --    23 C    1.122
    26   1 H    1.020 --     1 C    0.987
    27   1 H    1.023 --     1 C    0.980
    28   1 H    1.022 --     1 C    0.980
    29   1 H    1.008 --     9 C    0.986
    30   1 H    1.011 --     9 C    0.983
    31   1 H    1.007 --     9 C    0.984
    32   1 H    1.023 --    10 C    0.983
    33   1 H    1.015 --    10 C    0.985
    34   1 H    1.012 --    10 C    0.986
    35   1 H    0.967 --    11 N    0.898
    36   1 H    0.998 --    18 C    0.966
    37   1 H    0.998 --    18 C    0.966
    38   1 H    1.000 --    18 C    0.984
    39   1 H    0.967 --    20 N    0.914
    40   1 H    1.018 --    24 C    0.990
    41   1 H    1.033 --    24 C    0.987
    42   1 H    1.026 --    24 C    0.986
 ---------------------------------------------------------------------------

           -------------------------------------------------
          | TOTAL ENERGY              -83.612019324905 Eh   |
          | GRADIENT NORM               0.000347303348 Eh/α |
          | HOMO-LUMO GAP               0.165597762589 eV   |
           -------------------------------------------------

 * finished run on 2023/06/21 at 17:16:29.999
