   * xtb version 6.5.1 (579679a) compiled by 'ehlert@majestix' on 2022-07-11
          program call               : /lustre/hpc/kemi/ree/PhD/git/ReactivityQM/dep/xtb-6.5.1/bin/xtb --gfn 1 /lustre/hpc/kemi/ree/PhD/git/ReactivityQM/calculations/R02oxygendeprot/reac01prodN09/conf02/R02oxygendeprot_reac01prodN09_conf02_gfn1.xyz --opt --vfukui --chrg 0 --uhf 0 --alpb DMSO

   ID    Z sym.   atoms
    1    6 C      1, 3, 4, 6, 8-11, 13, 15, 18, 19, 22, 24
    2    8 O      2, 5, 14, 20, 23, 25
    3    7 N      7, 12, 16, 17, 21
    4    1 H      26-42

      * Solvation model:               ALPB
        Solvent                        DMSO
        Solvent mass                       7.8130E+01 g/mol
          :  Hamiltonian                  GFN1-xTB          :
 * total energy  :   -82.8675197 Eh     change       -0.4779537E-09 Eh
 * total energy  :   -82.8817429 Eh     change       -0.1422317E-01 Eh
 * total energy  :   -82.8939504 Eh     change       -0.1220756E-01 Eh
 * total energy  :   -82.8991345 Eh     change       -0.5184065E-02 Eh
 * total energy  :   -82.9082436 Eh     change       -0.9109124E-02 Eh
 * total energy  :   -82.9229630 Eh     change       -0.1471937E-01 Eh
 * total energy  :   -82.9427183 Eh     change       -0.1975533E-01 Eh
 * total energy  :   -82.9255346 Eh     change        0.1718371E-01 Eh
 * total energy  :   -82.9537228 Eh     change       -0.2818819E-01 Eh
 * total energy  :   -82.9506954 Eh     change        0.3027467E-02 Eh
 * total energy  :   -82.9729473 Eh     change       -0.1748546E-04 Eh
 * total energy  :   -82.9729598 Eh     change       -0.1245139E-04 Eh
 * total energy  :   -82.9729684 Eh     change       -0.8619058E-05 Eh
 * total energy  :   -82.9729761 Eh     change       -0.7645350E-05 Eh
 * total energy  :   -82.9729854 Eh     change       -0.9345715E-05 Eh
 * total energy  :   -82.9729976 Eh     change       -0.1220580E-04 Eh
 * total energy  :   -82.9730089 Eh     change       -0.1131613E-04 Eh
 * total energy  :   -82.9730155 Eh     change       -0.6564738E-05 Eh
 * total energy  :   -82.9730193 Eh     change       -0.3843580E-05 Eh
   *** GEOMETRY OPTIMIZATION CONVERGED AFTER 79 ITERATIONS ***

 final structure:
================
42
 xtb: 6.5.1 (579679a)
C           -5.38570866507880        2.09083903308512        0.35997426154233
O           -4.04954336509853        2.15217530168259       -0.15447029845972
C           -3.49608546638920        1.01872580902532       -0.66690267981061
C           -3.00174473424943        1.18114042718355       -2.08404583736561
O           -4.01708968107844       -0.19695670347612       -0.28918620222339
C           -2.73459168635948        0.05360222221544        0.26049090454232
N           -1.69635041709610       -0.66789730186340       -0.36676918142215
C           -0.58845750335374       -0.85218141498695        0.22989234497554
C            0.50746024336692       -1.65747518796779       -0.43499060922302
C            0.28840787042936       -1.71419731684083       -1.94897398778601
C            0.48006876557951       -3.06312209384732        0.18664368414434
N            1.78318177785439       -0.99623823206245       -0.13973333221349
C            2.97751856573186       -1.51202925447588       -0.51668845184103
O            3.14699357985193       -2.60624653790476       -1.02401643416387
C            4.10831481039149       -0.59957804668612       -0.21699665033126
N            5.37035815966237       -0.80565647781153       -0.43151833532553
N            6.03046698210971        0.30151051616674        0.00843599692299
C            5.13123805220401        1.11666556097011        0.46495073952054
C            5.33780209057947        2.45470928653621        1.06005639802250
O            3.89310619125916        0.60731660979193        0.35126150163186
N           -0.34107311302172       -0.42542277057967        1.52170562038113
C           -1.26522201487739        0.17382461901851        2.33350154773119
O           -1.00351762360164        0.50394771392098        3.46807571727191
C           -2.65091569060393        0.35385357151128        1.70849414868330
O           -3.57497311510387        0.75464345430389        2.37753958845883
H           -5.55256080056463        3.03194897075156        0.88247071837273
H           -6.09994391013152        1.99004962520064       -0.46299293112119
H           -5.50406362393992        1.25463872406990        1.05253772035165
H           -2.32594534365175        2.03146013882788       -2.13772142965836
H           -2.49025701860901        0.27930396798205       -2.40888064773982
H           -3.85894241610335        1.36938177201590       -2.72867463934866
H            1.06665716857246       -2.31730027914616       -2.41299073788747
H            0.31631337055909       -0.70882888933280       -2.36515395908860
H           -0.68329850024203       -2.15741898635044       -2.15991569400757
H            1.19441633536894       -3.71242882883234       -0.31522090540930
H            0.72936824892905       -3.00651931807987        1.24460574235913
H           -0.51875939589405       -3.48353731485850        0.07779929495442
H            1.75743898468149       -0.02496991205845        0.12218672123639
H            4.76296518011091        3.19931053132937        0.51025524522079
H            6.39426762356939        2.71047984833237        1.02926630100603
H            4.99079370291309        2.45819123761726        2.09336866249663
H            0.57190538131139       -0.57971307437317        1.92233108460236

          :  Hamiltonian                  GFN1-xTB          :
         :: total energy             -82.973019335312 Eh    ::
         :: gradient norm              0.000200164953 Eh/a0 ::
         :: HOMO-LUMO gap              2.465238120748 eV    ::
         :: SCC energy               -83.739453728781 Eh    ::
         :: -> Gsolv                  -0.057853848286 Eh    ::
         :: repulsion energy           0.792266027184 Eh    ::

    * Orbital Energies and Occupations

         #    Occupation            Energy/Eh            Energy/eV
      -------------------------------------------------------------
         1        2.0000           -0.8663046             -23.5733
       ...           ...                  ...                  ...
        55        2.0000           -0.5062157             -13.7748
        56        2.0000           -0.5057346             -13.7617
        57        2.0000           -0.5037300             -13.7072
        58        2.0000           -0.5020170             -13.6606
        59        2.0000           -0.4810868             -13.0910
        60        2.0000           -0.4776129             -12.9965
        61        2.0000           -0.4720847             -12.8461
        62        2.0000           -0.4654074             -12.6644
        63        2.0000           -0.4622751             -12.5791
        64        2.0000           -0.4529075             -12.3242
        65        2.0000           -0.4517466             -12.2927
        66        2.0000           -0.4460052             -12.1364
        67        2.0000           -0.4400160             -11.9734 (HOMO)
        68                         -0.3494202              -9.5082 (LUMO)
        69                         -0.3130083              -8.5174
        70                         -0.2897525              -7.8846
        71                         -0.2572783              -7.0009
        72                         -0.2331546              -6.3445
        73                         -0.2006540              -5.4601
        74                         -0.1419332              -3.8622
        75                         -0.1416438              -3.8543
        76                         -0.1320982              -3.5946
        77                         -0.1274980              -3.4694
        78                         -0.1248732              -3.3980
       ...                                ...                  ...
       134                          0.7586404              20.6437
      -------------------------------------------------------------
                  HL-Gap            0.0905958 Eh            2.4652 eV

Wiberg/Mayer (AO) data.
largest (>0.10) Wiberg bond orders for each atom

     #   Z sym  total        # sym  WBO       # sym  WBO       # sym  WBO
 ---------------------------------------------------------------------------
     1   6 C    3.871 --    26 H    0.985    27 H    0.983    28 H    0.979
                             2 O    0.892
     2   8 O    2.073 --     3 C    1.019     1 C    0.892
     3   6 C    3.831 --     2 O    1.019     4 C    0.986     5 O    0.940
                             6 C    0.746
     4   6 C    3.985 --     3 C    0.986    30 H    0.980    29 H    0.979
                            31 H    0.969
     5   8 O    1.985 --     3 C    0.940     6 C    0.863
     6   6 C    3.848 --     7 N    1.031    24 C    1.027     5 O    0.863
                             3 C    0.746
     7   7 N    3.032 --     8 C    1.708     6 C    1.031
     8   6 C    3.927 --     7 N    1.708    21 N    1.091     9 C    0.980
     9   6 C    3.934 --    10 C    0.990     8 C    0.980    11 C    0.974
                            12 N    0.925
    10   6 C    3.988 --     9 C    0.990    33 H    0.985    34 H    0.983
                            32 H    0.982
    11   6 C    3.985 --    37 H    0.985    36 H    0.985    35 H    0.976
                             9 C    0.974
    12   7 N    3.330 --    13 C    1.239     9 C    0.925    38 H    0.893
                            14 O    0.172
    13   6 C    3.914 --    14 O    1.597    12 N    1.239    15 C    0.994
    14   8 O    1.912 --    13 C    1.597    12 N    0.172
    15   6 C    3.873 --    16 N    1.622    20 O    1.046    13 C    0.994
    16   7 N    3.001 --    15 C    1.622    17 N    1.200
    17   7 N    2.982 --    18 C    1.610    16 N    1.200
    18   6 C    3.868 --    17 N    1.610    20 O    1.072    19 C    1.032
    19   6 C    3.986 --    18 C    1.032    40 H    0.982    39 H    0.964
                            41 H    0.961
    20   8 O    2.316 --    18 C    1.072    15 C    1.046
    21   7 N    3.429 --    22 C    1.167     8 C    1.091    42 H    0.879
                            23 O    0.143
    22   6 C    3.890 --    23 O    1.673    21 N    1.167    24 C    0.917
    23   8 O    1.955 --    22 C    1.673    21 N    0.143
    24   6 C    3.885 --    25 O    1.753     6 C    1.027    22 C    0.917
    25   8 O    2.011 --    24 C    1.753
    26   1 H    1.013 --     1 C    0.985
    27   1 H    1.006 --     1 C    0.983
    28   1 H    1.025 --     1 C    0.979
    29   1 H    1.000 --     4 C    0.979
    30   1 H    1.014 --     4 C    0.980
    31   1 H    0.998 --     4 C    0.969
    32   1 H    1.006 --    10 C    0.982
    33   1 H    1.003 --    10 C    0.985
    34   1 H    1.008 --    10 C    0.983
    35   1 H    1.010 --    11 C    0.976
    36   1 H    1.000 --    11 C    0.985
    37   1 H    1.001 --    11 C    0.985
    38   1 H    0.936 --    12 N    0.893
    39   1 H    0.996 --    19 C    0.964
    40   1 H    0.998 --    19 C    0.982
    41   1 H    0.996 --    19 C    0.961
    42   1 H    0.925 --    21 N    0.879
 ---------------------------------------------------------------------------

           -------------------------------------------------
          | TOTAL ENERGY              -82.973019335312 Eh   |
          | GRADIENT NORM               0.000200164953 Eh/α |
          | HOMO-LUMO GAP               2.465238120748 eV   |
           -------------------------------------------------

 * finished run on 2023/06/21 at 17:25:12.182
