   * xtb version 6.5.1 (579679a) compiled by 'ehlert@majestix' on 2022-07-11
          program call               : /lustre/hpc/kemi/ree/PhD/git/ReactivityQM/dep/xtb-6.5.1/bin/xtb --gfn 1 /lustre/hpc/kemi/ree/PhD/git/ReactivityQM/calculations/R02/reac01prodN12/conf14/R02_reac01prodN12_conf14_gfn1.xyz --opt --vfukui --chrg 1 --uhf 0 --alpb DMSO

   ID    Z sym.   atoms
    1    6 C      1, 3, 5, 7-10, 12, 14, 15, 18, 19, 22, 24
    2    8 O      2, 4, 13, 20, 23, 25
    3    7 N      6, 11, 16, 17, 21
    4    1 H      26-43

      * Solvation model:               ALPB
        Solvent                        DMSO
        Solvent mass                       7.8130E+01 g/mol
          :  Hamiltonian                  GFN1-xTB          :
 * total energy  :   -83.1112901 Eh     change       -0.3662137E-09 Eh
 * total energy  :   -83.1261738 Eh     change       -0.1488375E-01 Eh
 * total energy  :   -83.1321723 Eh     change       -0.5998475E-02 Eh
 * total energy  :   -83.1329852 Eh     change       -0.8129057E-03 Eh
 * total energy  :   -83.1333588 Eh     change       -0.3736057E-03 Eh
 * total energy  :   -83.1334801 Eh     change       -0.1213011E-03 Eh
 * total energy  :   -83.1336192 Eh     change       -0.1390840E-03 Eh
 * total energy  :   -83.1337264 Eh     change       -0.1071981E-03 Eh
 * total energy  :   -83.1338138 Eh     change       -0.8738891E-04 Eh
 * total energy  :   -83.1338853 Eh     change       -0.7155126E-04 Eh
 * total energy  :   -83.1379500 Eh     change       -0.1125205E-04 Eh
 * total energy  :   -83.1379606 Eh     change       -0.1069083E-04 Eh
 * total energy  :   -83.1379710 Eh     change       -0.1035083E-04 Eh
 * total energy  :   -83.1379811 Eh     change       -0.1005254E-04 Eh
 * total energy  :   -83.1379903 Eh     change       -0.9215750E-05 Eh
 * total energy  :   -83.1379982 Eh     change       -0.7978402E-05 Eh
 * total energy  :   -83.1380046 Eh     change       -0.6371031E-05 Eh
 * total energy  :   -83.1380104 Eh     change       -0.5794092E-05 Eh
 * total energy  :   -83.1380127 Eh     change       -0.2242594E-05 Eh
   *** GEOMETRY OPTIMIZATION CONVERGED AFTER 122 ITERATIONS ***

 final structure:
================
43
 xtb: 6.5.1 (579679a)
C            6.40188258971659       -0.40674493313515        1.55119871858167
O            5.19838333903497        0.30065124528431        1.23151328609177
C            4.25444987062797       -0.38611411971296        0.59759241076377
O            4.36927717412315       -1.54912601928310        0.28601577816375
C            3.02915756820573        0.42033200995985        0.30803392399886
N            2.04820276244918       -0.29354090129137       -0.33955507064798
C            0.93413581025607        0.26624745414108       -0.64994093014424
C           -0.12445941901623       -0.52973577723789       -1.38309752073725
C            0.27688408694412       -2.00325998778641       -1.43778376566213
C           -0.34466159351265        0.05303056542234       -2.78344765605667
N           -1.38004436534879       -0.37824086332625       -0.59721112013630
C           -2.49298930014539       -0.99557542622513       -0.94197798134141
O           -2.70123826873119       -1.77503100894119       -1.82896957760211
C           -3.74799746088742       -0.60153318054921       -0.00515152824310
C           -4.83298936994569       -0.06195996749173       -0.93530465677267
N           -4.08041518120478       -1.76666560333398        0.70597778258633
N           -3.91697679295217       -1.57566006083253        1.94879090254696
C           -3.50661736888064       -0.28514259879083        2.12175809043871
C           -3.21674425068145        0.34939066958227        3.40258703194112
O           -3.39197742536507        0.32137917688191        0.99070362904342
N            0.67041509343889        1.58051818136036       -0.37067657256457
C            1.56944052047304        2.39474008379075        0.28119498899838
O            1.33466224357844        3.56237167748037        0.54050290274831
C            2.82776662674178        1.73419665623071        0.63372031339235
O            3.71246925840484        2.49924164084171        1.27330955290994
H            6.16767417495219       -1.29701339596937        2.13965363381081
H            7.02006064937265        0.27818590963410        2.12812217057846
H            6.91621214615644       -0.70326280179292        0.63373524282067
H            0.36032869457099       -2.40338507705432       -0.42868822941322
H            1.24430257937213       -2.08612986082252       -1.93136233089179
H           -0.45792428753287       -2.57790922649153       -1.99709482191982
H           -1.08447621371635       -0.53769208233691       -3.32073377739858
H            0.59439171295108        0.03622530859073       -3.33493902163543
H           -0.69694605117465        1.07940748106544       -2.71033442642913
H           -1.39665045231648        0.30152166718273        0.14282670009117
H           -5.72628229380121        0.14440583814633       -0.35001082232582
H           -5.04152136531699       -0.81263179774935       -1.69540746091569
H           -4.47930321966310        0.85417066407581       -1.40157089598215
H           -2.36825633928317       -0.15675755723910        3.87052692189370
H           -2.99338954331036        1.40505846989735        3.26957081982026
H           -4.07007017470187        0.21630875781834        4.07163939601909
H           -0.20710052804817        2.00008232158490       -0.62873888236847
H            3.32893436418227        3.38564746839217        1.40786585198748

          :  Hamiltonian                  GFN1-xTB          :
         :: total energy             -83.138012653991 Eh    ::
         :: gradient norm              0.000180828134 Eh/a0 ::
         :: HOMO-LUMO gap              0.439510198120 eV    ::
         :: SCC energy               -83.934998610489 Eh    ::
         :: -> Gsolv                  -0.128062057558 Eh    ::
         :: repulsion energy           0.823744094516 Eh    ::

    * Orbital Energies and Occupations

         #    Occupation            Energy/Eh            Energy/eV
      -------------------------------------------------------------
         1        2.0000           -0.9370474             -25.4984
       ...           ...                  ...                  ...
        55        2.0000           -0.5330819             -14.5059
        56        2.0000           -0.5250277             -14.2867
        57        2.0000           -0.5222754             -14.2118
        58        2.0000           -0.5180716             -14.0974
        59        2.0000           -0.5158053             -14.0358
        60        2.0000           -0.5041508             -13.7186
        61        2.0000           -0.5023030             -13.6684
        62        2.0000           -0.4992411             -13.5850
        63        2.0000           -0.4952560             -13.4766
        64        2.0000           -0.4937386             -13.4353
        65        2.0000           -0.4727014             -12.8629
        66        2.0000           -0.4621015             -12.5744
        67        1.9996           -0.4441682             -12.0864 (HOMO)
        68        0.0004           -0.4280165             -11.6469 (LUMO)
        69                         -0.3343402              -9.0979
        70                         -0.3316689              -9.0252
        71                         -0.3020109              -8.2181
        72                         -0.2988256              -8.1315
        73                         -0.2492494              -6.7824
        74                         -0.1774764              -4.8294
        75                         -0.1695832              -4.6146
        76                         -0.1577561              -4.2928
        77                         -0.1508149              -4.1039
        78                         -0.1406347              -3.8269
       ...                                ...                  ...
       136                          0.7275544              19.7978
      -------------------------------------------------------------
                  HL-Gap            0.0161517 Eh            0.4395 eV

Wiberg/Mayer (AO) data.
largest (>0.10) Wiberg bond orders for each atom

     #   Z sym  total        # sym  WBO       # sym  WBO       # sym  WBO
 ---------------------------------------------------------------------------
     1   6 C    3.868 --    27 H    0.986    26 H    0.980    28 H    0.979
                             2 O    0.893
     2   8 O    2.209 --     3 C    1.123     1 C    0.893     4 O    0.137
     3   6 C    3.854 --     4 O    1.659     2 O    1.123     5 C    0.994
     4   8 O    1.921 --     3 C    1.659     2 O    0.137
     5   6 C    3.956 --    24 C    1.504     6 N    1.171     3 C    0.994
     6   7 N    3.030 --     7 C    1.609     5 C    1.171
     7   6 C    3.932 --     6 N    1.609    21 N    1.156     8 C    0.978
     8   6 C    3.906 --     9 C    0.997    10 C    0.981     7 C    0.978
                            11 N    0.874
     9   6 C    3.984 --     8 C    0.997    29 H    0.984    30 H    0.980
                            31 H    0.980
    10   6 C    3.984 --    34 H    0.983    33 H    0.981     8 C    0.981
                            32 H    0.979
    11   7 N    3.377 --    12 C    1.355    35 H    0.882     8 C    0.874
                            13 O    0.180
    12   6 C    3.908 --    13 O    1.667    11 N    1.355    14 C    0.736
    13   8 O    2.061 --    12 C    1.667    11 N    0.180
    14   6 C    3.838 --    16 N    1.110    15 C    0.916    20 O    0.910
                            12 C    0.736
    15   6 C    3.947 --    38 H    0.978    36 H    0.975    37 H    0.974
                            14 C    0.916
    16   7 N    2.998 --    17 N    1.623    14 C    1.110
    17   7 N    3.016 --    16 N    1.623    18 C    1.224
    18   6 C    3.805 --    20 O    1.266    17 N    1.224    19 C    1.078
    19   6 C    3.963 --    18 C    1.078    40 H    0.972    41 H    0.927
                            39 H    0.917
    20   8 O    2.371 --    18 C    1.266    14 C    0.910
    21   7 N    3.458 --     7 C    1.156    22 C    1.129    42 H    0.880
                            23 O    0.134
    22   6 C    3.907 --    23 O    1.593    21 N    1.129    24 C    1.054
    23   8 O    1.915 --    22 C    1.593    21 N    0.134
    24   6 C    3.916 --     5 C    1.504    25 O    1.121    22 C    1.054
    25   8 O    2.096 --    24 C    1.121    43 H    0.802
    26   1 H    1.007 --     1 C    0.980
    27   1 H    1.010 --     1 C    0.986
    28   1 H    1.006 --     1 C    0.979
    29   1 H    1.004 --     9 C    0.984
    30   1 H    1.006 --     9 C    0.980
    31   1 H    1.004 --     9 C    0.980
    32   1 H    0.999 --    10 C    0.979
    33   1 H    0.997 --    10 C    0.981
    34   1 H    0.998 --    10 C    0.983
    35   1 H    0.927 --    11 N    0.882
    36   1 H    0.990 --    15 C    0.975
    37   1 H    0.996 --    15 C    0.974
    38   1 H    0.990 --    15 C    0.978
    39   1 H    0.977 --    19 C    0.917
    40   1 H    0.985 --    19 C    0.972
    41   1 H    0.978 --    19 C    0.927
    42   1 H    0.920 --    21 N    0.880
    43   1 H    0.840 --    25 O    0.802
 ---------------------------------------------------------------------------

           -------------------------------------------------
          | TOTAL ENERGY              -83.138012653991 Eh   |
          | GRADIENT NORM               0.000180828134 Eh/α |
          | HOMO-LUMO GAP               0.439510198120 eV   |
           -------------------------------------------------

 * finished run on 2023/06/20 at 15:34:44.138
