   * xtb version 6.5.1 (579679a) compiled by 'ehlert@majestix' on 2022-07-11
          program call               : /lustre/hpc/kemi/ree/PhD/git/ReactivityQM/dep/xtb-6.5.1/bin/xtb --gfn 1 /lustre/hpc/kemi/ree/PhD/git/ReactivityQM/calculations/RaltegravirCLI/reac02/conf19/RaltegravirCLI_reac02_conf19_gfn1.xyz --opt --vfukui --chrg 0 --uhf 0 --alpb DMSO

   ID    Z sym.   atoms
    1    6 C      1, 3-6, 9, 10, 13-17, 19-21, 23
    2    7 N      2, 7, 8, 12
    3    8 O      11, 22, 24
    4    9 F      18
    5    1 H      25-43

      * Solvation model:               ALPB
        Solvent                        DMSO
        Solvent mass                       7.8130E+01 g/mol
          :  Hamiltonian                  GFN1-xTB          :
 * total energy  :   -76.1646896 Eh     change       -0.7631229E-11 Eh
 * total energy  :   -76.1719876 Eh     change       -0.7298038E-02 Eh
 * total energy  :   -76.1739137 Eh     change       -0.1926079E-02 Eh
 * total energy  :   -76.1742941 Eh     change       -0.3804142E-03 Eh
 * total energy  :   -76.1745297 Eh     change       -0.2355634E-03 Eh
 * total energy  :   -76.1746184 Eh     change       -0.8868956E-04 Eh
 * total energy  :   -76.1746806 Eh     change       -0.6222251E-04 Eh
 * total energy  :   -76.1747107 Eh     change       -0.3006938E-04 Eh
 * total energy  :   -76.1747375 Eh     change       -0.2687433E-04 Eh
 * total energy  :   -76.1747602 Eh     change       -0.2265529E-04 Eh
 * total energy  :   -76.1747964 Eh     change       -0.3618868E-04 Eh
 * total energy  :   -76.1748224 Eh     change       -0.2605506E-04 Eh
 * total energy  :   -76.1748458 Eh     change       -0.2332121E-04 Eh
 * total energy  :   -76.1748617 Eh     change       -0.1594358E-04 Eh
 * total energy  :   -76.1748713 Eh     change       -0.9574617E-05 Eh
 * total energy  :   -76.1748803 Eh     change       -0.9021813E-05 Eh
 * total energy  :   -76.1748905 Eh     change       -0.1021937E-04 Eh
 * total energy  :   -76.1748976 Eh     change       -0.7072952E-05 Eh
 * total energy  :   -76.1749008 Eh     change       -0.3178886E-05 Eh
   *** GEOMETRY OPTIMIZATION CONVERGED AFTER 19 ITERATIONS ***

 final structure:
================
43
 xtb: 6.5.1 (579679a)
C           -4.25146889046685       -0.50965419903537        1.41602305694443
N           -2.87716498878847       -0.58857599146558        0.92029390037795
C           -2.40873097804171        0.08720061870863       -0.18222533062031
C           -3.26149101097227        1.04259518131207       -1.02939489986760
C           -4.04222188398947        2.07108696267971       -0.20014450732130
C           -4.18824104172243        0.24047356553573       -1.95546873910300
N           -2.36045127900074        1.80367926671712       -1.88867088120594
N           -1.18932554637931       -0.05958385691461       -0.59423770708539
C           -0.29031030102580       -0.86518946877858        0.04529068542212
C            1.05646047778468       -0.91866529180452       -0.61633938295279
O            1.24589417804075       -0.42104242290135       -1.72026279197152
N            2.02695218564046       -1.55656442087625        0.06661893081084
C            3.38074479900155       -1.64508391489797       -0.46994009129183
C            4.23992823009034       -0.49859197810969        0.02118006751471
C            5.25650583073867       -0.72530416534300        0.94491884181149
C            6.04692597796348        0.32233281539186        1.39957361705202
C            5.79274717517180        1.59169901520546        0.91494960410154
F            6.55242683787773        2.61161534339250        1.34879269769742
C            4.78951372240198        1.85378030688367       -0.00130660165312
C            4.01263248627321        0.79481202732172       -0.44726306918774
C           -0.68269509070646       -1.52644028311770        1.17152582872241
O            0.11007431930358       -2.34059608363274        1.89955583241505
C           -2.03981400854283       -1.39951778335777        1.66492753194260
O           -2.41342868164010       -1.99221415878653        2.67613159316912
H           -4.44211869040566       -1.39994487266427        2.01475574210326
H           -4.36912812560330        0.37223526329272        2.04451481646751
H           -4.95302713994622       -0.48000040887554        0.58936164644860
H           -4.26824155552606        2.92532231062337       -0.83844530910662
H           -3.44511217917121        2.41653982579835        0.64253661357103
H           -4.98290990783973        1.67143449844053        0.16924979437413
H           -3.60384196695341       -0.46976946964206       -2.53969688822823
H           -4.68753825473794        0.92926021900490       -2.63615616035901
H           -4.94361168911359       -0.30656516590436       -1.39611703541446
H           -1.78217870266726        1.15456775549220       -2.41534173025229
H           -1.73846629569250        2.35070342251956       -1.30505232305025
H            1.87680828101535       -1.89587616056794        1.00154512207400
H            3.80703391521396       -2.60168882563972       -0.15929313493770
H            3.31050409460851       -1.62172808342473       -1.56263481570039
H            5.43830423139195       -1.72778531718319        1.31388484779748
H            6.84135310786062        0.15800903805876        2.11553257506120
H            4.62524350603723        2.86275209760567       -0.35681938346545
H            3.22361741458635        0.97441379046144       -1.16864672189724
H           -0.41215256207115       -2.68413000151990        2.65017615878648

          :  Hamiltonian                  GFN1-xTB          :
         :: total energy             -76.174900778298 Eh    ::
         :: gradient norm              0.000461060321 Eh/a0 ::
         :: HOMO-LUMO gap              2.732070440329 eV    ::
         :: SCC energy               -77.019773308853 Eh    ::
         :: -> Gsolv                  -0.045673936391 Eh    ::
         :: repulsion energy           0.872144549831 Eh    ::

    * Orbital Energies and Occupations

         #    Occupation            Energy/Eh            Energy/eV
      -------------------------------------------------------------
         1        2.0000           -0.8628111             -23.4783
       ...           ...                  ...                  ...
        52        2.0000           -0.4952731             -13.4771
        53        2.0000           -0.4875804             -13.2677
        54        2.0000           -0.4837771             -13.1642
        55        2.0000           -0.4719743             -12.8431
        56        2.0000           -0.4673163             -12.7163
        57        2.0000           -0.4645042             -12.6398
        58        2.0000           -0.4499751             -12.2444
        59        2.0000           -0.4461399             -12.1401
        60        2.0000           -0.4381468             -11.9226
        61        2.0000           -0.4335914             -11.7986
        62        2.0000           -0.4316750             -11.7465
        63        2.0000           -0.4195753             -11.4172
        64        2.0000           -0.4102002             -11.1621 (HOMO)
        65                         -0.3097985              -8.4300 (LUMO)
        66                         -0.2725067              -7.4153
        67                         -0.2718835              -7.3983
        68                         -0.2654214              -7.2225
        69                         -0.2253804              -6.1329
        70                         -0.1476815              -4.0186
        71                         -0.1450004              -3.9457
        72                         -0.1439519              -3.9171
        73                         -0.1266192              -3.4455
        74                         -0.1193652              -3.2481
        75                         -0.1168560              -3.1798
       ...                                ...                  ...
       134                          0.7178763              19.5344
      -------------------------------------------------------------
                  HL-Gap            0.1004017 Eh            2.7321 eV

Wiberg/Mayer (AO) data.
largest (>0.10) Wiberg bond orders for each atom

     #   Z sym  total        # sym  WBO       # sym  WBO       # sym  WBO
 ---------------------------------------------------------------------------
     1   6 C    3.925 --    27 H    0.977    26 H    0.977    25 H    0.973
                             2 N    0.931
     2   7 N    3.507 --     3 C    1.164    23 C    1.134     1 C    0.931
                            24 O    0.133
     3   6 C    3.918 --     8 N    1.570     2 N    1.164     4 C    0.963
     4   6 C    3.969 --     7 N    0.997     5 C    0.992     6 C    0.983
                             3 C    0.963
     5   6 C    3.994 --     4 C    0.992    29 H    0.986    28 H    0.983
                            30 H    0.982
     6   6 C    3.994 --    31 H    0.985    32 H    0.983     4 C    0.983
                            33 H    0.979
     7   7 N    2.960 --     4 C    0.997    35 H    0.945    34 H    0.939
     8   7 N    3.042 --     3 C    1.570     9 C    1.197
     9   6 C    3.964 --    21 C    1.508     8 N    1.197    10 C    0.990
    10   6 C    3.907 --    11 O    1.571    12 N    1.265     9 C    0.990
    11   8 O    1.879 --    10 C    1.571    12 N    0.171
    12   7 N    3.346 --    10 C    1.265    13 C    0.942    36 H    0.888
                            11 O    0.171
    13   6 C    3.949 --    14 C    0.994    37 H    0.977    38 H    0.967
                            12 N    0.942
    14   6 C    3.988 --    15 C    1.424    20 C    1.413    13 C    0.994
    15   6 C    3.994 --    16 C    1.438    14 C    1.424    39 H    0.971
                            19 C    0.110
    16   6 C    3.991 --    15 C    1.438    17 C    1.405    40 H    0.969
                            20 C    0.112
    17   6 C    3.860 --    16 C    1.405    19 C    1.397    18 F    0.923
    18   9 F    1.051 --    17 C    0.923
    19   6 C    3.992 --    20 C    1.448    17 C    1.397    41 H    0.970
                            15 C    0.110
    20   6 C    3.992 --    19 C    1.448    14 C    1.413    42 H    0.968
                            16 C    0.112
    21   6 C    3.917 --     9 C    1.508    23 C    1.093    22 O    1.070
    22   8 O    2.063 --    21 C    1.070    43 H    0.800
    23   6 C    3.916 --    24 O    1.537     2 N    1.134    21 C    1.093
    24   8 O    1.888 --    23 C    1.537     2 N    0.133
    25   1 H    1.007 --     1 C    0.973
    26   1 H    1.002 --     1 C    0.977
    27   1 H    1.008 --     1 C    0.977
    28   1 H    1.007 --     5 C    0.983
    29   1 H    1.001 --     5 C    0.986
    30   1 H    1.004 --     5 C    0.982
    31   1 H    1.003 --     6 C    0.985
    32   1 H    1.005 --     6 C    0.983
    33   1 H    1.005 --     6 C    0.979
    34   1 H    0.977 --     7 N    0.939
    35   1 H    0.967 --     7 N    0.945
    36   1 H    0.945 --    12 N    0.888
    37   1 H    1.003 --    13 C    0.977
    38   1 H    1.010 --    13 C    0.967
    39   1 H    1.000 --    15 C    0.971
    40   1 H    0.998 --    16 C    0.969
    41   1 H    0.999 --    19 C    0.970
    42   1 H    1.010 --    20 C    0.968
    43   1 H    0.846 --    22 O    0.800
 ---------------------------------------------------------------------------

           -------------------------------------------------
          | TOTAL ENERGY              -76.174900778298 Eh   |
          | GRADIENT NORM               0.000461060321 Eh/α |
          | HOMO-LUMO GAP               2.732070440329 eV   |
           -------------------------------------------------

 * finished run on 2023/06/20 at 14:51:42.866
