   * xtb version 6.5.1 (579679a) compiled by 'ehlert@majestix' on 2022-07-11
          program call               : /lustre/hpc/kemi/ree/PhD/git/ReactivityQM/dep/xtb-6.5.1/bin/xtb --gfn 1 /lustre/hpc/kemi/ree/PhD/git/ReactivityQM/calculations/R03/reac02prodE11/conf13/R03_reac02prodE11_conf13_gfn1.xyz --opt --vfukui --chrg -1 --uhf 0 --alpb DMSO

   ID    Z sym.   atoms
    1    6 C      1, 3, 5, 7-10, 12, 14, 17-19, 22, 23, 25
    2    8 O      2, 4, 13, 20, 24, 26
    3    7 N      6, 11, 15, 16, 21
    4    1 H      27-46

      * Solvation model:               ALPB
        Solvent                        DMSO
        Solvent mass                       7.8130E+01 g/mol
          :  Hamiltonian                  GFN1-xTB          :
 * total energy  :   -87.0499631 Eh     change       -0.4813216E-10 Eh
 * total energy  :   -87.0597270 Eh     change       -0.9763900E-02 Eh
 * total energy  :   -87.0631323 Eh     change       -0.3405281E-02 Eh
 * total energy  :   -87.0636451 Eh     change       -0.5127982E-03 Eh
 * total energy  :   -87.0640132 Eh     change       -0.3680914E-03 Eh
 * total energy  :   -87.0641888 Eh     change       -0.1755627E-03 Eh
 * total energy  :   -87.0643376 Eh     change       -0.1488277E-03 Eh
 * total energy  :   -87.0644132 Eh     change       -0.7565614E-04 Eh
 * total energy  :   -87.0644583 Eh     change       -0.4506950E-04 Eh
 * total energy  :   -87.0644886 Eh     change       -0.3025487E-04 Eh
 * total energy  :   -87.0645370 Eh     change       -0.2243045E-04 Eh
 * total energy  :   -87.0645542 Eh     change       -0.1719296E-04 Eh
 * total energy  :   -87.0645685 Eh     change       -0.1433963E-04 Eh
 * total energy  :   -87.0645796 Eh     change       -0.1109984E-04 Eh
 * total energy  :   -87.0645894 Eh     change       -0.9773687E-05 Eh
 * total energy  :   -87.0645955 Eh     change       -0.6036268E-05 Eh
 * total energy  :   -87.0646026 Eh     change       -0.7171665E-05 Eh
 * total energy  :   -87.0646083 Eh     change       -0.5675495E-05 Eh
 * total energy  :   -87.0646132 Eh     change       -0.4913756E-05 Eh
   *** GEOMETRY OPTIMIZATION CONVERGED AFTER 20 ITERATIONS ***

 final structure:
================
46
 xtb: 6.5.1 (579679a)
C           -5.68107125738260        2.54717739856160       -0.93341891739282
O           -4.60457117576052        1.66276500215921       -0.61351761689839
C           -4.71792632101946        0.41355732555292       -1.05861581180753
O           -5.67853750418804        0.03034181157304       -1.71027681170551
C           -3.59343745821744       -0.46546082571890       -0.69080062173443
N           -2.57248023589060        0.07467214488958        0.03544510145692
C           -1.56310239197174       -0.64849120553743        0.40854446844017
C           -0.51398077185978        0.05942094779100        1.26515993456539
C           -0.64904785083259       -0.45198337662480        2.70965288672560
C           -0.78605889848313        1.57375250520695        1.23623045467427
N            0.80583090706434       -0.22497832183205        0.70694320728749
C            1.96112341379023        0.38419396527683        1.26631580459567
O            1.98313341529650        0.79419785097223        2.43866565831908
C            3.03144947063962        0.38408740744953        0.34437745740981
N            2.95421892648374       -0.03922129358727       -0.91366313029065
N            4.09530906335831        0.07815445069570       -1.51785154851166
C            5.05325403987625        0.64095793741639       -0.55199894319221
C            5.59514754503449        1.97897778058861       -1.07774701081931
C            6.19604850481258       -0.35952785113627       -0.31371373139064
O            4.31823247138176        0.84212074817129        0.64784661395668
N           -1.48334214444862       -1.98038528828727        0.08916237832971
C           -0.40417755294493       -2.87986641980211        0.50933557354883
C           -2.47138207935482       -2.63722978633655       -0.64293828196815
O           -2.36917434775169       -3.83547110583738       -0.88620806328697
C           -3.58162220139025       -1.79222642784467       -1.05454902450683
O           -4.55042282508459       -2.38746188465819       -1.76425324322518
H           -5.77849750160676        2.64427334249802       -2.01727440634379
H           -5.43913347892094        3.50980394059920       -0.48762247142667
H           -6.61703089760439        2.16278510562035       -0.52156314690617
H           -0.05146169449255        0.16148715068500        3.38124746882947
H           -0.31764328948628       -1.48430834358933        2.79604688438211
H           -1.69322574658422       -0.39200567235195        3.01437813155476
H           -0.04165379870100        2.08887730015152        1.84132217246586
H           -1.77569032605435        1.78348023288078        1.63804016286342
H           -0.73763376908851        1.94550425962442        0.21365268063486
H            0.81503017854681       -0.19209222656127       -0.30787483468464
H            6.29108676204404        2.41125927946772       -0.36092956827426
H            4.76686704135319        2.66865877158783       -1.23113450919354
H            6.10558950838223        1.81925879490517       -2.02528514087865
H            6.72495814723216       -0.54133013941265       -1.24693926011788
H            5.78259824058808       -1.29859531495108        0.05054693480983
H            6.89151403184717        0.03402219307189        0.42554538161265
H           -0.07254903947458       -3.44774150656143       -0.36080032909423
H            0.42996260438113       -2.31906747355389        0.91720614057495
H           -0.79505111678845       -3.57440105337009        1.25357459074394
H           -5.26144959672314       -1.74194312983750       -1.97543066416134

          :  Hamiltonian                  GFN1-xTB          :
         :: total energy             -87.064613215344 Eh    ::
         :: gradient norm              0.000890113180 Eh/a0 ::
         :: HOMO-LUMO gap              0.171333924145 eV    ::
         :: SCC energy               -87.854088400654 Eh    ::
         :: -> Gsolv                  -0.106766932913 Eh    ::
         :: repulsion energy           0.818310589338 Eh    ::

    * Orbital Energies and Occupations

         #    Occupation            Energy/Eh            Energy/eV
      -------------------------------------------------------------
         1        2.0000           -0.8356788             -22.7400
       ...           ...                  ...                  ...
        59        2.0000           -0.4780319             -13.0079
        60        2.0000           -0.4735134             -12.8850
        61        2.0000           -0.4621289             -12.5752
        62        2.0000           -0.4521762             -12.3043
        63        2.0000           -0.4474358             -12.1753
        64        2.0000           -0.4426113             -12.0441
        65        2.0000           -0.4327199             -11.7749
        66        2.0000           -0.4250569             -11.5664
        67        2.0000           -0.4164883             -11.3332
        68        2.0000           -0.4130749             -11.2403
        69        2.0000           -0.3996383             -10.8747
        70        2.0000           -0.3782138             -10.2917
        71        1.9298           -0.3225580              -8.7773 (HOMO)
        72        0.0702           -0.3162616              -8.6059 (LUMO)
        73                         -0.2708861              -7.3712
        74                         -0.2469260              -6.7192
        75                         -0.2324004              -6.3239
        76                         -0.1472685              -4.0074
        77                         -0.1348661              -3.6699
        78                         -0.1347593              -3.6670
        79                         -0.1285596              -3.4983
        80                         -0.1099867              -2.9929
        81                         -0.1061020              -2.8872
        82                         -0.1027497              -2.7960
       ...                                ...                  ...
       144                          0.7138159              19.4239
      -------------------------------------------------------------
                  HL-Gap            0.0062964 Eh            0.1713 eV

Wiberg/Mayer (AO) data.
largest (>0.10) Wiberg bond orders for each atom

     #   Z sym  total        # sym  WBO       # sym  WBO       # sym  WBO
 ---------------------------------------------------------------------------
     1   6 C    3.872 --    28 H    0.986    29 H    0.979    27 H    0.979
                             2 O    0.898
     2   8 O    2.202 --     3 C    1.119     1 C    0.898     4 O    0.124
     3   6 C    3.826 --     4 O    1.590     2 O    1.119     5 C    1.035
     4   8 O    1.918 --     3 C    1.590     2 O    0.124
     5   6 C    3.946 --    25 C    1.453     6 N    1.190     3 C    1.035
     6   7 N    3.024 --     7 C    1.561     5 C    1.190
     7   6 C    3.917 --     6 N    1.561    21 N    1.174     8 C    0.973
     8   6 C    3.955 --    10 C    0.989     9 C    0.981     7 C    0.973
                            11 N    0.953
     9   6 C    3.991 --    32 H    0.987    31 H    0.982     8 C    0.981
                            30 H    0.976
    10   6 C    3.993 --     8 C    0.989    35 H    0.986    34 H    0.986
                            33 H    0.982
    11   7 N    3.170 --    12 C    1.032     8 C    0.953    36 H    0.918
    12   6 C    3.913 --    13 O    1.480    14 C    1.221    11 N    1.032
    13   8 O    1.819 --    12 C    1.480
    14   6 C    3.819 --    15 N    1.378    12 C    1.221    20 O    0.947
                            16 N    0.142
    15   7 N    3.049 --    16 N    1.477    14 C    1.378
    16   7 N    2.854 --    15 N    1.477    17 C    0.981    14 C    0.142
    17   6 C    3.897 --    16 N    0.981    18 C    0.978    19 C    0.977
                            20 O    0.924
    18   6 C    3.991 --    39 H    0.988    37 H    0.986    38 H    0.985
                            17 C    0.978
    19   6 C    3.990 --    40 H    0.988    42 H    0.986    41 H    0.985
                            17 C    0.977
    20   8 O    2.056 --    14 C    0.947    17 C    0.924
    21   7 N    3.492 --     7 C    1.174    23 C    1.111    22 C    0.931
                            24 O    0.133
    22   6 C    3.924 --    45 H    0.978    43 H    0.977    44 H    0.972
                            21 N    0.931
    23   6 C    3.904 --    24 O    1.560    21 N    1.111    25 C    1.088
    24   8 O    1.870 --    23 C    1.560    21 N    0.133
    25   6 C    3.894 --     5 C    1.453    26 O    1.106    23 C    1.088
    26   8 O    2.070 --    25 C    1.106    46 H    0.785
    27   1 H    1.007 --     1 C    0.979
    28   1 H    1.011 --     1 C    0.986
    29   1 H    1.007 --     1 C    0.979
    30   1 H    1.022 --     9 C    0.976
    31   1 H    1.005 --     9 C    0.982
    32   1 H    1.005 --     9 C    0.987
    33   1 H    1.012 --    10 C    0.982
    34   1 H    1.015 --    10 C    0.986
    35   1 H    1.010 --    10 C    0.986
    36   1 H    0.983 --    11 N    0.918
    37   1 H    1.007 --    18 C    0.986
    38   1 H    1.013 --    18 C    0.985
    39   1 H    1.009 --    18 C    0.988
    40   1 H    1.009 --    19 C    0.988
    41   1 H    1.013 --    19 C    0.985
    42   1 H    1.007 --    19 C    0.986
    43   1 H    1.009 --    22 C    0.977
    44   1 H    1.022 --    22 C    0.972
    45   1 H    1.005 --    22 C    0.978
    46   1 H    0.859 --    26 O    0.785
 ---------------------------------------------------------------------------

           -------------------------------------------------
          | TOTAL ENERGY              -87.064613215344 Eh   |
          | GRADIENT NORM               0.000890113180 Eh/α |
          | HOMO-LUMO GAP               0.171333924145 eV   |
           -------------------------------------------------

 * finished run on 2023/06/20 at 15:32:29.019
