   * xtb version 6.5.1 (579679a) compiled by 'ehlert@majestix' on 2022-07-11
          program call               : /lustre/hpc/kemi/ree/PhD/git/ReactivityQM/dep/xtb-6.5.1/bin/xtb --gfn 1 /lustre/hpc/kemi/ree/PhD/git/ReactivityQM/calculations/R03/reac01prodN03/conf06/R03_reac01prodN03_conf06_gfn1.xyz --opt --vfukui --chrg 1 --uhf 0 --alpb DMSO

   ID    Z sym.   atoms
    1    6 C      1-4, 6-9
    2    9 F      5
    3    7 N      10
    4    1 H      11-21

      * Solvation model:               ALPB
        Solvent                        DMSO
        Solvent mass                       7.8130E+01 g/mol
          :  Hamiltonian                  GFN1-xTB          :
 * total energy  :   -30.7614108 Eh     change       -0.1712408E-11 Eh
 * total energy  :   -30.7674029 Eh     change       -0.5992103E-02 Eh
 * total energy  :   -30.7695331 Eh     change       -0.2130202E-02 Eh
 * total energy  :   -30.7699221 Eh     change       -0.3889832E-03 Eh
 * total energy  :   -30.7702152 Eh     change       -0.2930531E-03 Eh
 * total energy  :   -30.7703476 Eh     change       -0.1324635E-03 Eh
 * total energy  :   -30.7704801 Eh     change       -0.1324249E-03 Eh
 * total energy  :   -30.7705974 Eh     change       -0.1173363E-03 Eh
 * total energy  :   -30.7706825 Eh     change       -0.8513796E-04 Eh
 * total energy  :   -30.7707463 Eh     change       -0.6379896E-04 Eh
 * total energy  :   -30.7708050 Eh     change       -0.5868470E-04 Eh
 * total energy  :   -30.7708691 Eh     change       -0.6408912E-04 Eh
 * total energy  :   -30.7709435 Eh     change       -0.7436929E-04 Eh
 * total energy  :   -30.7709989 Eh     change       -0.5540017E-04 Eh
 * total energy  :   -30.7710220 Eh     change       -0.2314100E-04 Eh
 * total energy  :   -30.7710376 Eh     change       -0.1559426E-04 Eh
 * total energy  :   -30.7710453 Eh     change       -0.7677441E-05 Eh
 * total energy  :   -30.7710476 Eh     change       -0.2299384E-05 Eh
   *** GEOMETRY OPTIMIZATION CONVERGED AFTER 18 ITERATIONS ***

 final structure:
================
21
 xtb: 6.5.1 (579679a)
C           -0.71958294950079       -2.02998188446469       -0.12999947480625
C           -0.38404882786104       -0.66390602638044        0.55393060213431
C           -1.65522976856346        0.01630255820980        0.88548456209120
C           -1.98716206098066        1.17516661572852        0.26984212747414
F           -3.15337425120636        1.75694813412293        0.52849954753242
C           -1.13323427171121        1.81567458464857       -0.65236561985002
C            0.11684285079046        1.29043843605723       -0.91040718820068
C            0.53817100651683        0.10066279192921       -0.31908345154544
C            1.94896897203809       -0.34228487618609       -0.46566954333860
N            2.55122088218843        0.49513229193779        0.56531463163697
H            0.19845543299931       -2.58782875371246       -0.29555849679277
H           -1.37531533114264       -2.59908725636721        0.52512823931792
H           -1.21607519662561       -1.85021769506607       -1.08070053036034
H            0.12563591715357       -0.94083556889085        1.48624197046093
H           -2.32159891247548       -0.46124270257752        1.59293723007966
H           -1.46926032679508        2.72438940052970       -1.13800655142946
H            0.78311098139829        1.80972949952318       -1.58945075075620
H            2.38247834876930       -0.09471476171028       -1.43444307557871
H            2.11242490860280       -1.39171877317277       -0.22636115843452
H            2.47638035261792        1.47796673284926        0.35256498207721
H            2.18119124378776        0.29940625299201        1.48210194828831

          :  Hamiltonian                  GFN1-xTB          :
         :: total energy             -30.771047594124 Eh    ::
         :: gradient norm              0.000972608791 Eh/a0 ::
         :: HOMO-LUMO gap              1.358202449474 eV    ::
         :: SCC energy               -31.164476979891 Eh    ::
         :: -> Gsolv                  -0.088474406776 Eh    ::
         :: repulsion energy           0.403982184796 Eh    ::

    * Orbital Energies and Occupations

         #    Occupation            Energy/Eh            Energy/eV
      -------------------------------------------------------------
         1        2.0000           -0.9070144             -24.6811
       ...           ...                  ...                  ...
        15        2.0000           -0.6035515             -16.4235
        16        2.0000           -0.5905898             -16.0708
        17        2.0000           -0.5836289             -15.8813
        18        2.0000           -0.5757364             -15.6666
        19        2.0000           -0.5678075             -15.4508
        20        2.0000           -0.5611688             -15.2702
        21        2.0000           -0.5473982             -14.8955
        22        2.0000           -0.5392763             -14.6745
        23        2.0000           -0.5368603             -14.6087
        24        2.0000           -0.5350615             -14.5598
        25        2.0000           -0.5169542             -14.0670
        26        2.0000           -0.4974567             -13.5365
        27        2.0000           -0.4588108             -12.4849 (HOMO)
        28                         -0.4088978             -11.1267 (LUMO)
        29                         -0.3184552              -8.6656
        30                         -0.2364816              -6.4350
        31                         -0.1577850              -4.2935
        32                         -0.1536304              -4.1805
        33                         -0.1461885              -3.9780
        34                         -0.1397227              -3.8020
        35                         -0.1320543              -3.5934
        36                         -0.1280340              -3.4840
        37                         -0.1058784              -2.8811
        38                         -0.0940429              -2.5590
       ...                                ...                  ...
        62                          0.5470317              14.8855
      -------------------------------------------------------------
                  HL-Gap            0.0499130 Eh            1.3582 eV

Wiberg/Mayer (AO) data.
largest (>0.10) Wiberg bond orders for each atom

     #   Z sym  total        # sym  WBO       # sym  WBO       # sym  WBO
 ---------------------------------------------------------------------------
     1   6 C    3.967 --    13 H    0.987    12 H    0.981    11 H    0.980
                             2 C    0.883
     2   6 C    3.993 --     8 C    1.072     3 C    1.069    14 H    0.898
                             1 C    0.883
     3   6 C    3.976 --     4 C    1.584     2 C    1.069    15 H    0.960
     4   6 C    3.881 --     3 C    1.584     6 C    1.250     5 F    0.960
     5   9 F    1.100 --     4 C    0.960
     6   6 C    3.964 --     7 C    1.482     4 C    1.250    16 H    0.961
     7   6 C    3.987 --     6 C    1.482     8 C    1.404    17 H    0.961
     8   6 C    3.918 --     7 C    1.404     2 C    1.072     9 C    1.023
                            10 N    0.186
     9   6 C    3.957 --     8 C    1.023    19 H    0.974    18 H    0.970
                            10 N    0.941
    10   7 N    3.170 --     9 C    0.941    21 H    0.923    20 H    0.920
                             8 C    0.186
    11   1 H    0.996 --     1 C    0.980
    12   1 H    0.994 --     1 C    0.981
    13   1 H    0.995 --     1 C    0.987
    14   1 H    0.990 --     2 C    0.898
    15   1 H    0.987 --     3 C    0.960
    16   1 H    0.988 --     6 C    0.961
    17   1 H    0.989 --     7 C    0.961
    18   1 H    0.999 --     9 C    0.970
    19   1 H    1.001 --     9 C    0.974
    20   1 H    0.939 --    10 N    0.920
    21   1 H    0.940 --    10 N    0.923
 ---------------------------------------------------------------------------

           -------------------------------------------------
          | TOTAL ENERGY              -30.771047594124 Eh   |
          | GRADIENT NORM               0.000972608791 Eh/α |
          | HOMO-LUMO GAP               1.358202449474 eV   |
           -------------------------------------------------

 * finished run on 2023/06/20 at 15:14:11.305
