   * xtb version 6.5.1 (579679a) compiled by 'ehlert@majestix' on 2022-07-11
          program call               : /lustre/hpc/kemi/ree/PhD/git/ReactivityQM/dep/xtb-6.5.1/bin/xtb --gfn 1 /lustre/hpc/kemi/ree/PhD/git/ReactivityQM/calculations/R03/reac02prodN15/conf18/R03_reac02prodN15_conf18_gfn1.xyz --opt --vfukui --chrg 1 --uhf 0 --alpb DMSO

   ID    Z sym.   atoms
    1    6 C      1, 3, 5, 7-10, 12, 14, 17, 18, 21, 22, 24, 25
    2    8 O      2, 4, 13, 19, 23, 26
    3    7 N      6, 11, 15, 16, 20
    4    1 H      27-46

      * Solvation model:               ALPB
        Solvent                        DMSO
        Solvent mass                       7.8130E+01 g/mol
          :  Hamiltonian                  GFN1-xTB          :
 * total energy  :   -86.2736305 Eh     change       -0.1828937E-10 Eh
 * total energy  :   -86.2896641 Eh     change       -0.1603357E-01 Eh
 * total energy  :   -86.2976038 Eh     change       -0.7939730E-02 Eh
 * total energy  :   -86.2992288 Eh     change       -0.1624985E-02 Eh
 * total energy  :   -86.3003168 Eh     change       -0.1087969E-02 Eh
 * total energy  :   -86.3009195 Eh     change       -0.6027573E-03 Eh
 * total energy  :   -86.3015143 Eh     change       -0.5947643E-03 Eh
 * total energy  :   -86.3020293 Eh     change       -0.5149519E-03 Eh
 * total energy  :   -86.3023454 Eh     change       -0.3161488E-03 Eh
 * total energy  :   -86.3025344 Eh     change       -0.1889739E-03 Eh
 * total energy  :   -86.3053357 Eh     change       -0.6827933E-05 Eh
 * total energy  :   -86.3053441 Eh     change       -0.8383601E-05 Eh
 * total energy  :   -86.3053498 Eh     change       -0.5642455E-05 Eh
 * total energy  :   -86.3053558 Eh     change       -0.6046033E-05 Eh
 * total energy  :   -86.3053628 Eh     change       -0.6988025E-05 Eh
 * total energy  :   -86.3053702 Eh     change       -0.7396693E-05 Eh
 * total energy  :   -86.3053785 Eh     change       -0.8258933E-05 Eh
 * total energy  :   -86.3053842 Eh     change       -0.5759345E-05 Eh
 * total energy  :   -86.3053882 Eh     change       -0.4014380E-05 Eh
   *** GEOMETRY OPTIMIZATION CONVERGED AFTER 53 ITERATIONS ***

 final structure:
================
46
 xtb: 6.5.1 (579679a)
C           -5.10430292341522       -2.77463638676810        0.86271435376598
O           -3.95345780132281       -1.92200877721690        0.71510479688035
C           -4.14332262544752       -0.63805123859503        0.86574228495989
O           -5.19502284749915       -0.09723170372511        1.10453026142853
C           -2.86509154487271        0.16360343696221        0.71655667632722
N           -1.86450486999938       -0.36793108929107        0.10941362350481
C           -0.68419000571550        0.29744300699927       -0.06034054395981
C            0.33277548210578       -0.47888782216032       -0.85775216547980
C            0.02166406008377       -1.98263574130325       -0.82620626944428
C            0.21648967513579        0.05134334077335       -2.30344881725169
N            1.66073585473099       -0.25750870644221       -0.29968475519917
C            2.79719598245253       -0.70642966342736       -0.91699721226303
O            2.85977613655450       -1.12629273685514       -2.05142839105451
C            3.95193668158596       -0.57437425640578       -0.00378257528269
N            3.90472370164426       -0.16300086008349        1.22945812622546
N            5.17618124775768       -0.20932810776743        1.70619015023680
C            5.92209549039709       -0.64850387861361        0.73422973068574
C            7.38326604263451       -0.87631227315985        0.74765417126033
O            5.20373898455155       -0.89694516565916       -0.36947388262935
N           -0.51353963310187        1.51758028704623        0.40382210821372
C            0.70978869977841        2.31463431308890        0.27326512767100
C           -1.49071717760324        2.15466037774784        1.27978804018813
O           -1.15335000067767        3.08868941944965        1.93233922834634
C           -2.88536335398092        1.59847827280211        1.14540904199203
C           -3.49217303525218        2.36283627202709       -0.08099572882643
O           -3.59956813047847        1.86423345965643        2.29840006442817
H           -5.85901210862012       -2.49890026425899        0.12470448723323
H           -5.51343822585254       -2.65956261010814        1.86774954761241
H           -4.75303213826238       -3.79045977055501        0.70011669638200
H            0.01920158578016       -2.34367132093027        0.20015311519824
H            0.78846047112412       -2.50858587689775       -1.39232429799995
H           -0.94976521838519       -2.17438056023149       -1.27593556466524
H            0.79517687162311       -0.58879479353347       -2.96622701125231
H            0.58884672092922        1.07028834381560       -2.37367814337022
H           -0.82763919044016        0.02963898576582       -2.61051262336604
H            1.71960334850774       -0.15106167263668        0.70292983113642
H            7.59797005385864       -1.92612306252783        0.54627341075762
H            7.78793816881640       -0.60011208870185        1.71832589392121
H            7.85822498746414       -0.28009013298519       -0.03152007725687
H            1.29773781807198        2.20730992450039        1.18408669958505
H            0.41087228202968        3.35512852498173        0.15759743792181
H            1.27834480483341        1.98498582535743       -0.58696580459899
H           -2.90702910939707        2.18659430992859       -0.97933486350777
H           -4.51249236801631        2.01510610197620       -0.22574065854630
H           -3.49704557280087        3.42352781098240        0.16286041999627
H           -4.51868727131030        1.55573854698115        2.22239306009062

          :  Hamiltonian                  GFN1-xTB          :
         :: total energy             -86.305388237689 Eh    ::
         :: gradient norm              0.000587635959 Eh/a0 ::
         :: HOMO-LUMO gap              0.960130476443 eV    ::
         :: SCC energy               -87.133812146417 Eh    ::
         :: -> Gsolv                  -0.105454490326 Eh    ::
         :: repulsion energy           0.858211814005 Eh    ::

    * Orbital Energies and Occupations

         #    Occupation            Energy/Eh            Energy/eV
      -------------------------------------------------------------
         1        2.0000           -0.9003007             -24.4984
       ...           ...                  ...                  ...
        58        2.0000           -0.5376396             -14.6299
        59        2.0000           -0.5333601             -14.5135
        60        2.0000           -0.5313094             -14.4577
        61        2.0000           -0.5255958             -14.3022
        62        2.0000           -0.5243603             -14.2686
        63        2.0000           -0.5177289             -14.0881
        64        2.0000           -0.5103171             -13.8864
        65        2.0000           -0.4958298             -13.4922
        66        2.0000           -0.4914753             -13.3737
        67        2.0000           -0.4844214             -13.1818
        68        2.0000           -0.4788019             -13.0289
        69        2.0000           -0.4649837             -12.6528
        70        2.0000           -0.4633462             -12.6083 (HOMO)
        71                         -0.4280621             -11.6482 (LUMO)
        72                         -0.3560302              -9.6881
        73                         -0.3291755              -8.9573
        74                         -0.3150195              -8.5721
        75                         -0.2668645              -7.2618
        76                         -0.2661107              -7.2412
        77                         -0.2159185              -5.8754
        78                         -0.1707381              -4.6460
        79                         -0.1574038              -4.2832
        80                         -0.1534239              -4.1749
        81                         -0.1486100              -4.0439
       ...                                ...                  ...
       144                          0.7195593              19.5802
      -------------------------------------------------------------
                  HL-Gap            0.0352841 Eh            0.9601 eV

Wiberg/Mayer (AO) data.
largest (>0.10) Wiberg bond orders for each atom

     #   Z sym  total        # sym  WBO       # sym  WBO       # sym  WBO
 ---------------------------------------------------------------------------
     1   6 C    3.837 --    29 H    0.984    27 H    0.975    28 H    0.975
                             2 O    0.866
     2   8 O    2.255 --     3 C    1.187     1 C    0.866     4 O    0.156
     3   6 C    3.864 --     4 O    1.664     2 O    1.187     5 C    0.944
     4   8 O    1.976 --     3 C    1.664     2 O    0.156
     5   6 C    3.911 --     6 N    1.656    24 C    0.991     3 C    0.944
     6   7 N    3.057 --     5 C    1.656     7 C    1.181
     7   6 C    3.885 --    20 N    1.460     6 N    1.181     8 C    1.001
     8   6 C    3.931 --     7 C    1.001     9 C    0.976    11 N    0.941
                            10 C    0.937
     9   6 C    3.980 --    30 H    0.984    32 H    0.982    31 H    0.979
                             8 C    0.976
    10   6 C    3.972 --    35 H    0.983    34 H    0.980    33 H    0.964
                             8 C    0.937
    11   7 N    3.294 --    12 C    1.181     8 C    0.941    36 H    0.891
                            13 O    0.159
    12   6 C    3.907 --    13 O    1.635    11 N    1.181    14 C    1.000
    13   8 O    1.945 --    12 C    1.635    11 N    0.159
    14   6 C    3.881 --    15 N    1.597    19 O    1.068    12 C    1.000
    15   7 N    3.024 --    14 C    1.597    16 N    1.212
    16   7 N    2.982 --    17 C    1.591    15 N    1.212
    17   6 C    3.866 --    16 N    1.591    19 O    1.087    18 C    1.033
    18   6 C    3.984 --    17 C    1.033    38 H    0.982    39 H    0.962
                            37 H    0.961
    19   8 O    2.338 --    17 C    1.087    14 C    1.068
    20   7 N    3.568 --     7 C    1.460    22 C    0.937    21 C    0.907
    21   6 C    3.882 --    42 H    0.974    41 H    0.967    40 H    0.959
                            20 N    0.907
    22   6 C    3.852 --    23 O    1.815    24 C    0.960    20 N    0.937
    23   8 O    2.062 --    22 C    1.815
    24   6 C    3.943 --    26 O    1.007     5 C    0.991    22 C    0.960
                            25 C    0.858
    25   6 C    3.961 --    43 H    0.985    44 H    0.973    45 H    0.970
                            24 C    0.858
    26   8 O    1.924 --    24 C    1.007    46 H    0.811
    27   1 H    1.000 --     1 C    0.975
    28   1 H    0.999 --     1 C    0.975
    29   1 H    1.005 --     1 C    0.984
    30   1 H    0.999 --     9 C    0.984
    31   1 H    0.999 --     9 C    0.979
    32   1 H    1.006 --     9 C    0.982
    33   1 H    1.005 --    10 C    0.964
    34   1 H    0.997 --    10 C    0.980
    35   1 H    0.997 --    10 C    0.983
    36   1 H    0.948 --    11 N    0.891
    37   1 H    0.995 --    18 C    0.961
    38   1 H    0.997 --    18 C    0.982
    39   1 H    0.995 --    18 C    0.962
    40   1 H    0.993 --    21 C    0.959
    41   1 H    0.993 --    21 C    0.967
    42   1 H    1.005 --    21 C    0.974
    43   1 H    0.993 --    25 C    0.985
    44   1 H    0.998 --    25 C    0.973
    45   1 H    0.992 --    25 C    0.970
    46   1 H    0.848 --    26 O    0.811
 ---------------------------------------------------------------------------

           -------------------------------------------------
          | TOTAL ENERGY              -86.305388237689 Eh   |
          | GRADIENT NORM               0.000587635959 Eh/α |
          | HOMO-LUMO GAP               0.960130476443 eV   |
           -------------------------------------------------

 * finished run on 2023/06/20 at 15:52:01.825
