   * xtb version 6.5.1 (579679a) compiled by 'ehlert@majestix' on 2022-07-11
          program call               : /lustre/hpc/kemi/ree/PhD/git/ReactivityQM/dep/xtb-6.5.1/bin/xtb --gfn 1 /lustre/hpc/kemi/ree/PhD/git/ReactivityQM/calculations/RaltegravirCLI/reac02prodE04/conf05/RaltegravirCLI_reac02prodE04_conf05_gfn1.xyz --opt --vfukui --chrg -1 --uhf 0 --alpb DMSO

   ID    Z sym.   atoms
    1    6 C      1, 3, 5, 7-9, 12-16, 18, 19, 21-24
    2    7 N      2, 11, 20, 25
    3    8 O      4, 6, 10
    4    9 F      17
    5    1 H      26-47

      * Solvation model:               ALPB
        Solvent                        DMSO
        Solvent mass                       7.8130E+01 g/mol
          :  Hamiltonian                  GFN1-xTB          :
 * total energy  :   -80.1896074 Eh     change       -0.1915623E-10 Eh
 * total energy  :   -80.2047707 Eh     change       -0.1516331E-01 Eh
 * total energy  :   -80.2086923 Eh     change       -0.3921637E-02 Eh
 * total energy  :   -80.2093587 Eh     change       -0.6664285E-03 Eh
 * total energy  :   -80.2098982 Eh     change       -0.5394232E-03 Eh
 * total energy  :   -80.2100679 Eh     change       -0.1697047E-03 Eh
 * total energy  :   -80.2102063 Eh     change       -0.1384249E-03 Eh
 * total energy  :   -80.2102973 Eh     change       -0.9102111E-04 Eh
 * total energy  :   -80.2103876 Eh     change       -0.9026368E-04 Eh
 * total energy  :   -80.2104619 Eh     change       -0.7432348E-04 Eh
 * total energy  :   -80.2105942 Eh     change       -0.2007365E-04 Eh
 * total energy  :   -80.2106072 Eh     change       -0.1304260E-04 Eh
 * total energy  :   -80.2106242 Eh     change       -0.1697386E-04 Eh
 * total energy  :   -80.2106316 Eh     change       -0.7357257E-05 Eh
 * total energy  :   -80.2106421 Eh     change       -0.1055583E-04 Eh
 * total energy  :   -80.2106488 Eh     change       -0.6701107E-05 Eh
 * total energy  :   -80.2106555 Eh     change       -0.6644155E-05 Eh
 * total energy  :   -80.2106637 Eh     change       -0.8253220E-05 Eh
 * total energy  :   -80.2106664 Eh     change       -0.2656320E-05 Eh
   *** GEOMETRY OPTIMIZATION CONVERGED AFTER 22 ITERATIONS ***

 final structure:
================
47
 xtb: 6.5.1 (579679a)
C           -3.99262601425295        1.00472064459005       -1.40156348164627
N           -2.69637547616765        0.85554787116754       -0.75125574997929
C           -1.73465504758793        1.88997852977342       -1.14444758673039
O           -2.12781310354327        2.77484859355213       -1.96776012228692
C           -0.52726004904784        1.79466983823878       -0.53920117939702
O            0.49896330541818        2.74294565953314       -0.84435802886889
C           -0.12456571671183        0.67298628115762        0.36217069687985
C            0.74910050825986        1.16109058999675        1.54040259933109
C            0.72745239648573       -0.39433851539962       -0.38457133536982
O            0.59989467177218       -1.60520096392616       -0.23004102115306
N            1.62661340407886        0.12452218971637       -1.25034166392792
C            2.58645000384469       -0.71909788488050       -1.94272726057520
C            3.89696366039483       -0.78130187069605       -1.18635144901864
C            5.05822554863078       -0.24565828795484       -1.73624480150952
C            6.25916973823167       -0.29165256486152       -1.03963218108662
C            6.26673930364185       -0.87740346722069        0.21223456970641
F            7.42510941168064       -0.92591617488716        0.89521777086238
C            5.13219189531572       -1.41931646709984        0.79010909936697
C            3.94313541315688       -1.36730637500821        0.07838325339405
N           -1.29420976194717        0.00806360179270        0.91907479734674
C           -2.44783160953623        0.09994993709784        0.35500044187659
C           -3.56201887885605       -0.70028178857887        1.04829666333452
C           -4.57378911933055        0.25598080913528        1.69481323011159
C           -2.94795437067486       -1.58442602760627        2.14807058716402
N           -4.26365340667633       -1.55638875196837        0.08604833620215
H           -4.53857783430357        1.86430494958134       -0.99768315981882
H           -3.82689484286258        1.18141315992136       -2.46803388170372
H           -4.59138773129207        0.10422105774784       -1.28604053587456
H            0.09750789258470        3.38694167010320       -1.44686626155377
H            0.99431166127386        0.32301241231400        2.19271942312582
H            1.67006581933492        1.60761127200988        1.16825409015630
H            0.19951511788203        1.90631309652966        2.11498946261797
H            1.78130590847420        1.12226940234577       -1.29143575694101
H            2.15491354920742       -1.72336396808159       -2.02617239867952
H            2.74735530107907       -0.31911201037214       -2.94750472424944
H            5.03249839510723        0.20983328608076       -2.71950570073518
H            7.16888727324473        0.11828987128064       -1.45750651478232
H            5.18447118872715       -1.87211697577688        1.77169676814163
H            3.04115554741624       -1.78986131495352        0.50864767627294
H           -4.05722392532063        0.96036880295412        2.34694743882330
H           -5.12797343252149        0.81503585198282        0.94338996092889
H           -5.28856582887726       -0.30978286397104        2.29203541875461
H           -3.72721432051504       -2.19135805466213        2.60721508265904
H           -2.18996088884730       -2.24251878815895        1.72313358147807
H           -2.48015773327301       -0.96740621948712        2.91487603643842
H           -3.65743175206376       -2.31663804630912       -0.19764646867012
H           -5.06385607103791       -1.96876799673722        0.54316627957971

          :  Hamiltonian                  GFN1-xTB          :
         :: total energy             -80.210666376692 Eh    ::
         :: gradient norm              0.000283597881 Eh/a0 ::
         :: HOMO-LUMO gap              0.893799624413 eV    ::
         :: SCC energy               -81.072699626909 Eh    ::
         :: -> Gsolv                  -0.109309311664 Eh    ::
         :: repulsion energy           0.893405069406 Eh    ::

    * Orbital Energies and Occupations

         #    Occupation            Energy/Eh            Energy/eV
      -------------------------------------------------------------
         1        2.0000           -0.8590372             -23.3756
       ...           ...                  ...                  ...
        56        2.0000           -0.4599570             -12.5161
        57        2.0000           -0.4537665             -12.3476
        58        2.0000           -0.4471684             -12.1681
        59        2.0000           -0.4456540             -12.1269
        60        2.0000           -0.4388544             -11.9418
        61        2.0000           -0.4320146             -11.7557
        62        2.0000           -0.4159308             -11.3181
        63        2.0000           -0.4131805             -11.2432
        64        2.0000           -0.3939409             -10.7197
        65        2.0000           -0.3758769             -10.2281
        66        2.0000           -0.3721131             -10.1257
        67        2.0000           -0.3601704              -9.8007
        68        2.0000           -0.3003651              -8.1733 (HOMO)
        69                         -0.2675185              -7.2796 (LUMO)
        70                         -0.2603388              -7.0842
        71                         -0.2169724              -5.9041
        72                         -0.2070531              -5.6342
        73                         -0.1394680              -3.7951
        74                         -0.1249046              -3.3988
        75                         -0.1135876              -3.0909
        76                         -0.1109979              -3.0204
        77                         -0.1028362              -2.7983
        78                         -0.0976604              -2.6575
        79                         -0.0969515              -2.6382
       ...                                ...                  ...
       144                          0.6988399              19.0164
      -------------------------------------------------------------
                  HL-Gap            0.0328465 Eh            0.8938 eV

Wiberg/Mayer (AO) data.
largest (>0.10) Wiberg bond orders for each atom

     #   Z sym  total        # sym  WBO       # sym  WBO       # sym  WBO
 ---------------------------------------------------------------------------
     1   6 C    3.961 --    27 H    0.981    26 H    0.980    28 H    0.977
                             2 N    0.958
     2   7 N    3.362 --    21 C    1.198     1 C    0.958     3 C    0.899
                            20 N    0.169
     3   6 C    3.920 --     5 C    1.554     4 O    1.336     2 N    0.899
     4   8 O    1.692 --     3 C    1.336     5 C    0.180
     5   6 C    3.776 --     3 C    1.554     7 C    0.991     6 O    0.923
                             4 O    0.180
     6   8 O    1.927 --     5 C    0.923    29 H    0.856
     7   6 C    3.967 --     5 C    0.991    20 N    0.978     8 C    0.966
                             9 C    0.907
     8   6 C    3.997 --    30 H    0.988    31 H    0.987    32 H    0.985
                             7 C    0.966
     9   6 C    3.864 --    10 O    1.585    11 N    1.253     7 C    0.907
    10   8 O    1.869 --     9 C    1.585    11 N    0.155
    11   7 N    3.320 --     9 C    1.253    12 C    0.951    33 H    0.894
                            10 O    0.155
    12   6 C    3.959 --    13 C    0.995    35 H    0.978    34 H    0.966
                            11 N    0.951
    13   6 C    3.988 --    14 C    1.423    19 C    1.411    12 C    0.995
    14   6 C    3.994 --    15 C    1.437    13 C    1.423    36 H    0.971
                            18 C    0.109
    15   6 C    3.991 --    14 C    1.437    16 C    1.406    37 H    0.970
                            19 C    0.111
    16   6 C    3.858 --    15 C    1.406    18 C    1.397    17 F    0.920
    17   9 F    1.046 --    16 C    0.920
    18   6 C    3.992 --    19 C    1.449    16 C    1.397    38 H    0.970
                            14 C    0.109
    19   6 C    3.993 --    18 C    1.449    13 C    1.411    39 H    0.969
                            15 C    0.111
    20   7 N    2.977 --    21 C    1.644     7 C    0.978     2 N    0.169
    21   6 C    3.946 --    20 N    1.644     2 N    1.198    22 C    0.963
    22   6 C    3.963 --    24 C    0.993    23 C    0.992    25 N    0.974
                            21 C    0.963
    23   6 C    3.996 --    22 C    0.992    40 H    0.986    42 H    0.985
                            41 H    0.982
    24   6 C    3.997 --    22 C    0.993    43 H    0.987    45 H    0.984
                            44 H    0.984
    25   7 N    2.991 --    22 C    0.974    47 H    0.949    46 H    0.947
    26   1 H    1.016 --     1 C    0.980
    27   1 H    1.027 --     1 C    0.981
    28   1 H    1.035 --     1 C    0.977
    29   1 H    0.893 --     6 O    0.856
    30   1 H    1.012 --     8 C    0.988
    31   1 H    1.013 --     8 C    0.987
    32   1 H    1.014 --     8 C    0.985
    33   1 H    0.962 --    11 N    0.894
    34   1 H    1.015 --    12 C    0.966
    35   1 H    1.006 --    12 C    0.978
    36   1 H    1.001 --    14 C    0.971
    37   1 H    0.999 --    15 C    0.970
    38   1 H    0.999 --    18 C    0.970
    39   1 H    1.010 --    19 C    0.969
    40   1 H    1.006 --    23 C    0.986
    41   1 H    1.008 --    23 C    0.982
    42   1 H    1.003 --    23 C    0.985
    43   1 H    1.007 --    24 C    0.987
    44   1 H    1.020 --    24 C    0.984
    45   1 H    1.021 --    24 C    0.984
    46   1 H    0.965 --    25 N    0.947
    47   1 H    0.964 --    25 N    0.949
 ---------------------------------------------------------------------------

           -------------------------------------------------
          | TOTAL ENERGY              -80.210666376692 Eh   |
          | GRADIENT NORM               0.000283597881 Eh/α |
          | HOMO-LUMO GAP               0.893799624413 eV   |
           -------------------------------------------------

 * finished run on 2023/06/20 at 15:00:04.229
