   * xtb version 6.5.1 (579679a) compiled by 'ehlert@majestix' on 2022-07-11
          program call               : /lustre/hpc/kemi/ree/PhD/git/ReactivityQM/dep/xtb-6.5.1/bin/xtb --gfn 1 /lustre/hpc/kemi/ree/PhD/git/ReactivityQM/calculations/R02oxygendeprot/reac01prodN15/conf08/R02oxygendeprot_reac01prodN15_conf08_gfn1.xyz --opt --vfukui --chrg 0 --uhf 0 --alpb DMSO

   ID    Z sym.   atoms
    1    6 C      1, 3, 5, 7-10, 12, 14, 17, 18, 21, 23, 24
    2    8 O      2, 4, 13, 19, 22, 25
    3    7 N      6, 11, 15, 16, 20
    4    1 H      26-42

      * Solvation model:               ALPB
        Solvent                        DMSO
        Solvent mass                       7.8130E+01 g/mol
          :  Hamiltonian                  GFN1-xTB          :
 * total energy  :   -82.8912093 Eh     change       -0.3951186E-09 Eh
 * total energy  :   -82.9125705 Eh     change       -0.2136125E-01 Eh
 * total energy  :   -82.9321395 Eh     change       -0.1956902E-01 Eh
 * total energy  :   -82.9509882 Eh     change       -0.1884867E-01 Eh
 * total energy  :   -82.9747508 Eh     change       -0.2376255E-01 Eh
 * total energy  :   -82.8725390 Eh     change        0.1022118E+00 Eh
 * total energy  :   -82.9931287 Eh     change       -0.1205897E+00 Eh
 * total energy  :   -82.9971523 Eh     change       -0.4023673E-02 Eh
 * total energy  :   -82.9983087 Eh     change       -0.1156424E-02 Eh
 * total energy  :   -82.9995460 Eh     change       -0.1237227E-02 Eh
 * total energy  :   -83.0034502 Eh     change       -0.7681942E-05 Eh
 * total energy  :   -83.0034667 Eh     change       -0.1649655E-04 Eh
 * total energy  :   -83.0034773 Eh     change       -0.1056770E-04 Eh
 * total energy  :   -83.0034887 Eh     change       -0.1143225E-04 Eh
 * total energy  :   -83.0035043 Eh     change       -0.1556057E-04 Eh
 * total energy  :   -83.0035140 Eh     change       -0.9697608E-05 Eh
 * total energy  :   -83.0035235 Eh     change       -0.9517510E-05 Eh
 * total energy  :   -83.0035291 Eh     change       -0.5594586E-05 Eh
 * total energy  :   -83.0035332 Eh     change       -0.4051442E-05 Eh
   *** GEOMETRY OPTIMIZATION CONVERGED AFTER 44 ITERATIONS ***

 final structure:
================
42
 xtb: 6.5.1 (579679a)
C           -6.21127175294274        1.38449590030820        0.64111185234683
O           -5.15145499372801        0.48533217538632        0.28618160605098
C           -3.91738599396679        0.88010257925268        0.54727691147486
O           -3.62626667685285        1.93866963555201        1.04313251512387
C           -2.86779668505084       -0.14277454329327        0.13714785677812
N           -1.67715360419933       -0.01239007180182        0.88983067636875
C           -0.62179622350179       -0.60143032679531        0.48874829471887
C            0.61798795832166       -0.61667396259321        1.35813499387359
C            0.77834228262818       -2.04181637577035        1.90763734858971
C            0.49211375500336        0.40555868970103        2.49080525085368
N            1.75518765720887       -0.26854944953027        0.49903676876869
C            3.03938366372916       -0.28141673575888        0.93163865665929
O            3.42620521523416       -0.71509888211360        1.99969867948286
C            3.93987597959201        0.29709779737550       -0.09791622078382
N            3.57045988253852        0.83199447751457       -1.22318866739944
N            4.70523851926164        1.24232127539086       -1.85401283606034
C            5.69577614169165        0.93250173755229       -1.07240670371604
C            7.13706061011092        1.16971152844413       -1.30614948462690
O            5.27587373706973        0.33528054828101        0.05232835744086
N           -0.51897262797260       -1.25078813893052       -0.72503498394002
C           -1.46001346896535       -1.14244380065340       -1.72121981431693
O           -1.18906931150550       -1.36283265654887       -2.88189558858703
C           -2.81951328854327       -0.71872010168108       -1.24953292930594
C           -3.80450447787509       -0.37504471143755       -2.34069613879468
O           -3.29271555958569       -1.44195134595867       -0.13975154541264
H           -7.12384747996269        0.96471426199439        0.22473047032697
H           -6.28550059908396        1.45600129218208        1.72791472254156
H           -6.01787262476954        2.37358080129043        0.22152853357572
H           -0.13799335779552       -2.33406167119181        2.41862689660566
H            1.60532492161385       -2.08439981105210        2.61295957920684
H            0.96868541942652       -2.73724430885926        1.09241569647794
H            1.38412577892417        0.37663526847114        3.11363066664906
H            0.37390860309422        1.40586466148122        2.07740236110339
H           -0.37933955975489        0.16900823692472        3.09909192480828
H            1.56579861967517        0.25356770406359       -0.34367258963587
H            7.53232554228884        1.84192797084934       -0.54448748958261
H            7.68437690771639        0.22963219057758       -1.24280239520232
H            7.27950908491423        1.61126582248222       -2.28934844263037
H            0.39262375432801       -1.56817523281566       -1.02029380369048
H           -3.54110377553040        0.58005293115238       -2.79180908892693
H           -3.76383732342606       -1.14575968674259       -3.11036195602929
H           -4.81277564935381       -0.32374767269701       -1.93982594118307

          :  Hamiltonian                  GFN1-xTB          :
         :: total energy             -83.003533166329 Eh    ::
         :: gradient norm              0.000476037995 Eh/a0 ::
         :: HOMO-LUMO gap              3.656096915995 eV    ::
         :: SCC energy               -83.775371639964 Eh    ::
         :: -> Gsolv                  -0.049594520811 Eh    ::
         :: repulsion energy           0.797222599627 Eh    ::

    * Orbital Energies and Occupations

         #    Occupation            Energy/Eh            Energy/eV
      -------------------------------------------------------------
         1        2.0000           -0.8652760             -23.5454
       ...           ...                  ...                  ...
        55        2.0000           -0.5075752             -13.8118
        56        2.0000           -0.5066115             -13.7856
        57        2.0000           -0.5057360             -13.7618
        58        2.0000           -0.5024996             -13.6737
        59        2.0000           -0.4848896             -13.1945
        60        2.0000           -0.4794779             -13.0473
        61        2.0000           -0.4708606             -12.8128
        62        2.0000           -0.4676925             -12.7266
        63        2.0000           -0.4651791             -12.6582
        64        2.0000           -0.4638093             -12.6209
        65        2.0000           -0.4545046             -12.3677
        66        2.0000           -0.4533184             -12.3354
        67        2.0000           -0.4482814             -12.1984 (HOMO)
        68                         -0.3139223              -8.5423 (LUMO)
        69                         -0.3046647              -8.2903
        70                         -0.2899403              -7.8897
        71                         -0.2608123              -7.0971
        72                         -0.2582638              -7.0277
        73                         -0.2021176              -5.4999
        74                         -0.1438445              -3.9142
        75                         -0.1425723              -3.8796
        76                         -0.1342123              -3.6521
        77                         -0.1289557              -3.5091
        78                         -0.1256901              -3.4202
       ...                                ...                  ...
       134                          0.7264143              19.7667
      -------------------------------------------------------------
                  HL-Gap            0.1343591 Eh            3.6561 eV

Wiberg/Mayer (AO) data.
largest (>0.10) Wiberg bond orders for each atom

     #   Z sym  total        # sym  WBO       # sym  WBO       # sym  WBO
 ---------------------------------------------------------------------------
     1   6 C    3.859 --    26 H    0.985    28 H    0.980    27 H    0.979
                             2 O    0.883
     2   8 O    2.227 --     3 C    1.143     1 C    0.883     4 O    0.142
     3   6 C    3.851 --     4 O    1.688     2 O    1.143     5 C    0.936
     4   8 O    1.940 --     3 C    1.688     2 O    0.142
     5   6 C    3.870 --     6 N    1.026     3 C    0.936    25 O    0.908
                            23 C    0.834
     6   7 N    3.024 --     7 C    1.711     5 C    1.026
     7   6 C    3.928 --     6 N    1.711    20 N    1.108     8 C    0.978
     8   6 C    3.934 --    10 C    0.991     7 C    0.978     9 C    0.977
                            11 N    0.922
     9   6 C    3.988 --    29 H    0.985    31 H    0.984     8 C    0.977
                            30 H    0.977
    10   6 C    3.989 --     8 C    0.991    33 H    0.985    34 H    0.983
                            32 H    0.983
    11   7 N    3.325 --    12 C    1.232     8 C    0.922    35 H    0.894
                            13 O    0.172
    12   6 C    3.914 --    13 O    1.608    11 N    1.232    14 C    0.990
    13   8 O    1.921 --    12 C    1.608    11 N    0.172
    14   6 C    3.876 --    15 N    1.608    19 O    1.065    12 C    0.990
    15   7 N    3.019 --    14 C    1.608    16 N    1.202
    16   7 N    2.981 --    17 C    1.602    15 N    1.202
    17   6 C    3.870 --    16 N    1.602    19 O    1.084    18 C    1.032
    18   6 C    3.986 --    17 C    1.032    38 H    0.982    37 H    0.964
                            36 H    0.962
    19   8 O    2.332 --    17 C    1.084    14 C    1.065
    20   7 N    3.418 --    21 C    1.143     7 C    1.108    39 H    0.884
                            22 O    0.126
    21   6 C    3.893 --    22 O    1.656    20 N    1.143    23 C    0.979
    22   8 O    1.934 --    21 C    1.656    20 N    0.126
    23   6 C    3.861 --    24 C    1.002    21 C    0.979    25 O    0.894
                             5 C    0.834
    24   6 C    3.985 --    23 C    1.002    42 H    0.980    40 H    0.980
                            41 H    0.974
    25   8 O    1.967 --     5 C    0.908    23 C    0.894
    26   1 H    1.008 --     1 C    0.985
    27   1 H    1.004 --     1 C    0.979
    28   1 H    1.005 --     1 C    0.980
    29   1 H    1.001 --     9 C    0.985
    30   1 H    1.010 --     9 C    0.977
    31   1 H    1.001 --     9 C    0.984
    32   1 H    1.005 --    10 C    0.983
    33   1 H    1.004 --    10 C    0.985
    34   1 H    1.008 --    10 C    0.983
    35   1 H    0.951 --    11 N    0.894
    36   1 H    0.996 --    18 C    0.962
    37   1 H    0.996 --    18 C    0.964
    38   1 H    0.998 --    18 C    0.982
    39   1 H    0.931 --    20 N    0.884
    40   1 H    0.999 --    24 C    0.980
    41   1 H    1.002 --    24 C    0.974
    42   1 H    1.008 --    24 C    0.980
 ---------------------------------------------------------------------------

           -------------------------------------------------
          | TOTAL ENERGY              -83.003533166329 Eh   |
          | GRADIENT NORM               0.000476037995 Eh/α |
          | HOMO-LUMO GAP               3.656096915995 eV   |
           -------------------------------------------------

 * finished run on 2023/06/21 at 17:35:23.582
