   * xtb version 6.5.1 (579679a) compiled by 'ehlert@majestix' on 2022-07-11
          program call               : /lustre/hpc/kemi/ree/PhD/git/ReactivityQM/dep/xtb-6.5.1/bin/xtb --gfn 1 /lustre/hpc/kemi/ree/PhD/git/ReactivityQM/calculations/R03/reac02prodN10/conf08/R03_reac02prodN10_conf08_gfn1.xyz --opt --vfukui --chrg 1 --uhf 0 --alpb DMSO

   ID    Z sym.   atoms
    1    6 C      1, 3, 5, 6, 8, 11-16, 18, 20, 23, 24
    2    8 O      2, 4, 7, 9, 19, 25
    3    7 N      10, 17, 21, 22, 26
    4    1 H      27-46

      * Solvation model:               ALPB
        Solvent                        DMSO
        Solvent mass                       7.8130E+01 g/mol
          :  Hamiltonian                  GFN1-xTB          :
 * total energy  :   -86.2724504 Eh     change       -0.1607248E-10 Eh
 * total energy  :   -86.2912629 Eh     change       -0.1881243E-01 Eh
 * total energy  :   -86.2992875 Eh     change       -0.8024651E-02 Eh
 * total energy  :   -86.3012364 Eh     change       -0.1948881E-02 Eh
 * total energy  :   -86.3023666 Eh     change       -0.1130202E-02 Eh
 * total energy  :   -86.3029072 Eh     change       -0.5406024E-03 Eh
 * total energy  :   -86.3033588 Eh     change       -0.4516539E-03 Eh
 * total energy  :   -86.3038007 Eh     change       -0.4418829E-03 Eh
 * total energy  :   -86.3042453 Eh     change       -0.4446050E-03 Eh
 * total energy  :   -86.3046718 Eh     change       -0.4265058E-03 Eh
 * total energy  :   -86.3070148 Eh     change       -0.6102341E-05 Eh
 * total energy  :   -86.3070210 Eh     change       -0.6149631E-05 Eh
 * total energy  :   -86.3070301 Eh     change       -0.9141589E-05 Eh
 * total energy  :   -86.3070367 Eh     change       -0.6545428E-05 Eh
 * total energy  :   -86.3070448 Eh     change       -0.8118588E-05 Eh
 * total energy  :   -86.3070592 Eh     change       -0.1437760E-04 Eh
 * total energy  :   -86.3070659 Eh     change       -0.6735996E-05 Eh
 * total energy  :   -86.3070774 Eh     change       -0.1146598E-04 Eh
 * total energy  :   -86.3070812 Eh     change       -0.3842832E-05 Eh
   *** GEOMETRY OPTIMIZATION CONVERGED AFTER 49 ITERATIONS ***

 final structure:
================
46
 xtb: 6.5.1 (579679a)
C           -6.44957601511473        0.13601648584583        1.57605455961038
O           -5.32269702997755        0.29039582581704        0.69546914002132
C           -4.12758031758733        0.26963640486883        1.24318077608524
O           -3.89558048447701        0.14242860897721        2.41612497754410
C           -3.01326065702135        0.42112947912159        0.22133743251879
C           -3.15056169435077        0.24341894922515       -1.16919253703529
O           -4.25871983756206       -0.05379719834488       -1.75596553646624
C           -1.98369494471720        0.43742980476057       -2.05936761047254
O           -2.12994973149707        0.34643022637852       -3.26562157532495
N           -0.81765526638069        0.74579746803380       -1.43391866249983
C            0.31517158694073        1.05880492063775       -2.30062322621266
C           -0.67504949715249        0.78437990883509       -0.00566534472702
C            0.13024120477203        2.00872615672108        0.43677327982609
C            0.09801668174192       -0.62850657214293        0.50139200738284
C           -0.09255201422846       -0.76850098081643        2.00716458312091
C           -0.54411184383912       -1.79080951417056       -0.24324759024856
N            1.46128231495187       -0.55241231388695        0.11677388764053
C            2.49454111664659        0.00044009655655        0.84570032961561
O            2.36908673269557        0.58688318996512        1.89578528049809
C            3.77059146489705       -0.21917350537827        0.14684995537470
N            3.92225217708506       -0.83819383645949       -0.98960583754604
N            5.24462210804503       -0.80925313592615       -1.27720625199442
C            5.82635994828281       -0.17079839452319       -0.29992312924718
C            7.26411072770794        0.13603213593151       -0.15137587216753
O            4.94459689066591        0.22315997074124        0.62668038103707
N           -1.84379891079887        0.71747675034745        0.72374428742429
H           -6.43069674940459       -0.86040143537913        2.02137525075231
H           -6.41058627608995        0.89204968604379        2.36256609223894
H           -7.33685899297947        0.26481926116286        0.96021367895363
H           -4.12518512911468       -0.12985898756069       -2.72921521862975
H            1.23761538152281        0.72197376649532       -1.83865313592064
H            0.15917270041333        0.55230007526033       -3.25131275860696
H            0.35714529216709        2.13641325311885       -2.45940613290804
H            1.12998097800714        1.99494181335106        0.01496505335975
H           -0.39467685556255        2.89706609071583        0.08914814535436
H            0.19614954808109        2.03374709500980        1.52198359183750
H            0.11777279565942        0.15429724000285        2.54107763393604
H           -1.12329786192353       -1.05697998661373        2.20880882510107
H            0.58115102621017       -1.54319341857187        2.37100643568772
H           -0.31311841829066       -1.75572143956202       -1.30563851293038
H           -1.62423940798151       -1.78881384276627       -0.11276399972464
H           -0.15049657572247       -2.71932916258851        0.16936749418246
H            1.73005612780653       -1.02313300484275       -0.73713829922824
H            7.61944196126592       -0.20872218886615        0.81959666083634
H            7.82724706145852       -0.34845530353437       -0.94550924482200
H            7.41734068474605        1.21457055800811       -0.20179126322976

          :  Hamiltonian                  GFN1-xTB          :
         :: total energy             -86.307081210206 Eh    ::
         :: gradient norm              0.000720257619 Eh/a0 ::
         :: HOMO-LUMO gap              1.099310573829 eV    ::
         :: SCC energy               -87.133254384036 Eh    ::
         :: -> Gsolv                  -0.106639580683 Eh    ::
         :: repulsion energy           0.857899844956 Eh    ::

    * Orbital Energies and Occupations

         #    Occupation            Energy/Eh            Energy/eV
      -------------------------------------------------------------
         1        2.0000           -0.8935423             -24.3145
       ...           ...                  ...                  ...
        58        2.0000           -0.5318543             -14.4725
        59        2.0000           -0.5272842             -14.3481
        60        2.0000           -0.5235586             -14.2468
        61        2.0000           -0.5216286             -14.1942
        62        2.0000           -0.5177353             -14.0883
        63        2.0000           -0.5123907             -13.9429
        64        2.0000           -0.5019792             -13.6595
        65        2.0000           -0.4996628             -13.5965
        66        2.0000           -0.4911322             -13.3644
        67        2.0000           -0.4898891             -13.3306
        68        2.0000           -0.4791907             -13.0394
        69        2.0000           -0.4699913             -12.7891
        70        2.0000           -0.4688642             -12.7584 (HOMO)
        71                         -0.4284653             -11.6591 (LUMO)
        72                         -0.3548555              -9.6561
        73                         -0.3376120              -9.1869
        74                         -0.2787031              -7.5839
        75                         -0.2716677              -7.3925
        76                         -0.2271155              -6.1801
        77                         -0.2213872              -6.0243
        78                         -0.1655301              -4.5043
        79                         -0.1606602              -4.3718
        80                         -0.1503911              -4.0924
        81                         -0.1477228              -4.0197
       ...                                ...                  ...
       144                          0.7224064              19.6577
      -------------------------------------------------------------
                  HL-Gap            0.0403989 Eh            1.0993 eV

Wiberg/Mayer (AO) data.
largest (>0.10) Wiberg bond orders for each atom

     #   Z sym  total        # sym  WBO       # sym  WBO       # sym  WBO
 ---------------------------------------------------------------------------
     1   6 C    3.848 --    29 H    0.985    28 H    0.978    27 H    0.978
                             2 O    0.874
     2   8 O    2.229 --     3 C    1.159     1 C    0.874     4 O    0.150
     3   6 C    3.863 --     4 O    1.689     2 O    1.159     5 C    0.943
     4   8 O    1.958 --     3 C    1.689     2 O    0.150
     5   6 C    3.953 --    26 N    1.516     6 C    1.242     3 C    0.943
     6   6 C    3.846 --     7 O    1.294     5 C    1.242     8 C    1.004
     7   8 O    2.222 --     6 C    1.294    30 H    0.756
     8   6 C    3.923 --     9 O    1.585    10 N    1.212     6 C    1.004
     9   8 O    1.937 --     8 C    1.585    10 N    0.182
    10   7 N    3.495 --     8 C    1.212    12 C    0.981    11 C    0.926
                             9 O    0.182
    11   6 C    3.905 --    31 H    0.971    32 H    0.971    33 H    0.961
                            10 N    0.926
    12   6 C    3.906 --    26 N    1.136    10 N    0.981    13 C    0.948
                            14 C    0.688
    13   6 C    3.963 --    34 H    0.979    36 H    0.975    35 H    0.975
                            12 C    0.948
    14   6 C    3.900 --    17 N    1.029    16 C    1.005    15 C    0.998
                            12 C    0.688
    15   6 C    3.977 --    14 C    0.998    38 H    0.977    37 H    0.972
                            39 H    0.972
    16   6 C    3.986 --    14 C    1.005    40 H    0.980    41 H    0.979
                            42 H    0.965
    17   7 N    3.377 --    18 C    1.135    14 C    1.029    43 H    0.881
                            19 O    0.133
    18   6 C    3.899 --    19 O    1.647    17 N    1.135    20 C    1.015
    19   8 O    1.950 --    18 C    1.647    17 N    0.133
    20   6 C    3.880 --    21 N    1.578    25 O    1.067    18 C    1.015
    21   7 N    3.026 --    20 C    1.578    22 N    1.228
    22   7 N    2.980 --    23 C    1.572    21 N    1.228
    23   6 C    3.857 --    22 N    1.572    25 O    1.092    24 C    1.035
    24   6 C    3.982 --    23 C    1.035    45 H    0.981    44 H    0.962
                            46 H    0.957
    25   8 O    2.342 --    23 C    1.092    20 C    1.067
    26   7 N    3.034 --     5 C    1.516    12 C    1.136
    27   1 H    1.002 --     1 C    0.978
    28   1 H    1.003 --     1 C    0.978
    29   1 H    1.007 --     1 C    0.985
    30   1 H    0.806 --     7 O    0.756
    31   1 H    1.002 --    11 C    0.971
    32   1 H    0.998 --    11 C    0.971
    33   1 H    0.992 --    11 C    0.961
    34   1 H    0.999 --    13 C    0.979
    35   1 H    0.994 --    13 C    0.975
    36   1 H    1.004 --    13 C    0.975
    37   1 H    1.010 --    15 C    0.972
    38   1 H    1.008 --    15 C    0.977
    39   1 H    0.993 --    15 C    0.972
    40   1 H    0.994 --    16 C    0.980
    41   1 H    0.998 --    16 C    0.979
    42   1 H    0.993 --    16 C    0.965
    43   1 H    0.947 --    17 N    0.881
    44   1 H    0.994 --    24 C    0.962
    45   1 H    0.997 --    24 C    0.981
    46   1 H    0.994 --    24 C    0.957
 ---------------------------------------------------------------------------

           -------------------------------------------------
          | TOTAL ENERGY              -86.307081210206 Eh   |
          | GRADIENT NORM               0.000720257619 Eh/α |
          | HOMO-LUMO GAP               1.099310573829 eV   |
           -------------------------------------------------

 * finished run on 2023/06/20 at 15:45:19.324
