   * xtb version 6.5.1 (579679a) compiled by 'ehlert@majestix' on 2022-07-11
          program call               : /lustre/hpc/kemi/ree/PhD/git/ReactivityQM/dep/xtb-6.5.1/bin/xtb --gfn 1 /lustre/hpc/kemi/ree/PhD/git/ReactivityQM/calculations/R02oxygendeprot/reac01prodE06/conf17/R02oxygendeprot_reac01prodE06_conf17_gfn1.xyz --opt --vfukui --chrg -2 --uhf 0 --alpb DMSO

   ID    Z sym.   atoms
    1    6 C      1, 3, 5, 6, 8, 11-15, 17, 19, 22, 23
    2    8 O      2, 4, 7, 9, 18, 24
    3    7 N      10, 16, 20, 21, 25
    4    1 H      26-42

      * Solvation model:               ALPB
        Solvent                        DMSO
        Solvent mass                       7.8130E+01 g/mol
          :  Hamiltonian                  GFN1-xTB          :
 * total energy  :   -83.6050626 Eh     change       -0.1855753E-08 Eh
 * total energy  :   -83.6162733 Eh     change       -0.1121067E-01 Eh
 * total energy  :   -83.6201453 Eh     change       -0.3872037E-02 Eh
 * total energy  :   -83.6210251 Eh     change       -0.8797529E-03 Eh
 * total energy  :   -83.6216225 Eh     change       -0.5974078E-03 Eh
 * total energy  :   -83.6218787 Eh     change       -0.2562013E-03 Eh
 * total energy  :   -83.6220592 Eh     change       -0.1805438E-03 Eh
 * total energy  :   -83.6222108 Eh     change       -0.1515859E-03 Eh
 * total energy  :   -83.6223416 Eh     change       -0.1307984E-03 Eh
 * total energy  :   -83.6224681 Eh     change       -0.1264724E-03 Eh
 * total energy  :   -83.6252493 Eh     change       -0.6709469E-05 Eh
 * total energy  :   -83.6252591 Eh     change       -0.9812836E-05 Eh
 * total energy  :   -83.6252639 Eh     change       -0.4758130E-05 Eh
 * total energy  :   -83.6252713 Eh     change       -0.7486112E-05 Eh
 * total energy  :   -83.6252770 Eh     change       -0.5604715E-05 Eh
 * total energy  :   -83.6252800 Eh     change       -0.3069698E-05 Eh
 * total energy  :   -83.6252827 Eh     change       -0.2634663E-05 Eh
 * total energy  :   -83.6252842 Eh     change       -0.1570998E-05 Eh
 * total energy  :   -83.6252857 Eh     change       -0.1460591E-05 Eh
   *** GEOMETRY OPTIMIZATION CONVERGED AFTER 92 ITERATIONS ***

 final structure:
================
42
 xtb: 6.5.1 (579679a)
C           -5.63495795230577        2.13445003378150       -0.29068720790390
O           -4.41902580751758        1.41248978464246       -0.27639527696319
C           -4.44491487308435        0.21978983039661        0.42735294015235
O           -5.48788623941780       -0.12066150368090        0.98142570742958
C           -3.17014568116057       -0.47659497744417        0.39481049010125
C           -3.02914396670771       -1.72950821937118        1.06243652355013
O           -3.91060343865552       -2.29149146481522        1.77602531839319
C           -1.71984344543045       -2.42448103915273        0.84481867482154
O           -1.47124459055570       -3.58203018240833        1.21872959415474
N           -0.77014129856251       -1.73161388326739        0.15631521829722
C           -0.88884324295857       -0.36736647687930       -0.33597108541270
C           -0.31819705966849       -0.35109834276547       -1.76866680864483
C           -0.00487398115686        0.59347642565006        0.63040412608700
C           -0.48310539492761        0.40237569462937        2.07684495114388
C           -0.22614491192954        2.05561149923230        0.23715657170274
N            1.38987715045659        0.21574388047295        0.60239972302498
C            2.35219880922798        0.56277206334971       -0.31049358791877
O            2.20804230526561        1.40413402516119       -1.21840908868164
C            3.57614059271178       -0.17179379805123       -0.07166679671674
N            3.77459770653956       -1.08249306967828        0.87011047604238
N            5.06755415223577       -1.51220285555454        0.73051337578840
C            5.57910281454056       -0.85903008042565       -0.26075792749961
C            6.95762036763771       -0.97463129471245       -0.79548108171901
O            4.70776290577830        0.00749367247528       -0.82259287551746
N           -2.20650661616920        0.12706799968853       -0.36250588707914
H           -5.93647072063172        2.42260177216913        0.72330504767213
H           -5.47281248434434        3.03208926707111       -0.88801121916270
H           -6.44231620551493        1.54208328005809       -0.73733390063642
H            0.10937939761934       -2.19769698547287        0.00591100407549
H           -0.94878536358576       -0.97949553201587       -2.39731894177510
H            0.69626960724533       -0.74152703074033       -1.79177074369824
H           -0.32467982268128        0.65928919980975       -2.17032122072127
H           -0.32704221201716       -0.62506654253339        2.40575956659387
H            0.07119996179251        1.06475731486605        2.74120263606793
H           -1.54411173352654        0.64007200493208        2.15351792776443
H            0.10447162684501        2.26520235429273       -0.77718679841049
H            0.31212137602419        2.71450845848866        0.91860473188963
H           -1.29394580360095        2.27174566934459        0.30197139937688
H            1.65560389515622       -0.52627951514969        1.23681468871574
H            7.48801882836257       -1.76186501375703       -0.26497672615178
H            6.93244516940372       -1.20756667134874       -1.86010575323643
H            7.49333617927075       -0.03325975128967       -0.66948576499652

          :  Hamiltonian                  GFN1-xTB          :
         :: total energy             -83.625285689995 Eh    ::
         :: gradient norm              0.000399624224 Eh/a0 ::
         :: HOMO-LUMO gap              0.284535017080 eV    ::
         :: SCC energy               -84.350850774353 Eh    ::
         :: -> Gsolv                  -0.272685941402 Eh    ::
         :: repulsion energy           0.753396492044 Eh    ::

    * Orbital Energies and Occupations

         #    Occupation            Energy/Eh            Energy/eV
      -------------------------------------------------------------
         1        2.0000           -0.8154482             -22.1895
       ...           ...                  ...                  ...
        56        2.0000           -0.4460097             -12.1365
        57        2.0000           -0.4401961             -11.9783
        58        2.0000           -0.4179928             -11.3742
        59        2.0000           -0.4164501             -11.3322
        60        2.0000           -0.4139555             -11.2643
        61        2.0000           -0.4110861             -11.1862
        62        2.0000           -0.4049560             -11.0194
        63        2.0000           -0.4025052             -10.9527
        64        2.0000           -0.3913405             -10.6489
        65        2.0000           -0.3736570             -10.1677
        66        2.0000           -0.3687189             -10.0334
        67        2.0000           -0.3359017              -9.1403
        68        1.9919           -0.2790132              -7.5923 (HOMO)
        69        0.0081           -0.2685568              -7.3078 (LUMO)
        70                         -0.2374019              -6.4600
        71                         -0.2198775              -5.9832
        72                         -0.1645192              -4.4768
        73                         -0.1487500              -4.0477
        74                         -0.1278851              -3.4799
        75                         -0.1131897              -3.0800
        76                         -0.0997833              -2.7152
        77                         -0.0923698              -2.5135
        78                         -0.0889338              -2.4200
        79                         -0.0797920              -2.1712
       ...                                ...                  ...
       134                          0.7576549              20.6168
      -------------------------------------------------------------
                  HL-Gap            0.0104565 Eh            0.2845 eV

Wiberg/Mayer (AO) data.
largest (>0.10) Wiberg bond orders for each atom

     #   Z sym  total        # sym  WBO       # sym  WBO       # sym  WBO
 ---------------------------------------------------------------------------
     1   6 C    3.913 --    27 H    0.987    28 H    0.980    26 H    0.980
                             2 O    0.942
     2   8 O    2.115 --     3 C    0.991     1 C    0.942
     3   6 C    3.813 --     4 O    1.559     5 C    1.125     2 O    0.991
     4   8 O    1.828 --     3 C    1.559
     5   6 C    3.917 --    25 N    1.251     6 C    1.235     3 C    1.125
                             7 O    0.101
     6   6 C    3.878 --     7 O    1.432     5 C    1.235     8 C    0.994
     7   8 O    1.681 --     6 C    1.432     5 C    0.101
     8   6 C    3.872 --     9 O    1.518    10 N    1.196     6 C    0.994
     9   8 O    1.788 --     8 C    1.518    10 N    0.142
    10   7 N    3.308 --     8 C    1.196    11 C    0.926    29 H    0.915
                             9 O    0.142
    11   6 C    3.935 --    25 N    1.071    12 C    0.980    10 N    0.926
                            13 C    0.855
    12   6 C    3.995 --    30 H    0.986    31 H    0.986    32 H    0.982
                            11 C    0.980
    13   6 C    3.925 --    15 C    1.002    14 C    0.999    16 N    0.959
                            11 C    0.855
    14   6 C    3.996 --    13 C    0.999    34 H    0.987    33 H    0.983
                            35 H    0.983
    15   6 C    3.994 --    13 C    1.002    37 H    0.986    38 H    0.982
                            36 H    0.977
    16   7 N    3.309 --    17 C    1.166    13 C    0.959    39 H    0.910
                            18 O    0.142
    17   6 C    3.879 --    18 O    1.451    16 N    1.166    19 C    1.094
    18   8 O    1.775 --    17 C    1.451    16 N    0.142
    19   6 C    3.747 --    20 N    1.461    17 C    1.094    24 O    1.004
    20   7 N    2.836 --    19 C    1.461    21 N    1.179
    21   7 N    2.979 --    22 C    1.632    20 N    1.179
    22   6 C    3.839 --    21 N    1.632    24 O    1.057    23 C    1.025
    23   6 C    3.993 --    22 C    1.025    40 H    0.985    41 H    0.971
                            42 H    0.969
    24   8 O    2.227 --    22 C    1.057    19 C    1.004
    25   7 N    2.722 --     5 C    1.251    11 C    1.071
    26   1 H    1.018 --     1 C    0.980
    27   1 H    1.019 --     1 C    0.987
    28   1 H    1.018 --     1 C    0.980
    29   1 H    0.964 --    10 N    0.915
    30   1 H    1.019 --    12 C    0.986
    31   1 H    1.009 --    12 C    0.986
    32   1 H    1.020 --    12 C    0.982
    33   1 H    1.009 --    14 C    0.983
    34   1 H    1.007 --    14 C    0.987
    35   1 H    1.014 --    14 C    0.983
    36   1 H    1.025 --    15 C    0.977
    37   1 H    1.006 --    15 C    0.986
    38   1 H    1.029 --    15 C    0.982
    39   1 H    0.975 --    16 N    0.910
    40   1 H    1.003 --    23 C    0.985
    41   1 H    1.000 --    23 C    0.971
    42   1 H    1.000 --    23 C    0.969
 ---------------------------------------------------------------------------

           -------------------------------------------------
          | TOTAL ENERGY              -83.625285689995 Eh   |
          | GRADIENT NORM               0.000399624224 Eh/α |
          | HOMO-LUMO GAP               0.284535017080 eV   |
           -------------------------------------------------

 * finished run on 2023/06/21 at 17:08:05.406
