   * xtb version 6.5.1 (579679a) compiled by 'ehlert@majestix' on 2022-07-11
          program call               : /lustre/hpc/kemi/ree/PhD/git/ReactivityQM/dep/xtb-6.5.1/bin/xtb --gfn 1 /lustre/hpc/kemi/ree/PhD/git/ReactivityQM/calculations/R02/reac01prodE11/conf04/R02_reac01prodE11_conf04_gfn1.xyz --opt --vfukui --chrg -1 --uhf 0 --alpb DMSO

   ID    Z sym.   atoms
    1    6 C      1, 3, 5, 7-10, 12, 14, 17-19, 22, 24
    2    8 O      2, 4, 13, 20, 23, 25
    3    7 N      6, 11, 15, 16, 21
    4    1 H      26-43

      * Solvation model:               ALPB
        Solvent                        DMSO
        Solvent mass                       7.8130E+01 g/mol
          :  Hamiltonian                  GFN1-xTB          :
 * total energy  :   -83.8712814 Eh     change       -0.2192451E-09 Eh
 * total energy  :   -83.8793529 Eh     change       -0.8071447E-02 Eh
 * total energy  :   -83.8819357 Eh     change       -0.2582836E-02 Eh
 * total energy  :   -83.8822859 Eh     change       -0.3501283E-03 Eh
 * total energy  :   -83.8825822 Eh     change       -0.2963102E-03 Eh
 * total energy  :   -83.8827254 Eh     change       -0.1432125E-03 Eh
 * total energy  :   -83.8828973 Eh     change       -0.1719370E-03 Eh
 * total energy  :   -83.8830577 Eh     change       -0.1603702E-03 Eh
 * total energy  :   -83.8831943 Eh     change       -0.1366174E-03 Eh
 * total energy  :   -83.8833006 Eh     change       -0.1062983E-03 Eh
 * total energy  :   -83.8836277 Eh     change       -0.2444783E-04 Eh
 * total energy  :   -83.8836456 Eh     change       -0.1785992E-04 Eh
 * total energy  :   -83.8836584 Eh     change       -0.1288808E-04 Eh
 * total energy  :   -83.8836791 Eh     change       -0.2066615E-04 Eh
 * total energy  :   -83.8836928 Eh     change       -0.1367140E-04 Eh
 * total energy  :   -83.8837043 Eh     change       -0.1151071E-04 Eh
 * total energy  :   -83.8837120 Eh     change       -0.7655563E-05 Eh
 * total energy  :   -83.8837223 Eh     change       -0.1035224E-04 Eh
 * total energy  :   -83.8837258 Eh     change       -0.3475550E-05 Eh
   *** GEOMETRY OPTIMIZATION CONVERGED AFTER 24 ITERATIONS ***

 final structure:
================
43
 xtb: 6.5.1 (579679a)
C           -3.16588835841317        2.88751413330509       -2.83285316348553
O           -2.78793169825638        1.88060036639409       -1.89261815887661
C           -3.35306220168303        0.68512502409476       -2.05050886003825
O           -4.15503747382736        0.44883316261709       -2.94350550003017
C           -2.92886839644353       -0.31924300868145       -1.05907941497397
N           -2.02828568267260        0.07832033113793       -0.10572579897375
C           -1.63043096447664       -0.77183199172242        0.78348862662779
C           -0.63239393095735       -0.29166906153893        1.82794968070278
C           -0.30300889665715       -1.36451011593789        2.87276790393128
C           -1.24818192704219        0.94367574161536        2.50700980108860
N            0.55568497400966        0.09769176569508        1.07089454519660
C            1.72538700013240        0.51522576249866        1.72450995653191
O            1.72070743927326        0.90066495379123        2.90979710409649
C            2.86615333034356        0.50777705694542        0.88713024682691
N            4.09495096997707        0.89388702567616        1.20341024651749
N            4.90075540409628        0.75751679043053        0.19656170041995
C            4.12543307073096        0.21965762806933       -0.93034576323141
C            4.70171353987335       -1.13841816164177       -1.35786173892690
C            4.14746452209538        1.21800081650404       -2.09868685298145
O            2.79789904238381        0.06143787052220       -0.44302662113838
N           -2.08508101113648       -2.05826834462499        0.79489740427074
C           -2.99582756116570       -2.58039904173837       -0.10939054465857
O           -3.35568535315642       -3.74625243621252       -0.02481584117400
C           -3.42937487535777       -1.60408563422644       -1.10139445001727
O           -4.31216331158420       -2.03225022427913       -2.01405168979875
H           -2.91809987902569        2.56721676237440       -3.84764457839971
H           -4.23998748953381        3.07674562864783       -2.76926943660799
H           -2.60869117782741        3.78545347178031       -2.57269373228229
H            0.17459736702852       -2.22407552996788        2.40605245006111
H           -1.21024684735712       -1.68440279200634        3.38251078391811
H            0.37906337363673       -0.94901475811085        3.61360547485983
H           -2.18245767829379        0.66622808072735        2.99295777303317
H           -0.56444719837620        1.34331179938337        3.25363419935114
H           -1.45130456963982        1.70763397860370        1.75711580728687
H            0.71949748499467       -0.45739628258879        0.24150053839036
H            4.11317467664467       -1.55718647345977       -2.17201322381105
H            5.73196885849789       -1.01224395795766       -1.68432760058929
H            4.67702982758652       -1.82257255521286       -0.51163113591664
H            3.73331111376507        2.16965853090544       -1.76935876627162
H            3.55355859528088        0.83893301398034       -2.92822815405156
H            5.17283866392892        1.37095902144743       -2.42931038113294
H           -1.76309051684381       -2.70810964978871        1.49585738723590
H           -4.54164325455378       -1.30013969744977       -2.63164822297524

          :  Hamiltonian                  GFN1-xTB          :
         :: total energy             -83.883725779563 Eh    ::
         :: gradient norm              0.000770629955 Eh/a0 ::
         :: HOMO-LUMO gap              0.153896137537 eV    ::
         :: SCC energy               -84.639067074436 Eh    ::
         :: -> Gsolv                  -0.113464754066 Eh    ::
         :: repulsion energy           0.781256564463 Eh    ::

    * Orbital Energies and Occupations

         #    Occupation            Energy/Eh            Energy/eV
      -------------------------------------------------------------
         1        2.0000           -0.8340163             -22.6947
       ...           ...                  ...                  ...
        56        2.0000           -0.4777616             -13.0006
        57        2.0000           -0.4743601             -12.9080
        58        2.0000           -0.4740254             -12.8989
        59        2.0000           -0.4521733             -12.3043
        60        2.0000           -0.4476685             -12.1817
        61        2.0000           -0.4409847             -11.9998
        62        2.0000           -0.4339475             -11.8083
        63        2.0000           -0.4203765             -11.4390
        64        2.0000           -0.4172303             -11.3534
        65        2.0000           -0.4107662             -11.1775
        66        2.0000           -0.3998996             -10.8818
        67        2.0000           -0.3759806             -10.2310
        68        1.9030           -0.3218178              -8.7571 (HOMO)
        69        0.0970           -0.3161622              -8.6032 (LUMO)
        70                         -0.2700988              -7.3498
        71                         -0.2436281              -6.6295
        72                         -0.2312636              -6.2930
        73                         -0.1466762              -3.9913
        74                         -0.1342057              -3.6519
        75                         -0.1325749              -3.6075
        76                         -0.1257219              -3.4211
        77                         -0.1076882              -2.9303
        78                         -0.1063553              -2.8941
        79                         -0.1004112              -2.7323
       ...                                ...                  ...
       136                          0.7196513              19.5827
      -------------------------------------------------------------
                  HL-Gap            0.0056556 Eh            0.1539 eV

Wiberg/Mayer (AO) data.
largest (>0.10) Wiberg bond orders for each atom

     #   Z sym  total        # sym  WBO       # sym  WBO       # sym  WBO
 ---------------------------------------------------------------------------
     1   6 C    3.874 --    28 H    0.986    27 H    0.979    26 H    0.979
                             2 O    0.900
     2   8 O    2.199 --     3 C    1.116     1 C    0.900     4 O    0.123
     3   6 C    3.821 --     4 O    1.585     2 O    1.116     5 C    1.039
     4   8 O    1.914 --     3 C    1.585     2 O    0.123
     5   6 C    3.939 --    24 C    1.452     6 N    1.182     3 C    1.039
     6   7 N    3.017 --     7 C    1.581     5 C    1.182
     7   6 C    3.915 --     6 N    1.581    21 N    1.171     8 C    0.973
     8   6 C    3.956 --     9 C    0.994    10 C    0.982     7 C    0.973
                            11 N    0.949
     9   6 C    3.992 --     8 C    0.994    30 H    0.984    29 H    0.983
                            31 H    0.976
    10   6 C    3.991 --    32 H    0.988    34 H    0.984     8 C    0.982
                            33 H    0.979
    11   7 N    3.183 --    12 C    1.075     8 C    0.949    35 H    0.914
                            13 O    0.105
    12   6 C    3.912 --    13 O    1.460    14 C    1.210    11 N    1.075
    13   8 O    1.791 --    12 C    1.460    11 N    0.105
    14   6 C    3.800 --    15 N    1.392    12 C    1.210    20 O    0.935
                            16 N    0.136
    15   7 N    3.023 --    16 N    1.476    14 C    1.392
    16   7 N    2.833 --    15 N    1.476    17 C    0.983    14 C    0.136
    17   6 C    3.895 --    16 N    0.983    18 C    0.978    19 C    0.977
                            20 O    0.918
    18   6 C    3.988 --    37 H    0.987    36 H    0.986    38 H    0.985
                            17 C    0.978
    19   6 C    3.988 --    41 H    0.987    40 H    0.986    39 H    0.985
                            17 C    0.977
    20   8 O    2.050 --    14 C    0.935    17 C    0.918
    21   7 N    3.438 --     7 C    1.171    22 C    1.110    42 H    0.886
                            23 O    0.129
    22   6 C    3.893 --    23 O    1.576    21 N    1.110    24 C    1.080
    23   8 O    1.868 --    22 C    1.576    21 N    0.129
    24   6 C    3.883 --     5 C    1.452    25 O    1.109    22 C    1.080
    25   8 O    2.069 --    24 C    1.109    43 H    0.781
    26   1 H    1.007 --     1 C    0.979
    27   1 H    1.008 --     1 C    0.979
    28   1 H    1.011 --     1 C    0.986
    29   1 H    1.001 --     9 C    0.983
    30   1 H    1.001 --     9 C    0.984
    31   1 H    1.014 --     9 C    0.976
    32   1 H    1.005 --    10 C    0.988
    33   1 H    1.020 --    10 C    0.979
    34   1 H    1.017 --    10 C    0.984
    35   1 H    0.965 --    11 N    0.914
    36   1 H    1.007 --    18 C    0.986
    37   1 H    1.009 --    18 C    0.987
    38   1 H    1.013 --    18 C    0.985
    39   1 H    1.013 --    19 C    0.985
    40   1 H    1.007 --    19 C    0.986
    41   1 H    1.009 --    19 C    0.987
    42   1 H    0.937 --    21 N    0.886
    43   1 H    0.858 --    25 O    0.781
 ---------------------------------------------------------------------------

           -------------------------------------------------
          | TOTAL ENERGY              -83.883725779563 Eh   |
          | GRADIENT NORM               0.000770629955 Eh/α |
          | HOMO-LUMO GAP               0.153896137537 eV   |
           -------------------------------------------------

 * finished run on 2023/06/20 at 15:13:25.594
