   * xtb version 6.5.1 (579679a) compiled by 'ehlert@majestix' on 2022-07-11
          program call               : /lustre/hpc/kemi/ree/PhD/git/ReactivityQM/dep/xtb-6.5.1/bin/xtb --gfn 1 /lustre/hpc/kemi/ree/PhD/git/ReactivityQM/calculations/R02oxygendeprot/reac01prodE13/conf03/R02oxygendeprot_reac01prodE13_conf03_gfn1.xyz --opt --vfukui --chrg -2 --uhf 0 --alpb DMSO

   ID    Z sym.   atoms
    1    6 C      1, 3, 5, 6, 8, 10, 12-15, 17, 19, 22, 23
    2    8 O      2, 4, 7, 9, 18, 24
    3    7 N      11, 16, 20, 21, 25
    4    1 H      26-42

      * Solvation model:               ALPB
        Solvent                        DMSO
        Solvent mass                       7.8130E+01 g/mol
          :  Hamiltonian                  GFN1-xTB          :
 * total energy  :   -83.5715982 Eh     change       -0.7958079E-12 Eh
 * total energy  :   -83.5842544 Eh     change       -0.1265623E-01 Eh
 * total energy  :   -83.5888216 Eh     change       -0.4567156E-02 Eh
 * total energy  :   -83.5899427 Eh     change       -0.1121142E-02 Eh
 * total energy  :   -83.5909250 Eh     change       -0.9822841E-03 Eh
 * total energy  :   -83.5913651 Eh     change       -0.4400927E-03 Eh
 * total energy  :   -83.5916368 Eh     change       -0.2716771E-03 Eh
 * total energy  :   -83.5918274 Eh     change       -0.1906592E-03 Eh
 * total energy  :   -83.5919331 Eh     change       -0.1056670E-03 Eh
 * total energy  :   -83.5919832 Eh     change       -0.5004911E-04 Eh
 * total energy  :   -83.5922284 Eh     change       -0.8078895E-05 Eh
 * total energy  :   -83.5922397 Eh     change       -0.1134230E-04 Eh
 * total energy  :   -83.5922480 Eh     change       -0.8258799E-05 Eh
 * total energy  :   -83.5922686 Eh     change       -0.2061226E-04 Eh
 * total energy  :   -83.5922819 Eh     change       -0.1330130E-04 Eh
 * total energy  :   -83.5922919 Eh     change       -0.9995218E-05 Eh
 * total energy  :   -83.5922883 Eh     change        0.3547178E-05 Eh
 * total energy  :   -83.5922996 Eh     change       -0.1125348E-04 Eh
 * total energy  :   -83.5923024 Eh     change       -0.2788953E-05 Eh
   *** GEOMETRY OPTIMIZATION CONVERGED AFTER 33 ITERATIONS ***

 final structure:
================
42
 xtb: 6.5.1 (579679a)
C           -5.28316255005177       -1.88636819698255       -1.60377018817989
O           -4.07971408909344       -1.37043048413534       -1.08116254683132
C           -4.02698477491298        0.04362093410912       -1.00238170602684
O           -5.02362586911301        0.68245785498570       -1.38468342756693
C           -2.80600840308186        0.51373015464442       -0.47668058442291
C           -2.50311061529420        1.94968432740426       -0.29889253578087
O           -3.30988444589415        2.87693115625055       -0.61615020462885
C           -1.23841379857980        2.20360169413143        0.24814271082467
O           -0.68718522079030        3.46231082594072        0.47954707749709
C           -1.45161516728110        4.34381624247489        1.29067321678330
N           -0.37836755373695        1.16195779434565        0.62741009547352
C           -0.72466756816898       -0.13846528276587        0.36659693235367
C            0.26814313682144       -1.20660193627497        0.79437615333110
C            0.18027191578330       -1.34286320454829        2.32425030483103
C           -0.07622654343409       -2.53690474506164        0.10940169079097
N            1.60543917082325       -0.74259286429491        0.40855127124598
C            2.72758111455643       -1.56212763083167        0.58737263245705
O            2.75070645112645       -2.52045261195392        1.39300736086316
C            3.85872826471587       -1.16372625911664       -0.18751871723176
N            5.07681401112928       -1.71711824431423       -0.20377223648976
N            5.81205611277411       -1.01001266872040       -1.11316021911437
C            5.04824328213329       -0.08802769233839       -1.60258265378212
C            5.40921609620490        0.92725002338198       -2.62691894729766
O            3.79647153166156       -0.10596075625943       -1.08097651007330
N           -1.86296009950183       -0.46321571517958       -0.13260131074273
H           -5.45805678564362       -1.54064746285376       -2.63147115572057
H           -5.20026477321389       -2.97494615720782       -1.60448302746872
H           -6.14754376462519       -1.59418818607364       -0.99250483079976
H           -2.40187710316987        4.60675934116664        0.80929878001423
H           -0.85557960822971        5.24840302453596        1.42521571964741
H           -1.65854239594441        3.90370574504184        2.27451800862830
H            0.54550755722790        1.39931506938641        0.94467954784109
H           -0.84680863005591       -1.57133735278218        2.60961805329241
H            0.83078587331778       -2.13761973232351        2.68506331012972
H            0.47530903180013       -0.40525182127629        2.79438062573393
H           -1.11249967639231       -2.79691653527201        0.32620441864796
H            0.57445216381208       -3.33257872922278        0.46869288175465
H            0.03922804294530       -2.44101900525986       -0.97026857988903
H            1.62324208893378       -0.22233121426957       -0.45911706613012
H            6.28436691759915        1.49259029868681       -2.30686839708271
H            4.57762797812785        1.61165143868815       -2.77888998550796
H            5.64890569471950        0.44391756414607       -3.57466496137620

          :  Hamiltonian                  GFN1-xTB          :
         :: total energy             -83.592302380089 Eh    ::
         :: gradient norm              0.000635284178 Eh/a0 ::
         :: HOMO-LUMO gap              0.035598707492 eV    ::
         :: SCC energy               -84.318037490108 Eh    ::
         :: -> Gsolv                  -0.269184359443 Eh    ::
         :: repulsion energy           0.750570119455 Eh    ::

    * Orbital Energies and Occupations

         #    Occupation            Energy/Eh            Energy/eV
      -------------------------------------------------------------
         1        2.0000           -0.8021350             -21.8272
       ...           ...                  ...                  ...
        56        2.0000           -0.4349207             -11.8348
        57        2.0000           -0.4275132             -11.6332
        58        2.0000           -0.4269355             -11.6175
        59        2.0000           -0.4076023             -11.0914
        60        2.0000           -0.4069255             -11.0730
        61        2.0000           -0.4029228             -10.9641
        62        2.0000           -0.3969884             -10.8026
        63        2.0000           -0.3926606             -10.6848
        64        2.0000           -0.3894871             -10.5985
        65        2.0000           -0.3830662             -10.4238
        66        2.0000           -0.3415289              -9.2935
        67        2.0000           -0.3359630              -9.1420
        68        1.3313           -0.2677095              -7.2847 (HOMO)
        69        0.6687           -0.2664012              -7.2491 (LUMO)
        70                         -0.2099657              -5.7135
        71                         -0.2006322              -5.4595
        72                         -0.1633249              -4.4443
        73                         -0.1399585              -3.8085
        74                         -0.1238396              -3.3698
        75                         -0.1055679              -2.8726
        76                         -0.1052601              -2.8643
        77                         -0.0965622              -2.6276
        78                         -0.0917914              -2.4978
        79                         -0.0724453              -1.9713
       ...                                ...                  ...
       134                          0.7343447              19.9825
      -------------------------------------------------------------
                  HL-Gap            0.0013082 Eh            0.0356 eV

Wiberg/Mayer (AO) data.
largest (>0.10) Wiberg bond orders for each atom

     #   Z sym  total        # sym  WBO       # sym  WBO       # sym  WBO
 ---------------------------------------------------------------------------
     1   6 C    3.923 --    27 H    0.987    26 H    0.980    28 H    0.980
                             2 O    0.956
     2   8 O    2.048 --     1 C    0.956     3 C    0.923
     3   6 C    3.779 --     4 O    1.468     5 C    1.289     2 O    0.923
     4   8 O    1.720 --     3 C    1.468
     5   6 C    3.755 --     3 C    1.289    25 N    1.112     6 C    1.075
     6   6 C    3.920 --     7 O    1.394     8 C    1.327     5 C    1.075
     7   8 O    1.690 --     6 C    1.394     8 C    0.114
     8   6 C    3.526 --     6 C    1.327    11 N    1.025     9 O    0.952
                             7 O    0.114
     9   8 O    2.012 --     8 C    0.952    10 C    0.934
    10   6 C    3.908 --    30 H    0.987    31 H    0.983    29 H    0.978
                             9 O    0.934
    11   7 N    3.252 --    12 C    1.129     8 C    1.025    32 H    0.907
                            25 N    0.102
    12   6 C    3.928 --    25 N    1.610    11 N    1.129    13 C    0.974
    13   6 C    3.949 --    15 C    0.991    14 C    0.984    12 C    0.974
                            16 N    0.940
    14   6 C    3.991 --    33 H    0.988    35 H    0.986    13 C    0.984
                            34 H    0.980
    15   6 C    3.993 --    13 C    0.991    38 H    0.987    37 H    0.985
                            36 H    0.984
    16   7 N    3.147 --    17 C    1.084    13 C    0.940    39 H    0.919
                            18 O    0.108
    17   6 C    3.749 --    18 O    1.438    19 C    1.159    16 N    1.084
    18   8 O    1.682 --    17 C    1.438    16 N    0.108
    19   6 C    3.692 --    20 N    1.395    17 C    1.159    24 O    0.966
    20   7 N    2.723 --    19 C    1.395    21 N    1.192
    21   7 N    2.979 --    22 C    1.625    20 N    1.192
    22   6 C    3.811 --    21 N    1.625    24 O    1.043    23 C    1.022
    23   6 C    3.993 --    22 C    1.022    41 H    0.985    40 H    0.973
                            42 H    0.971
    24   8 O    2.180 --    22 C    1.043    19 C    0.966
    25   7 N    2.953 --    12 C    1.610     5 C    1.112    11 N    0.102
    26   1 H    1.021 --     1 C    0.980
    27   1 H    1.021 --     1 C    0.987
    28   1 H    1.021 --     1 C    0.980
    29   1 H    1.038 --    10 C    0.978
    30   1 H    1.020 --    10 C    0.987
    31   1 H    1.013 --    10 C    0.983
    32   1 H    0.960 --    11 N    0.907
    33   1 H    1.009 --    14 C    0.988
    34   1 H    1.023 --    14 C    0.980
    35   1 H    1.010 --    14 C    0.986
    36   1 H    1.022 --    15 C    0.984
    37   1 H    1.016 --    15 C    0.985
    38   1 H    1.011 --    15 C    0.987
    39   1 H    0.965 --    16 N    0.919
    40   1 H    1.003 --    23 C    0.973
    41   1 H    1.002 --    23 C    0.985
    42   1 H    1.002 --    23 C    0.971
 ---------------------------------------------------------------------------

           -------------------------------------------------
          | TOTAL ENERGY              -83.592302380089 Eh   |
          | GRADIENT NORM               0.000635284178 Eh/α |
          | HOMO-LUMO GAP               0.035598707492 eV   |
           -------------------------------------------------

 * finished run on 2023/06/21 at 17:14:42.346
