   * xtb version 6.5.1 (579679a) compiled by 'ehlert@majestix' on 2022-07-11
          program call               : /lustre/hpc/kemi/ree/PhD/git/ReactivityQM/dep/xtb-6.5.1/bin/xtb --gfn 1 /lustre/hpc/kemi/ree/PhD/git/ReactivityQM/calculations/R02oxygendeprot/reac01prodN04/conf11/R02oxygendeprot_reac01prodN04_conf11_gfn1.xyz --opt --vfukui --chrg 0 --uhf 0 --alpb DMSO

   ID    Z sym.   atoms
    1    6 C      1, 3, 5, 6, 8-11, 13, 15, 18, 19, 22, 24
    2    8 O      2, 4, 14, 20, 23, 25
    3    7 N      7, 12, 16, 17, 21
    4    1 H      26-42

      * Solvation model:               ALPB
        Solvent                        DMSO
        Solvent mass                       7.8130E+01 g/mol
          :  Hamiltonian                  GFN1-xTB          :
 * total energy  :   -82.9667096 Eh     change       -0.8796519E-11 Eh
 * total energy  :   -82.9840438 Eh     change       -0.1733419E-01 Eh
 * total energy  :   -82.9904519 Eh     change       -0.6408104E-02 Eh
 * total energy  :   -82.9920294 Eh     change       -0.1577494E-02 Eh
 * total energy  :   -82.9926919 Eh     change       -0.6625307E-03 Eh
 * total energy  :   -82.9929582 Eh     change       -0.2662327E-03 Eh
 * total energy  :   -82.9931538 Eh     change       -0.1956705E-03 Eh
 * total energy  :   -82.9933168 Eh     change       -0.1630163E-03 Eh
 * total energy  :   -82.9934852 Eh     change       -0.1683906E-03 Eh
 * total energy  :   -82.9936608 Eh     change       -0.1755524E-03 Eh
 * total energy  :   -82.9965709 Eh     change       -0.1691528E-04 Eh
 * total energy  :   -82.9965845 Eh     change       -0.1362423E-04 Eh
 * total energy  :   -82.9965966 Eh     change       -0.1208770E-04 Eh
 * total energy  :   -82.9966096 Eh     change       -0.1295820E-04 Eh
 * total energy  :   -82.9966228 Eh     change       -0.1323029E-04 Eh
 * total energy  :   -82.9966329 Eh     change       -0.1005676E-04 Eh
 * total energy  :   -82.9966395 Eh     change       -0.6662730E-05 Eh
 * total energy  :   -82.9966449 Eh     change       -0.5359440E-05 Eh
 * total energy  :   -82.9966493 Eh     change       -0.4397951E-05 Eh
   *** GEOMETRY OPTIMIZATION CONVERGED AFTER 61 ITERATIONS ***

 final structure:
================
42
 xtb: 6.5.1 (579679a)
C           -3.53551341528792        0.70712433758345        1.97288837174057
O           -4.00477712158047        1.54609530610995        0.91918784380413
C           -3.48344103772011        1.61856839615562       -0.29408696024314
O           -4.13861877526846        2.43091496484243       -1.09767707833707
C           -5.30447830875009        3.10436101459844       -0.62001552389319
C           -2.36490022640749        0.93786047262006       -0.78367192343518
N           -1.67441378229808        0.11575649335604        0.10474217437496
C           -0.65838788659928       -0.55244570579267       -0.29007661530330
C            0.07171696594248       -1.49125270079141        0.64846799942652
C           -0.12541726422935       -1.07485037548215        2.10800661782273
C           -0.44241052490839       -2.91514863395069        0.41126808308390
N            1.49815722499490       -1.47341446379423        0.31846275542711
C            2.21397068300322       -0.32413224437396        0.32893348259039
O            1.73679319289073        0.78957753828984        0.44637142010902
C            3.66087363216356       -0.59419980518411        0.14018083949415
N            4.21414490617462       -1.76566489982219        0.03568676686587
N            5.54995113341445       -1.55654057825073       -0.12319161086979
C            5.72811659502250       -0.26965577121741       -0.10433681831830
C            7.00493519181698        0.46509145411618       -0.24104670277783
O            4.57309913971850        0.39176919707614        0.05942296814653
N           -0.21267406915234       -0.53536448146761       -1.59122720042609
C           -0.76407522779368        0.22789930678327       -2.58297155912612
O           -0.32207192777386        0.19866642482907       -3.71762447945997
C           -1.95020996480669        1.08221858619797       -2.16044606897497
O           -2.48226330713326        1.81086648465665       -2.99081763605380
H           -4.23774929704568        0.84686761083784        2.79490452274980
H           -3.52875745256995       -0.33794615799270        1.66041783884382
H           -2.53219459490715        1.00330187178537        2.28300990845358
H           -5.04918672665717        3.76110588274224        0.21414559563624
H           -5.68100111214796        3.68788684009889       -1.45838450324537
H           -6.05442813190234        2.38012265781233       -0.29632210465395
H            0.46295473154397       -1.71957354320193        2.75777648660853
H           -1.17633977758007       -1.16843868446682        2.37304495745239
H            0.18586098358417       -0.04062113215045        2.24906283452508
H           -1.50936113113937       -2.95767785038521        0.62343332019423
H           -0.27523518301904       -3.20790492582588       -0.62402853868951
H            0.07577547876083       -3.61249148813183        1.06671906960214
H            1.99471679000871       -2.35012859342693        0.32586588057369
H            7.19171731089972        1.05858172811971        0.65382086839751
H            6.95521253272893        1.14428237638319       -1.09208289895486
H            7.81839385428807       -0.24178085890024       -0.38494275777450
H            0.57151889971627       -1.11968905038457       -1.83878562538020

          :  Hamiltonian                  GFN1-xTB          :
         :: total energy             -82.996649289186 Eh    ::
         :: gradient norm              0.000224647564 Eh/a0 ::
         :: HOMO-LUMO gap              2.368860649929 eV    ::
         :: SCC energy               -83.776232984602 Eh    ::
         :: -> Gsolv                  -0.065833083936 Eh    ::
         :: repulsion energy           0.805924658740 Eh    ::

    * Orbital Energies and Occupations

         #    Occupation            Energy/Eh            Energy/eV
      -------------------------------------------------------------
         1        2.0000           -0.8640773             -23.5127
       ...           ...                  ...                  ...
        55        2.0000           -0.5063599             -13.7788
        56        2.0000           -0.5061316             -13.7725
        57        2.0000           -0.4999449             -13.6042
        58        2.0000           -0.4933150             -13.4238
        59        2.0000           -0.4834054             -13.1541
        60        2.0000           -0.4759881             -12.9523
        61        2.0000           -0.4681856             -12.7400
        62        2.0000           -0.4624627             -12.5843
        63        2.0000           -0.4537776             -12.3479
        64        2.0000           -0.4526816             -12.3181
        65        2.0000           -0.4452145             -12.1149
        66        2.0000           -0.4184989             -11.3879
        67        2.0000           -0.4121652             -11.2156 (HOMO)
        68                         -0.3251112              -8.8467 (LUMO)
        69                         -0.3123456              -8.4994
        70                         -0.2707863              -7.3685
        71                         -0.2571757              -6.9981
        72                         -0.2456388              -6.6842
        73                         -0.1999287              -5.4403
        74                         -0.1537906              -4.1849
        75                         -0.1516107              -4.1255
        76                         -0.1426206              -3.8809
        77                         -0.1422233              -3.8701
        78                         -0.1335024              -3.6328
       ...                                ...                  ...
       134                          0.7556707              20.5628
      -------------------------------------------------------------
                  HL-Gap            0.0870540 Eh            2.3689 eV

Wiberg/Mayer (AO) data.
largest (>0.10) Wiberg bond orders for each atom

     #   Z sym  total        # sym  WBO       # sym  WBO       # sym  WBO
 ---------------------------------------------------------------------------
     1   6 C    3.854 --    26 H    0.981    27 H    0.977    28 H    0.976
                             2 O    0.883
     2   8 O    2.222 --     3 C    1.129     1 C    0.883
     3   6 C    3.833 --     6 C    1.338     4 O    1.151     2 O    1.129
     4   8 O    2.237 --     3 C    1.151     5 C    0.889
     5   6 C    3.863 --    30 H    0.984    31 H    0.978    29 H    0.978
                             4 O    0.889
     6   6 C    3.923 --     3 C    1.338    24 C    1.163     7 N    1.106
     7   7 N    3.043 --     8 C    1.653     6 C    1.106
     8   6 C    3.932 --     7 N    1.653    21 N    1.107     9 C    0.976
     9   6 C    3.937 --    10 C    0.990    11 C    0.984     8 C    0.976
                            12 N    0.925
    10   6 C    3.990 --     9 C    0.990    32 H    0.985    33 H    0.983
                            34 H    0.981
    11   6 C    3.988 --    36 H    0.984     9 C    0.984    35 H    0.984
                            37 H    0.982
    12   7 N    3.333 --    13 C    1.238     9 C    0.925    38 H    0.892
                            14 O    0.174
    13   6 C    3.916 --    14 O    1.602    12 N    1.238    15 C    0.992
    14   8 O    1.902 --    13 C    1.602    12 N    0.174
    15   6 C    3.876 --    16 N    1.609    20 O    1.063    13 C    0.992
    16   7 N    3.016 --    15 C    1.609    17 N    1.203
    17   7 N    2.981 --    18 C    1.603    16 N    1.203
    18   6 C    3.871 --    17 N    1.603    20 O    1.084    19 C    1.031
    19   6 C    3.986 --    18 C    1.031    41 H    0.983    40 H    0.964
                            39 H    0.963
    20   8 O    2.330 --    18 C    1.084    15 C    1.063
    21   7 N    3.441 --    22 C    1.165     8 C    1.107    42 H    0.886
                            23 O    0.139
    22   6 C    3.884 --    23 O    1.631    21 N    1.165    24 C    0.940
    23   8 O    1.910 --    22 C    1.631    21 N    0.139
    24   6 C    3.920 --    25 O    1.631     6 C    1.163    22 C    0.940
    25   8 O    1.917 --    24 C    1.631
    26   1 H    1.008 --     1 C    0.981
    27   1 H    1.020 --     1 C    0.977
    28   1 H    1.020 --     1 C    0.976
    29   1 H    1.005 --     5 C    0.978
    30   1 H    1.009 --     5 C    0.984
    31   1 H    1.005 --     5 C    0.978
    32   1 H    1.001 --    10 C    0.985
    33   1 H    1.007 --    10 C    0.983
    34   1 H    1.009 --    10 C    0.981
    35   1 H    1.001 --    11 C    0.984
    36   1 H    0.999 --    11 C    0.984
    37   1 H    0.996 --    11 C    0.982
    38   1 H    0.945 --    12 N    0.892
    39   1 H    0.997 --    19 C    0.963
    40   1 H    0.997 --    19 C    0.964
    41   1 H    0.998 --    19 C    0.983
    42   1 H    0.938 --    21 N    0.886
 ---------------------------------------------------------------------------

           -------------------------------------------------
          | TOTAL ENERGY              -82.996649289186 Eh   |
          | GRADIENT NORM               0.000224647564 Eh/α |
          | HOMO-LUMO GAP               2.368860649929 eV   |
           -------------------------------------------------

 * finished run on 2023/06/21 at 17:20:03.467
