   * xtb version 6.5.1 (579679a) compiled by 'ehlert@majestix' on 2022-07-11
          program call               : /lustre/hpc/kemi/ree/PhD/git/ReactivityQM/dep/xtb-6.5.1/bin/xtb --gfn 1 /lustre/hpc/kemi/ree/PhD/git/ReactivityQM/calculations/RaltegravirCLI/reac02/conf18/RaltegravirCLI_reac02_conf18_gfn1.xyz --opt --vfukui --chrg 0 --uhf 0 --alpb DMSO

   ID    Z sym.   atoms
    1    6 C      1, 3-6, 9, 10, 13-17, 19-21, 23
    2    7 N      2, 7, 8, 12
    3    8 O      11, 22, 24
    4    9 F      18
    5    1 H      25-43

      * Solvation model:               ALPB
        Solvent                        DMSO
        Solvent mass                       7.8130E+01 g/mol
          :  Hamiltonian                  GFN1-xTB          :
 * total energy  :   -76.1710826 Eh     change       -0.7020162E-11 Eh
 * total energy  :   -76.1783976 Eh     change       -0.7315039E-02 Eh
 * total energy  :   -76.1803514 Eh     change       -0.1953779E-02 Eh
 * total energy  :   -76.1807523 Eh     change       -0.4008503E-03 Eh
 * total energy  :   -76.1810466 Eh     change       -0.2943021E-03 Eh
 * total energy  :   -76.1811574 Eh     change       -0.1108371E-03 Eh
 * total energy  :   -76.1812349 Eh     change       -0.7751826E-04 Eh
 * total energy  :   -76.1812838 Eh     change       -0.4883589E-04 Eh
 * total energy  :   -76.1813194 Eh     change       -0.3561756E-04 Eh
 * total energy  :   -76.1813561 Eh     change       -0.3674673E-04 Eh
 * total energy  :   -76.1816957 Eh     change       -0.1285644E-04 Eh
 * total energy  :   -76.1817171 Eh     change       -0.2137804E-04 Eh
 * total energy  :   -76.1817269 Eh     change       -0.9840996E-05 Eh
 * total energy  :   -76.1817357 Eh     change       -0.8841079E-05 Eh
 * total energy  :   -76.1817445 Eh     change       -0.8730139E-05 Eh
 * total energy  :   -76.1817512 Eh     change       -0.6737464E-05 Eh
 * total energy  :   -76.1817579 Eh     change       -0.6696921E-05 Eh
 * total energy  :   -76.1817648 Eh     change       -0.6892608E-05 Eh
 * total energy  :   -76.1817673 Eh     change       -0.2536072E-05 Eh
   *** GEOMETRY OPTIMIZATION CONVERGED AFTER 32 ITERATIONS ***

 final structure:
================
43
 xtb: 6.5.1 (579679a)
C           -4.21369014060129       -1.51742692941309        0.58734312737070
N           -2.80575346469919       -1.12137743799545        0.66119780614422
C           -2.35797058872158        0.15140182561596        0.40393285960897
C           -3.30258031343525        1.28843375852466        0.03343946562748
C           -3.91465388096853        1.85988013911414        1.32145928980679
C           -2.50498406566780        2.39249248930789       -0.68190606816665
N           -4.36881624961850        0.80991312169081       -0.84024584721749
N           -1.10683543269595        0.46787272874006        0.51020974646527
C           -0.15233071082721       -0.44552974818491        0.86015452026601
C            1.23235074603010        0.13031483882133        0.93460583154920
O            1.43141277886789        1.33165497418058        0.79557692411126
N            2.22767145554046       -0.74507990885072        1.17916207280320
C            3.61918085054219       -0.30483103999324        1.17909676287079
C            4.19939393526847       -0.38453506385478       -0.21733731952769
C            3.93590909030130        0.62505786694426       -1.14173856631585
C            4.44169978486918        0.55026500899255       -2.43134647729632
C            5.21078720567245       -0.54833078406269       -2.77185529736594
F            5.70530608163867       -0.62783245146206       -4.01859836867063
C            5.49274600225895       -1.56710700714358       -1.88051062258278
C            4.97606238427563       -1.47691638041491       -0.59485132846900
C           -0.52839001615507       -1.73636536120919        1.09116658586133
O            0.31762204772945       -2.73170104920217        1.43241315156114
C           -1.92032279080610       -2.13115700030749        0.98421900375814
O           -2.27547038325678       -3.29250505123924        1.18423574950447
H           -4.33459497189760       -2.44314947109441        1.14985746247759
H           -4.49557167291356       -1.68016110285870       -0.45154486683014
H           -4.84502239625238       -0.74422537895213        1.01271718076964
H           -3.12258049286949        2.18912589213537        1.99341206883229
H           -4.52081598630024        1.11477556163250        1.83359858545931
H           -4.54661285816794        2.71243381367108        1.07730040781314
H           -2.02303768419021        1.98958990924127       -1.57159491866376
H           -3.18309733803872        3.19049503036623       -0.97865712986076
H           -1.73967367197987        2.79967845949036       -0.02193959768415
H           -3.99878406970466        0.64049572770050       -1.76668414660977
H           -5.07698931842920        1.52567102164377       -0.92119091542963
H            2.06162419592668       -1.73730159030157        1.19366980021595
H            4.17597906506698       -0.94822994574637        1.86376048490276
H            3.64927847061261        0.72571366097916        1.54686430049523
H            3.32979363922646        1.47569403394163       -0.85052621367818
H            4.24753807798145        1.32706395908608       -3.15954788432392
H            6.10031274560834       -2.40901349146582       -2.18501107268359
H            5.18443812259140       -2.26474302124710        0.11926169050039
H           -0.20052718181052       -3.55303560682170        1.53642976260093

          :  Hamiltonian                  GFN1-xTB          :
         :: total energy             -76.181767342689 Eh    ::
         :: gradient norm              0.000297241287 Eh/a0 ::
         :: HOMO-LUMO gap              2.781165819593 eV    ::
         :: SCC energy               -77.028152059085 Eh    ::
         :: -> Gsolv                  -0.048049000071 Eh    ::
         :: repulsion energy           0.873635043599 Eh    ::

    * Orbital Energies and Occupations

         #    Occupation            Energy/Eh            Energy/eV
      -------------------------------------------------------------
         1        2.0000           -0.8634557             -23.4958
       ...           ...                  ...                  ...
        52        2.0000           -0.5005397             -13.6204
        53        2.0000           -0.4930167             -13.4157
        54        2.0000           -0.4848391             -13.1931
        55        2.0000           -0.4726813             -12.8623
        56        2.0000           -0.4665766             -12.6962
        57        2.0000           -0.4644067             -12.6371
        58        2.0000           -0.4506677             -12.2633
        59        2.0000           -0.4475140             -12.1775
        60        2.0000           -0.4396664             -11.9639
        61        2.0000           -0.4344981             -11.8233
        62        2.0000           -0.4323875             -11.7659
        63        2.0000           -0.4201290             -11.4323
        64        2.0000           -0.4127765             -11.2322 (HOMO)
        65                         -0.3105705              -8.4511 (LUMO)
        66                         -0.2732597              -7.4358
        67                         -0.2726008              -7.4178
        68                         -0.2662617              -7.2454
        69                         -0.2261817              -6.1547
        70                         -0.1482178              -4.0332
        71                         -0.1446204              -3.9353
        72                         -0.1318013              -3.5865
        73                         -0.1238117              -3.3691
        74                         -0.1194933              -3.2516
        75                         -0.1161995              -3.1619
       ...                                ...                  ...
       134                          0.7163166              19.4920
      -------------------------------------------------------------
                  HL-Gap            0.1022060 Eh            2.7812 eV

Wiberg/Mayer (AO) data.
largest (>0.10) Wiberg bond orders for each atom

     #   Z sym  total        # sym  WBO       # sym  WBO       # sym  WBO
 ---------------------------------------------------------------------------
     1   6 C    3.922 --    27 H    0.978    25 H    0.976    26 H    0.976
                             2 N    0.928
     2   7 N    3.515 --     3 C    1.170    23 C    1.139     1 C    0.928
                            24 O    0.133
     3   6 C    3.923 --     8 N    1.567     2 N    1.170     4 C    0.976
     4   6 C    3.966 --     6 C    0.989     7 N    0.985     5 C    0.981
                             3 C    0.976
     5   6 C    3.994 --    28 H    0.985    30 H    0.983     4 C    0.981
                            29 H    0.980
     6   6 C    3.994 --     4 C    0.989    32 H    0.986    31 H    0.985
                            33 H    0.983
     7   7 N    2.977 --     4 C    0.985    34 H    0.941    35 H    0.939
     8   7 N    3.031 --     3 C    1.567     9 C    1.197
     9   6 C    3.964 --    21 C    1.508     8 N    1.197    10 C    0.991
    10   6 C    3.907 --    11 O    1.573    12 N    1.263     9 C    0.991
    11   8 O    1.879 --    10 C    1.573    12 N    0.169
    12   7 N    3.345 --    10 C    1.263    13 C    0.941    36 H    0.888
                            11 O    0.169
    13   6 C    3.949 --    14 C    0.993    37 H    0.977    38 H    0.970
                            12 N    0.941
    14   6 C    3.988 --    20 C    1.422    15 C    1.415    13 C    0.993
    15   6 C    3.992 --    16 C    1.447    14 C    1.415    39 H    0.969
                            19 C    0.111
    16   6 C    3.992 --    15 C    1.447    17 C    1.399    40 H    0.970
                            20 C    0.110
    17   6 C    3.860 --    19 C    1.403    16 C    1.399    18 F    0.924
    18   9 F    1.051 --    17 C    0.924
    19   6 C    3.991 --    20 C    1.440    17 C    1.403    41 H    0.969
                            15 C    0.111
    20   6 C    3.994 --    19 C    1.440    14 C    1.422    42 H    0.971
                            16 C    0.110
    21   6 C    3.916 --     9 C    1.508    23 C    1.092    22 O    1.069
    22   8 O    2.063 --    21 C    1.069    43 H    0.801
    23   6 C    3.918 --    24 O    1.534     2 N    1.139    21 C    1.092
    24   8 O    1.885 --    23 C    1.534     2 N    0.133
    25   1 H    1.009 --     1 C    0.976
    26   1 H    1.018 --     1 C    0.976
    27   1 H    1.022 --     1 C    0.978
    28   1 H    1.004 --     5 C    0.985
    29   1 H    1.005 --     5 C    0.980
    30   1 H    1.000 --     5 C    0.983
    31   1 H    1.007 --     6 C    0.985
    32   1 H    1.004 --     6 C    0.986
    33   1 H    1.015 --     6 C    0.983
    34   1 H    0.957 --     7 N    0.941
    35   1 H    0.954 --     7 N    0.939
    36   1 H    0.946 --    12 N    0.888
    37   1 H    1.003 --    13 C    0.977
    38   1 H    1.010 --    13 C    0.970
    39   1 H    1.011 --    15 C    0.969
    40   1 H    0.999 --    16 C    0.970
    41   1 H    0.998 --    19 C    0.969
    42   1 H    0.999 --    20 C    0.971
    43   1 H    0.846 --    22 O    0.801
 ---------------------------------------------------------------------------

           -------------------------------------------------
          | TOTAL ENERGY              -76.181767342689 Eh   |
          | GRADIENT NORM               0.000297241287 Eh/α |
          | HOMO-LUMO GAP               2.781165819593 eV   |
           -------------------------------------------------

 * finished run on 2023/06/20 at 14:51:47.815
