   * xtb version 6.5.1 (579679a) compiled by 'ehlert@majestix' on 2022-07-11
          program call               : /lustre/hpc/kemi/ree/PhD/git/ReactivityQM/dep/xtb-6.5.1/bin/xtb --gfn 1 /lustre/hpc/kemi/ree/PhD/git/ReactivityQM/calculations/RaltegravirCLI/reac02prodN06/conf17/RaltegravirCLI_reac02prodN06_conf17_gfn1.xyz --opt --vfukui --chrg 1 --uhf 0 --alpb DMSO

   ID    Z sym.   atoms
    1    6 C      1, 3, 5, 7-9, 12-16, 18, 19, 21-24
    2    7 N      2, 11, 20, 25
    3    8 O      4, 6, 10
    4    9 F      17
    5    1 H      26-47

      * Solvation model:               ALPB
        Solvent                        DMSO
        Solvent mass                       7.8130E+01 g/mol
          :  Hamiltonian                  GFN1-xTB          :
 * total energy  :   -79.4660990 Eh     change       -0.6283756E-09 Eh
 * total energy  :   -79.4802330 Eh     change       -0.1413401E-01 Eh
 * total energy  :   -79.4854537 Eh     change       -0.5220708E-02 Eh
 * total energy  :   -79.4865003 Eh     change       -0.1046518E-02 Eh
 * total energy  :   -79.4872879 Eh     change       -0.7876669E-03 Eh
 * total energy  :   -79.4874844 Eh     change       -0.1964674E-03 Eh
 * total energy  :   -79.4876678 Eh     change       -0.1833755E-03 Eh
 * total energy  :   -79.4878169 Eh     change       -0.1490885E-03 Eh
 * total energy  :   -79.4879692 Eh     change       -0.1523198E-03 Eh
 * total energy  :   -79.4881579 Eh     change       -0.1887122E-03 Eh
 * total energy  :   -79.4915897 Eh     change       -0.4601307E-04 Eh
 * total energy  :   -79.4916261 Eh     change       -0.3639556E-04 Eh
 * total energy  :   -79.4916494 Eh     change       -0.2323895E-04 Eh
 * total energy  :   -79.4916638 Eh     change       -0.1440980E-04 Eh
 * total energy  :   -79.4916786 Eh     change       -0.1481376E-04 Eh
 * total energy  :   -79.4916886 Eh     change       -0.9959207E-05 Eh
 * total energy  :   -79.4916943 Eh     change       -0.5741807E-05 Eh
 * total energy  :   -79.4917005 Eh     change       -0.6149059E-05 Eh
 * total energy  :   -79.4917044 Eh     change       -0.3977540E-05 Eh
   *** GEOMETRY OPTIMIZATION CONVERGED AFTER 41 ITERATIONS ***

 final structure:
================
47
 xtb: 6.5.1 (579679a)
C           -3.38798371203571       -1.92517409558181        1.16412297101640
N           -2.43623094105881       -1.34967799589785        0.20859050167622
C           -1.35215384169350       -2.13503019312370       -0.06476061283163
O           -1.17788578196179       -3.26511401620408        0.36007821539136
C           -0.33685223116742       -1.52510773952237       -0.94595868282523
O            0.70700343167105       -2.23731500349752       -1.22707121759424
C           -0.42913093383968       -0.14173397012423       -1.28973856327414
C            0.30504554075814        0.39272438725041       -2.50829955152712
C            0.38752403479263        0.33346546341949        0.12910848724850
O           -0.26629314373079        0.68777870090481        1.06287145297547
N            1.68752747839477        0.27734488208135       -0.02569310432053
C            2.56607289561315        0.86059201497357        1.01338064005989
C            3.99168018184389        0.47133637548181        0.72940974100448
C            4.62056724574598        0.94426342962011       -0.42236243612375
C            5.93324395469484        0.59447885814540       -0.70081075819868
C            6.59730763610932       -0.22660997024265        0.19424423987462
F            7.86519946160471       -0.56522329281207       -0.06463628799610
C            6.00201448288140       -0.71177748313294        1.34534959162852
C            4.68557661458146       -0.35911768334089        1.60647906663687
N           -1.70254452116344        0.42448043189408       -1.14061064906195
C           -2.60853903446957       -0.10999436718186       -0.40110411315010
C           -3.87293800150060        0.71623114093176       -0.20896321340469
C           -3.84157853723884        1.32327457730410        1.20180852613241
C           -3.89871500226718        1.84732880310691       -1.25023496138929
N           -5.05877311764126       -0.11760811282124       -0.36103430123012
H           -3.30348070979484       -3.00983263731760        1.11456497089231
H           -4.39679916644319       -1.61134932309196        0.90444001350041
H           -3.13127647801370       -1.58558065619478        2.16734670016389
H            0.65881834662809       -3.12791301099499       -0.81138551871720
H           -0.36503800586988        0.31507799560354       -3.36335108045510
H            0.56733331757757        1.43832955732695       -2.36456446747599
H            1.20175927071312       -0.18896197065811       -2.70728141824641
H            2.12113718915271       -0.13225863679039       -0.83685660180527
H            2.22542669969376        0.48956552968073        1.98368462974692
H            2.44118567163999        1.94760864354850        0.98724871825123
H            4.07946649155039        1.58810450321550       -1.10498670871746
H            6.43167917054867        0.95119126308605       -1.59245980099535
H            6.55400188374458       -1.35525865352144        2.01829658585097
H            4.19724404617174       -0.73163946605036        2.49890604547478
H           -2.89009902921968        1.82866055040264        1.36477787015881
H           -3.96782435286963        0.55429709100196        1.96060589337084
H           -4.64991817906787        2.04618423448438        1.30080786938232
H           -3.06371038088027        2.52874950387615       -1.09541216458655
H           -3.83397017046323        1.43437240020122       -2.25533368783211
H           -4.83210007505236        2.39888220007760       -1.15314105924444
H           -5.87671489436779        0.42641184592942       -0.12195325974657
H           -5.14626280430151       -0.40845610545362       -1.32472050969397

          :  Hamiltonian                  GFN1-xTB          :
         :: total energy             -79.491704434495 Eh    ::
         :: gradient norm              0.000701716014 Eh/a0 ::
         :: HOMO-LUMO gap              0.689185027909 eV    ::
         :: SCC energy               -80.393146506966 Eh    ::
         :: -> Gsolv                  -0.101083005665 Eh    ::
         :: repulsion energy           0.932866280655 Eh    ::

    * Orbital Energies and Occupations

         #    Occupation            Energy/Eh            Energy/eV
      -------------------------------------------------------------
         1        2.0000           -0.8944296             -24.3387
       ...           ...                  ...                  ...
        55        2.0000           -0.5154687             -14.0266
        56        2.0000           -0.5135903             -13.9755
        57        2.0000           -0.5128820             -13.9562
        58        2.0000           -0.5082708             -13.8308
        59        2.0000           -0.4996182             -13.5953
        60        2.0000           -0.4963407             -13.5061
        61        2.0000           -0.4904920             -13.3470
        62        2.0000           -0.4865267             -13.2391
        63        2.0000           -0.4782506             -13.0139
        64        2.0000           -0.4733505             -12.8805
        65        2.0000           -0.4662041             -12.6861
        66        2.0000           -0.4533469             -12.3362
        67        2.0000           -0.4269314             -11.6174 (HOMO)
        68        0.0000           -0.4016044             -10.9282 (LUMO)
        69                         -0.3204814              -8.7207
        70                         -0.2896432              -7.8816
        71                         -0.2881439              -7.8408
        72                         -0.2842450              -7.7347
        73                         -0.2524267              -6.8689
        74                         -0.1629255              -4.4334
        75                         -0.1612759              -4.3885
        76                         -0.1498559              -4.0778
        77                         -0.1432159              -3.8971
        78                         -0.1413029              -3.8450
       ...                                ...                  ...
       144                          0.7415725              20.1792
      -------------------------------------------------------------
                  HL-Gap            0.0253271 Eh            0.6892 eV

Wiberg/Mayer (AO) data.
largest (>0.10) Wiberg bond orders for each atom

     #   Z sym  total        # sym  WBO       # sym  WBO       # sym  WBO
 ---------------------------------------------------------------------------
     1   6 C    3.897 --    26 H    0.974    28 H    0.968    27 H    0.958
                             2 N    0.916
     2   7 N    3.535 --     3 C    1.193    21 C    1.106     1 C    0.916
                             4 O    0.163
     3   6 C    3.927 --     4 O    1.587     2 N    1.193     5 C    1.011
     4   8 O    1.944 --     3 C    1.587     2 N    0.163
     5   6 C    3.844 --     6 O    1.265     7 C    1.147     3 C    1.011
                             9 C    0.116
     6   8 O    2.216 --     5 C    1.265    29 H    0.757
     7   6 C    3.958 --     5 C    1.147    20 N    1.065     8 C    0.981
                             9 C    0.591
     8   6 C    3.977 --     7 C    0.981    31 H    0.980    32 H    0.980
                            30 H    0.968
     9   6 C    3.904 --    10 O    1.697    11 N    1.378     7 C    0.591
                             5 C    0.116
    10   8 O    2.078 --     9 C    1.697    11 N    0.183
    11   7 N    3.403 --     9 C    1.378    33 H    0.883    12 C    0.883
                            10 O    0.183
    12   6 C    3.907 --    13 C    1.006    34 H    0.971    35 H    0.963
                            11 N    0.883
    13   6 C    3.985 --    19 C    1.417    14 C    1.410    12 C    1.006
    14   6 C    3.993 --    15 C    1.449    13 C    1.410    36 H    0.971
                            18 C    0.110
    15   6 C    3.991 --    14 C    1.449    16 C    1.395    37 H    0.967
                            19 C    0.109
    16   6 C    3.863 --    18 C    1.399    15 C    1.395    17 F    0.937
    17   9 F    1.069 --    16 C    0.937
    18   6 C    3.990 --    19 C    1.444    16 C    1.399    38 H    0.968
                            14 C    0.110
    19   6 C    3.991 --    18 C    1.444    13 C    1.417    39 H    0.969
                            15 C    0.109
    20   7 N    3.030 --    21 C    1.651     7 C    1.065
    21   6 C    3.903 --    20 N    1.651     2 N    1.106    22 C    0.975
    22   6 C    3.961 --    24 C    0.988    25 N    0.985    23 C    0.976
                            21 C    0.975
    23   6 C    3.991 --    40 H    0.984    41 H    0.982    42 H    0.981
                            22 C    0.976
    24   6 C    3.992 --    22 C    0.988    45 H    0.984    44 H    0.984
                            43 H    0.983
    25   7 N    3.002 --    22 C    0.985    47 H    0.937    46 H    0.933
    26   1 H    1.002 --     1 C    0.974
    27   1 H    1.024 --     1 C    0.958
    28   1 H    0.999 --     1 C    0.968
    29   1 H    0.803 --     6 O    0.757
    30   1 H    0.996 --     8 C    0.968
    31   1 H    0.997 --     8 C    0.980
    32   1 H    0.996 --     8 C    0.980
    33   1 H    0.938 --    11 N    0.883
    34   1 H    0.999 --    12 C    0.971
    35   1 H    0.999 --    12 C    0.963
    36   1 H    0.996 --    14 C    0.971
    37   1 H    0.995 --    15 C    0.967
    38   1 H    0.996 --    18 C    0.968
    39   1 H    0.997 --    19 C    0.969
    40   1 H    1.005 --    23 C    0.984
    41   1 H    1.002 --    23 C    0.982
    42   1 H    0.998 --    23 C    0.981
    43   1 H    1.009 --    24 C    0.983
    44   1 H    1.006 --    24 C    0.984
    45   1 H    1.002 --    24 C    0.984
    46   1 H    0.948 --    25 N    0.933
    47   1 H    0.951 --    25 N    0.937
 ---------------------------------------------------------------------------

           -------------------------------------------------
          | TOTAL ENERGY              -79.491704434495 Eh   |
          | GRADIENT NORM               0.000701716014 Eh/α |
          | HOMO-LUMO GAP               0.689185027909 eV   |
           -------------------------------------------------

 * finished run on 2023/06/20 at 15:23:02.065
