   * xtb version 6.5.1 (579679a) compiled by 'ehlert@majestix' on 2022-07-11
          program call               : /lustre/hpc/kemi/ree/PhD/git/ReactivityQM/dep/xtb-6.5.1/bin/xtb --gfn 1 /lustre/hpc/kemi/ree/PhD/git/ReactivityQM/calculations/R02methylcation/reac01prodN10/conf15/R02methylcation_reac01prodN10_conf15_gfn1.xyz --opt --vfukui --chrg 0 --uhf 0 --alpb DMSO

   ID    Z sym.   atoms
    1    6 C      1, 3, 5, 6, 8, 11-15, 17, 19, 22, 23
    2    8 O      2, 4, 7, 9, 18, 24
    3    7 N      10, 16, 20, 21, 25
    4    1 H      26-42

      * Solvation model:               ALPB
        Solvent                        DMSO
        Solvent mass                       7.8130E+01 g/mol
          :  Hamiltonian                  GFN1-xTB          :
 * total energy  :   -82.9616943 Eh     change       -0.1496403E-10 Eh
 * total energy  :   -82.9745059 Eh     change       -0.1281158E-01 Eh
 * total energy  :   -82.9803753 Eh     change       -0.5869396E-02 Eh
 * total energy  :   -82.9815667 Eh     change       -0.1191351E-02 Eh
 * total energy  :   -82.9821785 Eh     change       -0.6118223E-03 Eh
 * total energy  :   -82.9824732 Eh     change       -0.2947447E-03 Eh
 * total energy  :   -82.9826523 Eh     change       -0.1790371E-03 Eh
 * total energy  :   -82.9827695 Eh     change       -0.1172194E-03 Eh
 * total energy  :   -82.9828476 Eh     change       -0.7810296E-04 Eh
 * total energy  :   -82.9829001 Eh     change       -0.5255312E-04 Eh
 * total energy  :   -82.9829644 Eh     change       -0.1198622E-04 Eh
 * total energy  :   -82.9829726 Eh     change       -0.8187591E-05 Eh
 * total energy  :   -82.9829784 Eh     change       -0.5768932E-05 Eh
 * total energy  :   -82.9829840 Eh     change       -0.5584731E-05 Eh
 * total energy  :   -82.9829898 Eh     change       -0.5870826E-05 Eh
 * total energy  :   -82.9829950 Eh     change       -0.5127916E-05 Eh
 * total energy  :   -82.9830013 Eh     change       -0.6334607E-05 Eh
 * total energy  :   -82.9830075 Eh     change       -0.6212837E-05 Eh
 * total energy  :   -82.9830120 Eh     change       -0.4503477E-05 Eh
   *** GEOMETRY OPTIMIZATION CONVERGED AFTER 21 ITERATIONS ***

 final structure:
================
42
 xtb: 6.5.1 (579679a)
C           -4.79877296046330        2.29572394044254       -2.15407829222828
O           -4.29645799535990        1.22973405054299       -1.33836342566984
C           -2.99698285947755        1.21690392905509       -1.10443775485409
O           -2.21352520950012        2.02415083379636       -1.53806969644316
C           -2.57744098173100        0.04982360180251       -0.23191872529271
C           -3.53628835860975       -0.59212527740857        0.70953321914971
O           -4.56176261117494       -0.07810112897361        1.08012309378047
C           -3.09519046063351       -1.96987489984205        1.20651293764231
O           -3.86704138730395       -2.77296068050657        1.69161090514235
N           -1.77820169854167       -2.21703111902790        1.05632250294767
C           -0.79055894742605       -1.37047102068203        0.41773614909291
C           -0.00015362077807       -2.22692528849400       -0.57963989645715
C            0.12575877810714       -0.71145799651965        1.53043194899088
C           -0.69830811713736        0.28205152542264        2.35452010032713
C            0.69883566616949       -1.77826417385249        2.46362563126918
N            1.17033455265605        0.05129053566580        0.86719189877409
C            2.38043187824827       -0.40757900245597        0.47681536461038
O            2.79415500308486       -1.54521784306358        0.60488713224197
C            3.16976273097355        0.68158298810825       -0.15289116046481
N            2.77407574885634        1.90328136363031       -0.34919180922554
N            3.80325738344416        2.55636898548293       -0.95641375393707
C            4.76227680045240        1.69064190079537       -1.09249949825336
C            6.09662850210338        1.90564325929784       -1.69359332183761
O            4.42152196388491        0.48859785748575       -0.60547544183130
N           -1.35302993208383       -0.30043758231522       -0.32894440453441
H           -4.30881662211811        2.27972637172608       -3.12980613477486
H           -5.86772703869828        2.12572695135875       -2.26113141813383
H           -4.61006929035533        3.25493945590738       -1.66761236250145
H           -1.46079179390856       -3.12311292438129        1.36440788368833
H            0.67881059637471       -1.59225517147955       -1.14352666306537
H           -0.70032297648049       -2.69598130012228       -1.26810152610539
H            0.56676963428170       -2.99792091887596       -0.06514416159042
H           -1.03675517196994        1.11471956806519        1.73974259458033
H           -1.56528674394925       -0.21715349120192        2.78451682900776
H           -0.08333572523662        0.67225970782522        3.16361245885228
H           -0.09211986252586       -2.14293241449350        3.11621628338985
H            1.11990130324836       -2.62001411863095        1.92102021362579
H            1.48177303161843       -1.33570595565890        3.07687629623717
H            0.94859765102003        1.01317574431759        0.64527103267121
H            6.23721915391189        1.23136268133147       -2.53820095043497
H            6.87357192896387        1.69215934645747       -0.95963457628704
H            6.18525805806433        2.93565470946801       -2.02992950209915

          :  Hamiltonian                  GFN1-xTB          :
         :: total energy             -82.983012022486 Eh    ::
         :: gradient norm              0.000483650123 Eh/a0 ::
         :: HOMO-LUMO gap              1.749691415003 eV    ::
         :: SCC energy               -83.763561362225 Eh    ::
         :: -> Gsolv                  -0.052458326001 Eh    ::
         :: repulsion energy           0.808315255287 Eh    ::

    * Orbital Energies and Occupations

         #    Occupation            Energy/Eh            Energy/eV
      -------------------------------------------------------------
         1        2.0000           -0.8668657             -23.5886
       ...           ...                  ...                  ...
        55        2.0000           -0.5098151             -13.8728
        56        2.0000           -0.5087769             -13.8445
        57        2.0000           -0.5065943             -13.7851
        58        2.0000           -0.5009366             -13.6312
        59        2.0000           -0.4964788             -13.5099
        60        2.0000           -0.4860561             -13.2263
        61        2.0000           -0.4820233             -13.1165
        62        2.0000           -0.4752620             -12.9325
        63        2.0000           -0.4692694             -12.7695
        64        2.0000           -0.4613385             -12.5537
        65        2.0000           -0.4558065             -12.4031
        66        2.0000           -0.4489041             -12.2153
        67        2.0000           -0.4369750             -11.8907 (HOMO)
        68                         -0.3726750             -10.1410 (LUMO)
        69                         -0.3182006              -8.6587
        70                         -0.3149241              -8.5695
        71                         -0.2597667              -7.0686
        72                         -0.2509822              -6.8296
        73                         -0.2042115              -5.5569
        74                         -0.2003915              -5.4529
        75                         -0.1437965              -3.9129
        76                         -0.1430990              -3.8939
        77                         -0.1400614              -3.8113
        78                         -0.1330543              -3.6206
       ...                                ...                  ...
       134                          0.7652543              20.8236
      -------------------------------------------------------------
                  HL-Gap            0.0643000 Eh            1.7497 eV

Wiberg/Mayer (AO) data.
largest (>0.10) Wiberg bond orders for each atom

     #   Z sym  total        # sym  WBO       # sym  WBO       # sym  WBO
 ---------------------------------------------------------------------------
     1   6 C    3.860 --    27 H    0.985    26 H    0.979    28 H    0.978
                             2 O    0.886
     2   8 O    2.225 --     3 C    1.147     1 C    0.886     4 O    0.146
     3   6 C    3.852 --     4 O    1.681     2 O    1.147     5 C    0.947
     4   8 O    1.943 --     3 C    1.681     2 O    0.146
     5   6 C    3.952 --    25 N    1.770     6 C    1.000     3 C    0.947
     6   6 C    3.860 --     7 O    1.793     5 C    1.000     8 C    0.910
     7   8 O    2.002 --     6 C    1.793
     8   6 C    3.903 --     9 O    1.629    10 N    1.249     6 C    0.910
     9   8 O    1.921 --     8 C    1.629    10 N    0.185
    10   7 N    3.368 --     8 C    1.249    11 C    0.940    29 H    0.884
                             9 O    0.185
    11   6 C    3.911 --    25 N    1.019    12 C    0.964    10 N    0.940
                            13 C    0.877
    12   6 C    3.977 --    31 H    0.983    30 H    0.982    32 H    0.978
                            11 C    0.964
    13   6 C    3.931 --    14 C    1.000    15 C    0.998    16 N    0.946
                            11 C    0.877
    14   6 C    3.991 --    13 C    1.000    34 H    0.982    33 H    0.982
                            35 H    0.981
    15   6 C    3.986 --    13 C    0.998    36 H    0.983    38 H    0.979
                            37 H    0.975
    16   7 N    3.349 --    17 C    1.239    13 C    0.946    39 H    0.893
                            18 O    0.174
    17   6 C    3.915 --    18 O    1.596    16 N    1.239    19 C    0.990
    18   8 O    1.915 --    17 C    1.596    16 N    0.174
    19   6 C    3.876 --    20 N    1.609    24 O    1.065    17 C    0.990
    20   7 N    3.019 --    19 C    1.609    21 N    1.202
    21   7 N    2.981 --    22 C    1.602    20 N    1.202
    22   6 C    3.869 --    21 N    1.602    24 O    1.083    23 C    1.032
    23   6 C    3.986 --    22 C    1.032    42 H    0.982    40 H    0.963
                            41 H    0.963
    24   8 O    2.332 --    22 C    1.083    19 C    1.065
    25   7 N    3.045 --     5 C    1.770    11 C    1.019
    26   1 H    1.005 --     1 C    0.979
    27   1 H    1.009 --     1 C    0.985
    28   1 H    1.004 --     1 C    0.978
    29   1 H    0.926 --    10 N    0.884
    30   1 H    1.005 --    12 C    0.982
    31   1 H    1.000 --    12 C    0.983
    32   1 H    1.004 --    12 C    0.978
    33   1 H    1.001 --    14 C    0.982
    34   1 H    1.000 --    14 C    0.982
    35   1 H    0.998 --    14 C    0.981
    36   1 H    1.001 --    15 C    0.983
    37   1 H    1.012 --    15 C    0.975
    38   1 H    0.998 --    15 C    0.979
    39   1 H    0.955 --    16 N    0.893
    40   1 H    0.996 --    23 C    0.963
    41   1 H    0.996 --    23 C    0.963
    42   1 H    0.998 --    23 C    0.982
 ---------------------------------------------------------------------------

           -------------------------------------------------
          | TOTAL ENERGY              -82.983012022486 Eh   |
          | GRADIENT NORM               0.000483650123 Eh/α |
          | HOMO-LUMO GAP               1.749691415003 eV   |
           -------------------------------------------------

 * finished run on 2023/06/21 at 17:41:33.414
