   * xtb version 6.5.1 (579679a) compiled by 'ehlert@majestix' on 2022-07-11
          program call               : /lustre/hpc/kemi/ree/PhD/git/ReactivityQM/dep/xtb-6.5.1/bin/xtb --gfn 1 /lustre/hpc/kemi/ree/PhD/git/ReactivityQM/calculations/R02oxygendeprot/reac01/conf20/R02oxygendeprot_reac01_conf20_gfn1.xyz --opt --vfukui --chrg -1 --uhf 0 --alpb DMSO

   ID    Z sym.   atoms
    1    6 C      1, 3, 5, 7-10, 12, 14, 17, 18, 21, 23
    2    8 O      2, 4, 13, 19, 22, 24
    3    7 N      6, 11, 15, 16, 20
    4    1 H      25-38

      * Solvation model:               ALPB
        Solvent                        DMSO
        Solvent mass                       7.8130E+01 g/mol
          :  Hamiltonian                  GFN1-xTB          :
 * total energy  :   -79.6056793 Eh     change       -0.3855405E-10 Eh
 * total energy  :   -79.6177334 Eh     change       -0.1205413E-01 Eh
 * total energy  :   -79.6220993 Eh     change       -0.4365872E-02 Eh
 * total energy  :   -79.6229325 Eh     change       -0.8331806E-03 Eh
 * total energy  :   -79.6237603 Eh     change       -0.8277960E-03 Eh
 * total energy  :   -79.6243392 Eh     change       -0.5788878E-03 Eh
 * total energy  :   -79.6248497 Eh     change       -0.5105801E-03 Eh
 * total energy  :   -79.6252249 Eh     change       -0.3751997E-03 Eh
 * total energy  :   -79.6254165 Eh     change       -0.1915723E-03 Eh
 * total energy  :   -79.6255242 Eh     change       -0.1077323E-03 Eh
 * total energy  :   -79.6270636 Eh     change       -0.4304033E-04 Eh
 * total energy  :   -79.6270964 Eh     change       -0.3274775E-04 Eh
 * total energy  :   -79.6271194 Eh     change       -0.2300122E-04 Eh
 * total energy  :   -79.6271383 Eh     change       -0.1893960E-04 Eh
 * total energy  :   -79.6271577 Eh     change       -0.1941910E-04 Eh
 * total energy  :   -79.6271748 Eh     change       -0.1702640E-04 Eh
 * total energy  :   -79.6271853 Eh     change       -0.1052802E-04 Eh
 * total energy  :   -79.6271913 Eh     change       -0.6032388E-05 Eh
 * total energy  :   -79.6271950 Eh     change       -0.3704467E-05 Eh
   *** GEOMETRY OPTIMIZATION CONVERGED AFTER 41 ITERATIONS ***

 final structure:
================
38
 xtb: 6.5.1 (579679a)
C           -6.52914764897955        0.68131341304571       -0.45239142178716
O           -5.24748281054883        0.33613103760979       -0.95506482109042
C           -4.26432774222918        0.20488079851707       -0.02713770358941
O           -4.50408576686003        0.38606413916731        1.16190678445942
C           -2.96322206324451       -0.15892105389659       -0.56560556208442
N           -1.99134879728052       -0.26831582872730        0.41491615786968
C           -0.79146728223489       -0.58395752881267        0.10614457224832
C            0.27100717804648       -0.74632372235944        1.17385473447556
C            0.50807863729154       -2.23722691070594        1.43481373199748
C           -0.15657963675637       -0.03112930495505        2.45829038794604
N            1.53780427116830       -0.18584302113296        0.68365053055397
C            1.65632888243930        1.08936443169430        0.26533654813464
O            0.74145683075123        1.89220117292793        0.18265458729574
C            3.04667443222050        1.43784775665697       -0.13101713867394
N            3.47110072839787        2.56230939455252       -0.61780755232529
N            4.80832686796904        2.41391995208711       -0.84361203753654
C            5.11601906936881        1.20843941307968       -0.48109201932904
C            6.44208771776560        0.55529417232863       -0.52847583092520
O            4.04714938585887        0.53666345158269       -0.02177046757527
N           -0.41198588054670       -0.84897537247172       -1.19436381801742
C           -1.26529810441952       -0.77427979070704       -2.26365189155646
O           -0.85286616295416       -1.02779294921609       -3.39375045950885
C           -2.69012936934678       -0.37638534726223       -1.94163391906369
O           -3.50306919063046       -0.27702258481243       -2.88006100050924
H           -6.90641647678571       -0.09840590990745        0.21648992308602
H           -7.19278820453507        0.78284235559738       -1.31028366465691
H           -6.48967796038596        1.62636459172036        0.09855668084377
H            1.27231970379145       -2.36860144202179        2.19815116567908
H           -0.41544873152763       -2.70185742593768        1.77742650074766
H            0.83440341320861       -2.73225535093762        0.52174546157797
H           -0.31811827644803        1.02869668707869        2.26383977578393
H           -1.08813699849869       -0.46769829490019        2.81666880836169
H            0.61152089407552       -0.14403428159454        3.22010861851724
H            2.36763988616164       -0.74048880973247        0.78990133248820
H            6.69835239353088        0.16367553638821        0.45494789495677
H            6.41981753313783       -0.28104818074217       -1.22711251051188
H            7.19465078354347        1.27270390455175       -0.84587241746601
H            0.53685949548420       -1.12814909775309       -1.37861996082163

          :  Hamiltonian                  GFN1-xTB          :
         :: total energy             -79.627195037856 Eh    ::
         :: gradient norm              0.000606788742 Eh/a0 ::
         :: HOMO-LUMO gap              1.628043620526 eV    ::
         :: SCC energy               -80.355285674397 Eh    ::
         :: -> Gsolv                  -0.141995878268 Eh    ::
         :: repulsion energy           0.751304631984 Eh    ::

    * Orbital Energies and Occupations

         #    Occupation            Energy/Eh            Energy/eV
      -------------------------------------------------------------
         1        2.0000           -0.8607586             -23.4224
       ...           ...                  ...                  ...
        52        2.0000           -0.4814309             -13.1004
        53        2.0000           -0.4749532             -12.9241
        54        2.0000           -0.4639494             -12.6247
        55        2.0000           -0.4593043             -12.4983
        56        2.0000           -0.4545368             -12.3686
        57        2.0000           -0.4540378             -12.3550
        58        2.0000           -0.4467908             -12.1578
        59        2.0000           -0.4417044             -12.0194
        60        2.0000           -0.4369578             -11.8902
        61        2.0000           -0.4347544             -11.8303
        62        2.0000           -0.4134122             -11.2495
        63        2.0000           -0.3770965             -10.2613
        64        2.0000           -0.3638241              -9.9002 (HOMO)
        65                         -0.3039946              -8.2721 (LUMO)
        66                         -0.2684270              -7.3043
        67                         -0.2525459              -6.8721
        68                         -0.2358963              -6.4191
        69                         -0.1954387              -5.3182
        70                         -0.1918456              -5.2204
        71                         -0.1395356              -3.7970
        72                         -0.1242082              -3.3799
        73                         -0.1213876              -3.3031
        74                         -0.1129682              -3.0740
        75                         -0.1070909              -2.9141
       ...                                ...                  ...
       124                          0.7549812              20.5441
      -------------------------------------------------------------
                  HL-Gap            0.0598295 Eh            1.6280 eV

Wiberg/Mayer (AO) data.
largest (>0.10) Wiberg bond orders for each atom

     #   Z sym  total        # sym  WBO       # sym  WBO       # sym  WBO
 ---------------------------------------------------------------------------
     1   6 C    3.900 --    26 H    0.987    25 H    0.980    27 H    0.980
                             2 O    0.926
     2   8 O    2.159 --     3 C    1.045     1 C    0.926     4 O    0.109
     3   6 C    3.850 --     4 O    1.573     5 C    1.117     2 O    1.045
     4   8 O    1.849 --     3 C    1.573     2 O    0.109
     5   6 C    3.916 --    23 C    1.274     6 N    1.149     3 C    1.117
                            24 O    0.130
     6   7 N    3.030 --     7 C    1.640     5 C    1.149
     7   6 C    3.933 --     6 N    1.640    20 N    1.091     8 C    0.973
     8   6 C    3.932 --    10 C    0.992     9 C    0.989     7 C    0.973
                            11 N    0.916
     9   6 C    3.991 --     8 C    0.989    30 H    0.984    29 H    0.984
                            28 H    0.984
    10   6 C    3.991 --     8 C    0.992    33 H    0.987    32 H    0.983
                            31 H    0.982
    11   7 N    3.354 --    12 C    1.264     8 C    0.916    34 H    0.895
                            13 O    0.179
    12   6 C    3.920 --    13 O    1.584    11 N    1.264    14 C    0.988
    13   8 O    1.887 --    12 C    1.584    11 N    0.179
    14   6 C    3.870 --    15 N    1.625    19 O    1.048    12 C    0.988
    15   7 N    2.997 --    14 C    1.625    16 N    1.194
    16   7 N    2.981 --    17 C    1.614    15 N    1.194
    17   6 C    3.870 --    16 N    1.614    19 O    1.072    18 C    1.031
    18   6 C    3.987 --    17 C    1.031    37 H    0.983    35 H    0.965
                            36 H    0.961
    19   8 O    2.316 --    17 C    1.072    14 C    1.048
    20   7 N    3.427 --    21 C    1.165     7 C    1.091    38 H    0.898
                            22 O    0.136
    21   6 C    3.879 --    22 O    1.575    20 N    1.165    23 C    0.968
    22   8 O    1.855 --    21 C    1.575    20 N    0.136
    23   6 C    3.943 --    24 O    1.517     5 C    1.274    21 C    0.968
    24   8 O    1.822 --    23 C    1.517     5 C    0.130
    25   1 H    1.014 --     1 C    0.980
    26   1 H    1.016 --     1 C    0.987
    27   1 H    1.015 --     1 C    0.980
    28   1 H    0.998 --     9 C    0.984
    29   1 H    1.003 --     9 C    0.984
    30   1 H    1.000 --     9 C    0.984
    31   1 H    1.014 --    10 C    0.982
    32   1 H    1.014 --    10 C    0.983
    33   1 H    1.003 --    10 C    0.987
    34   1 H    0.937 --    11 N    0.895
    35   1 H    0.997 --    18 C    0.965
    36   1 H    0.997 --    18 C    0.961
    37   1 H    0.999 --    18 C    0.983
    38   1 H    0.949 --    20 N    0.898
 ---------------------------------------------------------------------------

           -------------------------------------------------
          | TOTAL ENERGY              -79.627195037856 Eh   |
          | GRADIENT NORM               0.000606788742 Eh/α |
          | HOMO-LUMO GAP               1.628043620526 eV   |
           -------------------------------------------------

 * finished run on 2023/06/21 at 17:00:38.819
