                         Program Version 5.0.1 -  RELEASE  -
|  1> # ORCA input file
|  2> ! SP r2SCAN-3c CPCM
|  3>
|  4> %maxcore 1875.0
|  5> %pal nprocs 4 end
|  6> %cpcm smd true SMDsolvent "DMSO" end
|  7>
|  8> *xyz -2 1
|  9> C      -3.918529    1.217980   -1.554945
| 10> O      -3.524290    2.059676   -0.482949
| 11> C      -3.455068    1.471769    0.788680
| 12> O      -4.376085    1.999706    1.676451
| 13> C      -5.608320    1.299954    1.811407
| 14> C      -2.491015    0.534613    1.112628
| 15> N      -1.589419    0.231688    0.087212
| 16> C      -0.600875   -0.561966    0.326610
| 17> C       0.348474   -0.972349   -0.786091
| 18> C       0.270835    0.017312   -1.956119
| 19> C      -0.059184   -2.373936   -1.264482
| 20> N       1.708619   -1.078359   -0.254222
| 21> C       2.401734    0.093012    0.110137
| 22> O       1.818482    1.147853    0.428898
| 23> C       3.813421   -0.117788    0.120902
| 24> N       4.450508   -1.246378   -0.218248
| 25> N       5.788019   -0.988046   -0.092250
| 26> C       5.910092    0.237822    0.301263
| 27> C       7.175018    0.968383    0.566152
| 28> O       4.721086    0.866172    0.465731
| 29> N      -0.393019   -1.132782    1.541463
| 30> C      -1.263214   -0.985541    2.631605
| 31> O      -0.980651   -1.614552    3.685311
| 32> C      -2.398515   -0.114764    2.416450
| 33> O      -3.281509    0.051780    3.327660
| 34> H      -4.888070    0.742141   -1.361007
| 35> H      -3.170184    0.435867   -1.741326
| 36> H      -4.004131    1.846950   -2.443552
| 37> H      -6.219199    1.859126    2.522715
| 38> H      -5.445344    0.285477    2.195213
| 39> H      -6.140948    1.241030    0.854720
| 40> H      -0.736325    0.003538   -2.371462
| 41> H       0.493192    1.029013   -1.616846
| 42> H       0.978600   -0.264371   -2.733968
| 43> H       0.013156   -3.087232   -0.444121
| 44> H      -1.086361   -2.357166   -1.626376
| 45> H       0.590804   -2.702993   -2.073752
| 46> H       2.287125   -1.736377   -0.759114
| 47> H       7.229753    1.274830    1.611439
| 48> H       8.019687    0.322697    0.338366
| 49> H       7.231450    1.865335   -0.051091
| 50> H       0.380199   -1.769123    1.656731
| 51> **                         ****END OF INPUT****

CARTESIAN COORDINATES (ANGSTROEM)
---------------------------------
  C     -3.918529    1.217980   -1.554945
  O     -3.524290    2.059676   -0.482949
  C     -3.455068    1.471769    0.788680
  O     -4.376085    1.999706    1.676451
  C     -5.608320    1.299954    1.811407
  C     -2.491015    0.534613    1.112628
  N     -1.589419    0.231688    0.087212
  C     -0.600875   -0.561966    0.326610
  C      0.348474   -0.972349   -0.786091
  C      0.270835    0.017312   -1.956119
  C     -0.059184   -2.373936   -1.264482
  N      1.708619   -1.078359   -0.254222
  C      2.401734    0.093012    0.110137
  O      1.818482    1.147853    0.428898
  C      3.813421   -0.117788    0.120902
  N      4.450508   -1.246378   -0.218248
  N      5.788019   -0.988046   -0.092250
  C      5.910092    0.237822    0.301263
  C      7.175018    0.968383    0.566152
  O      4.721086    0.866172    0.465731
  N     -0.393019   -1.132782    1.541463
  C     -1.263214   -0.985541    2.631605
  O     -0.980651   -1.614552    3.685311
  C     -2.398515   -0.114764    2.416450
  O     -3.281509    0.051780    3.327660
  H     -4.888070    0.742141   -1.361007
  H     -3.170184    0.435867   -1.741326
  H     -4.004131    1.846950   -2.443552
  H     -6.219199    1.859126    2.522715
  H     -5.445344    0.285477    2.195213
  H     -6.140948    1.241030    0.854720
  H     -0.736325    0.003538   -2.371462
  H      0.493192    1.029013   -1.616846
  H      0.978600   -0.264371   -2.733968
  H      0.013156   -3.087232   -0.444121
  H     -1.086361   -2.357166   -1.626376
  H      0.590804   -2.702993   -2.073752
  H      2.287125   -1.736377   -0.759114
  H      7.229753    1.274830    1.611439
  H      8.019687    0.322697    0.338366
  H      7.231450    1.865335   -0.051091
  H      0.380199   -1.769123    1.656731

 Total Charge           Charge          ....   -2
 Multiplicity           Mult            ....    1
 Number of Electrons    NEL             ....  186
 Basis Dimension        Dim             ....  615

ORBITAL ENERGIES
----------------

  NO   OCC          E(Eh)            E(eV)
   0   2.0000     -19.014751      -517.4177
   1   2.0000     -18.940190      -515.3888
   2   2.0000     -18.937033      -515.3029
   3   2.0000     -18.890384      -514.0335
   4   2.0000     -18.859331      -513.1885
   5   2.0000     -18.840420      -512.6739
   6   2.0000     -14.167727      -385.5235
   7   2.0000     -14.163073      -385.3968
   8   2.0000     -14.156312      -385.2128
   9   2.0000     -14.153815      -385.1449
  10   2.0000     -14.108089      -383.9006
  11   2.0000     -10.107241      -275.0320
  12   2.0000     -10.098153      -274.7847
  13   2.0000     -10.088767      -274.5293
  14   2.0000     -10.073302      -274.1085
  15   2.0000     -10.069122      -273.9947
  16   2.0000     -10.068053      -273.9656
  17   2.0000     -10.064039      -273.8564
  18   2.0000     -10.048284      -273.4277
  19   2.0000     -10.045797      -273.3600
  20   2.0000     -10.030714      -272.9496
  21   2.0000     -10.027720      -272.8681
  22   2.0000     -10.022222      -272.7185
  23   2.0000     -10.011906      -272.4378
  24   2.0000     -10.000304      -272.1221
  25   2.0000      -1.094591       -29.7853
  26   2.0000      -1.001512       -27.2525
  27   2.0000      -0.964754       -26.2523
  28   2.0000      -0.950422       -25.8623
  29   2.0000      -0.946960       -25.7681
  30   2.0000      -0.929431       -25.2911
  31   2.0000      -0.897899       -24.4331
  32   2.0000      -0.885825       -24.1045
  33   2.0000      -0.861768       -23.4499
  34   2.0000      -0.814170       -22.1547
  35   2.0000      -0.789449       -21.4820
  36   2.0000      -0.737435       -20.0666
  37   2.0000      -0.691899       -18.8275
  38   2.0000      -0.683242       -18.5920
  39   2.0000      -0.652793       -17.7634
  40   2.0000      -0.643811       -17.5190
  41   2.0000      -0.625766       -17.0279
  42   2.0000      -0.622849       -16.9486
  43   2.0000      -0.601720       -16.3736
  44   2.0000      -0.580588       -15.7986
  45   2.0000      -0.561885       -15.2897
  46   2.0000      -0.532364       -14.4864
  47   2.0000      -0.512009       -13.9325
  48   2.0000      -0.505160       -13.7461
  49   2.0000      -0.480949       -13.0873
  50   2.0000      -0.469195       -12.7674
  51   2.0000      -0.455945       -12.4069
  52   2.0000      -0.448161       -12.1951
  53   2.0000      -0.444872       -12.1056
  54   2.0000      -0.425704       -11.5840
  55   2.0000      -0.419768       -11.4225
  56   2.0000      -0.411300       -11.1920
  57   2.0000      -0.407571       -11.0906
  58   2.0000      -0.395991       -10.7755
  59   2.0000      -0.385501       -10.4900
  60   2.0000      -0.380640       -10.3578
  61   2.0000      -0.376141       -10.2353
  62   2.0000      -0.375073       -10.2062
  63   2.0000      -0.372769       -10.1436
  64   2.0000      -0.371825       -10.1179
  65   2.0000      -0.366895        -9.9837
  66   2.0000      -0.362654        -9.8683
  67   2.0000      -0.353355        -9.6153
  68   2.0000      -0.344645        -9.3783
  69   2.0000      -0.337105        -9.1731
  70   2.0000      -0.333794        -9.0830
  71   2.0000      -0.323535        -8.8038
  72   2.0000      -0.314582        -8.5602
  73   2.0000      -0.310993        -8.4626
  74   2.0000      -0.308511        -8.3950
  75   2.0000      -0.304425        -8.2838
  76   2.0000      -0.302596        -8.2341
  77   2.0000      -0.286991        -7.8094
  78   2.0000      -0.284366        -7.7380
  79   2.0000      -0.276802        -7.5322
  80   2.0000      -0.274036        -7.4569
  81   2.0000      -0.236696        -6.4408
  82   2.0000      -0.229607        -6.2479
  83   2.0000      -0.226910        -6.1745
  84   2.0000      -0.219047        -5.9606
  85   2.0000      -0.216931        -5.9030
  86   2.0000      -0.209577        -5.7029
  87   2.0000      -0.202248        -5.5035
  88   2.0000      -0.199218        -5.4210
  89   2.0000      -0.178603        -4.8600
  90   2.0000      -0.151348        -4.1184
  91   2.0000      -0.142153        -3.8682
  92   2.0000      -0.066167        -1.8005
  93   0.0000      -0.065111        -1.7718
  94   0.0000       0.008931         0.2430
  95   0.0000       0.015155         0.4124
  96   0.0000       0.043269         1.1774
  97   0.0000       0.062697         1.7061

MULLIKEN ATOMIC CHARGES
-----------------------
   0 C :   -0.342414
   1 O :   -0.160630
   2 C :   -0.160503
   3 O :   -0.131493
   4 C :   -0.369505
   5 C :   -0.006220
   6 N :   -0.151610
   7 C :    0.147838
   8 C :    0.231464
   9 C :   -0.678987
  10 C :   -0.574990
  11 N :   -0.272154
  12 C :   -0.289585
  13 O :   -0.469307
  14 C :    0.301198
  15 N :   -0.253429
  16 N :   -0.300565
  17 C :    0.342412
  18 C :   -0.651644
  19 O :   -0.068714
  20 N :   -0.033859
  21 C :   -0.155568
  22 O :   -0.436432
  23 C :   -0.247670
  24 O :   -0.420930
  25 H :    0.143606
  26 H :    0.160521
  27 H :    0.151532
  28 H :    0.148209
  29 H :    0.171187
  30 H :    0.139818
  31 H :    0.169240
  32 H :    0.201017
  33 H :    0.175594
  34 H :    0.178626
  35 H :    0.185880
  36 H :    0.175981
  37 H :    0.314598
  38 H :    0.185156
  39 H :    0.193287
  40 H :    0.184072
  41 H :    0.274977
Sum of atomic charges:   -2.0000000

LOEWDIN ATOMIC CHARGES
----------------------
   0 C :   -0.075930
   1 O :   -0.667308
   2 C :    0.315666
   3 O :   -0.666314
   4 C :   -0.079301
   5 C :    0.144554
   6 N :   -0.646383
   7 C :    0.316329
   8 C :    0.094620
   9 C :   -0.366310
  10 C :   -0.354362
  11 N :   -0.652879
  12 C :    0.323169
  13 O :   -0.531809
  14 C :    0.357513
  15 N :   -0.451520
  16 N :   -0.429601
  17 C :    0.331974
  18 C :   -0.332201
  19 O :   -0.420129
  20 N :   -0.544012
  21 C :    0.296314
  22 O :   -0.588753
  23 C :    0.161340
  24 O :   -0.661284
  25 H :    0.157871
  26 H :    0.168473
  27 H :    0.169914
  28 H :    0.169247
  29 H :    0.171809
  30 H :    0.154746
  31 H :    0.167263
  32 H :    0.179260
  33 H :    0.160235
  34 H :    0.168932
  35 H :    0.170349
  36 H :    0.165671
  37 H :    0.288588
  38 H :    0.179755
  39 H :    0.183300
  40 H :    0.179631
  41 H :    0.291574

  Mayer bond orders larger than 0.100000
B(  0-C ,  1-O ) :   0.8367 B(  0-C , 25-H ) :   0.9649 B(  0-C , 26-H ) :   0.9602
B(  0-C , 27-H ) :   0.9742 B(  1-O ,  2-C ) :   1.1531 B(  2-C ,  3-O ) :   1.1985
B(  2-C ,  5-C ) :   1.4373 B(  3-O ,  4-C ) :   0.8305 B(  4-C , 28-H ) :   0.9750
B(  4-C , 29-H ) :   0.9641 B(  4-C , 30-H ) :   0.9660 B(  5-C ,  6-N ) :   0.8740
B(  5-C , 23-C ) :   0.8325 B(  6-N ,  7-C ) :   1.7996 B(  7-C ,  8-C ) :   0.7952
B(  7-C , 20-N ) :   1.1026 B(  8-C ,  9-C ) :   0.8443 B(  8-C , 10-C ) :   0.9187
B(  8-C , 11-N ) :   0.7678 B(  9-C , 31-H ) :   0.9581 B(  9-C , 32-H ) :   0.9822
B(  9-C , 33-H ) :   0.9847 B( 10-C , 34-H ) :   0.9673 B( 10-C , 35-H ) :   0.9763
B( 10-C , 36-H ) :   0.9671 B( 11-N , 12-C ) :   1.0308 B( 11-N , 37-H ) :   0.8804
B( 12-C , 13-O ) :   1.8528 B( 12-C , 14-C ) :   0.8313 B( 13-O , 14-C ) :  -0.1301
B( 14-C , 15-N ) :   1.5039 B( 14-C , 19-O ) :   1.0506 B( 15-N , 16-N ) :   1.2452
B( 16-N , 17-C ) :   1.6746 B( 17-C , 18-C ) :   0.8099 B( 17-C , 19-O ) :   1.0308
B( 18-C , 38-H ) :   0.9486 B( 18-C , 39-H ) :   0.9999 B( 18-C , 40-H ) :   0.9535
B( 20-N , 21-C ) :   0.9316 B( 20-N , 41-H ) :   0.8842 B( 21-C , 22-O ) :   2.0765
B( 21-C , 23-C ) :   1.0401 B( 22-O , 23-C ) :  -0.1125 B( 23-C , 24-O ) :   1.7331

Dispersion correction           -0.019371893
FINAL SINGLE POINT ENERGY     -1268.777397257993

DIPOLE MOMENT
-------------
                                X             Y             Z
Electronic contribution:      9.32436       1.53324      11.52941
Nuclear contribution   :     -6.35020      -1.85201     -16.91469
                        -----------------------------------------
Total Dipole Moment    :      2.97417      -0.31877      -5.38528
                        -----------------------------------------
Magnitude (a.u.)       :      6.16024
Magnitude (Debye)      :     15.65809

Rotational constants in cm-1:     0.015051     0.003403     0.003230
Rotational constants in MHz :   451.204575   102.021520    96.846702

                             ****ORCA TERMINATED NORMALLY****
TOTAL RUN TIME: 0 days 0 hours 2 minutes 36 seconds 442 msec
