   * xtb version 6.5.1 (579679a) compiled by 'ehlert@majestix' on 2022-07-11
          program call               : /lustre/hpc/kemi/ree/PhD/git/ReactivityQM/dep/xtb-6.5.1/bin/xtb --gfn 1 /lustre/hpc/kemi/ree/PhD/git/ReactivityQM/calculations/R02oxygendeprot/reac01prodE03/conf01/R02oxygendeprot_reac01prodE03_conf01_gfn1.xyz --opt --vfukui --chrg -2 --uhf 0 --alpb DMSO

   ID    Z sym.   atoms
    1    6 C      1, 3, 5, 6, 8-11, 13, 15, 18, 19, 22, 24
    2    8 O      2, 4, 14, 20, 23, 25
    3    7 N      7, 12, 16, 17, 21
    4    1 H      26-42

      * Solvation model:               ALPB
        Solvent                        DMSO
        Solvent mass                       7.8130E+01 g/mol
          :  Hamiltonian                  GFN1-xTB          :
 * total energy  :   -83.5531467 Eh     change       -0.4629811E-08 Eh
 * total energy  :   -83.5675165 Eh     change       -0.1436976E-01 Eh
 * total energy  :   -83.5733259 Eh     change       -0.5809427E-02 Eh
 * total energy  :   -83.5746068 Eh     change       -0.1280874E-02 Eh
 * total energy  :   -83.5754426 Eh     change       -0.8357476E-03 Eh
 * total energy  :   -83.5759138 Eh     change       -0.4712583E-03 Eh
 * total energy  :   -83.5763266 Eh     change       -0.4127383E-03 Eh
 * total energy  :   -83.5766568 Eh     change       -0.3302827E-03 Eh
 * total energy  :   -83.5769145 Eh     change       -0.2576406E-03 Eh
 * total energy  :   -83.5770911 Eh     change       -0.1765786E-03 Eh
 * total energy  :   -83.5838222 Eh     change       -0.2787397E-04 Eh
 * total energy  :   -83.5838563 Eh     change       -0.3406999E-04 Eh
 * total energy  :   -83.5838793 Eh     change       -0.2298085E-04 Eh
 * total energy  :   -83.5838978 Eh     change       -0.1849324E-04 Eh
 * total energy  :   -83.5839115 Eh     change       -0.1371097E-04 Eh
 * total energy  :   -83.5839236 Eh     change       -0.1215209E-04 Eh
 * total energy  :   -83.5839335 Eh     change       -0.9903885E-05 Eh
 * total energy  :   -83.5839397 Eh     change       -0.6111818E-05 Eh
 * total energy  :   -83.5839434 Eh     change       -0.3766208E-05 Eh
   *** GEOMETRY OPTIMIZATION CONVERGED AFTER 84 ITERATIONS ***

 final structure:
================
42
 xtb: 6.5.1 (579679a)
C           -3.91852890948741        1.21798034986878       -1.55494530705002
O           -3.52429001211774        2.05967620600852       -0.48294870590361
C           -3.45506808521992        1.47176928442623        0.78867990262971
O           -4.37608471273889        1.99970554645363        1.67645066845626
C           -5.60832011084834        1.29995443513815        1.81140695784272
C           -2.49101489226594        0.53461275874967        1.11262788970902
N           -1.58941885968436        0.23168815136299        0.08721169755620
C           -0.60087503731296       -0.56196603915527        0.32661026488727
C            0.34847440573802       -0.97234921524875       -0.78609063602968
C            0.27083484711559        0.01731189415948       -1.95611872031547
C           -0.05918437982292       -2.37393591558319       -1.26448170739286
N            1.70861906743582       -1.07835921794091       -0.25422164323705
C            2.40173429675748        0.09301249961013        0.11013686610566
O            1.81848219917720        1.14785318347486        0.42889763016890
C            3.81342126261364       -0.11778808154571        0.12090184393180
N            4.45050763601186       -1.24637756044185       -0.21824770806142
N            5.78801883513568       -0.98804628568689       -0.09225000185285
C            5.91009227069076        0.23782201341448        0.30126283394602
C            7.17501796634180        0.96838280703952        0.56615162634402
O            4.72108572139989        0.86617161728388        0.46573090806669
N           -0.39301929076084       -1.13278220067212        1.54146294054766
C           -1.26321407462002       -0.98554088767116        2.63160508605347
O           -0.98065087435435       -1.61455230679477        3.68531091347149
C           -2.39851456900778       -0.11476380514813        2.41644979375977
O           -3.28150887794362        0.05178038035640        3.32766019827013
H           -4.88806964864169        0.74214063619851       -1.36100738653519
H           -3.17018395514226        0.43586682883694       -1.74132610123758
H           -4.00413094319492        1.84694959984759       -2.44355186105003
H           -6.21919925159334        1.85912627682207        2.52271452416310
H           -5.44534370926727        0.28547707478177        2.19521313127821
H           -6.14094809098605        1.24102994400418        0.85472020703379
H           -0.73632454089645        0.00353782330601       -2.37146201148961
H            0.49319225812189        1.02901305215748       -1.61684569546074
H            0.97860010017647       -0.26437081522234       -2.73396823468269
H            0.01315614095292       -3.08723172893987       -0.44412058578794
H           -1.08636083104774       -2.35716610271787       -1.62637555709892
H            0.59080397480597       -2.70299275769776       -2.07375218236981
H            2.28712514944158       -1.73637706990663       -0.75911352517076
H            7.22975256797776        1.27482981259937        1.61143908915743
H            8.01968706353722        0.32269702750346        0.33836642036068
H            7.23145031075162        1.86533504031815       -0.05109089116089
H            0.38019858276106       -1.76912325334768        1.65673106814628

          :  Hamiltonian                  GFN1-xTB          :
         :: total energy             -83.583943420798 Eh    ::
         :: gradient norm              0.000482760372 Eh/a0 ::
         :: HOMO-LUMO gap              0.033230672555 eV    ::
         :: SCC energy               -84.306087329675 Eh    ::
         :: -> Gsolv                  -0.288233837671 Eh    ::
         :: repulsion energy           0.748370284893 Eh    ::

    * Orbital Energies and Occupations

         #    Occupation            Energy/Eh            Energy/eV
      -------------------------------------------------------------
         1        2.0000           -0.8009497             -21.7949
       ...           ...                  ...                  ...
        56        2.0000           -0.4296288             -11.6908
        57        2.0000           -0.4269846             -11.6188
        58        2.0000           -0.4214661             -11.4687
        59        2.0000           -0.4096045             -11.1459
        60        2.0000           -0.4047984             -11.0151
        61        2.0000           -0.4041994             -10.9988
        62        2.0000           -0.4013353             -10.9209
        63        2.0000           -0.3979644             -10.8292
        64        2.0000           -0.3890336             -10.5861
        65        2.0000           -0.3764886             -10.2448
        66        2.0000           -0.3456965              -9.4069
        67        2.0000           -0.3410916              -9.2816
        68        1.3107           -0.2684332              -7.3044 (HOMO)
        69        0.6893           -0.2672120              -7.2712 (LUMO)
        70                         -0.2101132              -5.7175
        71                         -0.2046141              -5.5678
        72                         -0.1800362              -4.8990
        73                         -0.1400371              -3.8106
        74                         -0.1244887              -3.3875
        75                         -0.1144941              -3.1155
        76                         -0.1074237              -2.9231
        77                         -0.1029934              -2.8026
        78                         -0.0940916              -2.5604
        79                         -0.0757902              -2.0624
       ...                                ...                  ...
       134                          0.7278812              19.8067
      -------------------------------------------------------------
                  HL-Gap            0.0012212 Eh            0.0332 eV

Wiberg/Mayer (AO) data.
largest (>0.10) Wiberg bond orders for each atom

     #   Z sym  total        # sym  WBO       # sym  WBO       # sym  WBO
 ---------------------------------------------------------------------------
     1   6 C    3.912 --    28 H    0.985    26 H    0.981    27 H    0.976
                             2 O    0.938
     2   8 O    1.999 --     1 C    0.938     3 C    0.933
     3   6 C    3.539 --     6 C    1.463     4 O    0.963     2 O    0.933
     4   8 O    2.012 --     3 C    0.963     5 C    0.927
     5   6 C    3.905 --    29 H    0.986    31 H    0.982    30 H    0.978
                             4 O    0.927
     6   6 C    3.943 --     3 C    1.463    24 C    1.124     7 N    1.108
     7   7 N    2.984 --     8 C    1.576     6 C    1.108    21 N    0.108
     8   6 C    3.910 --     7 N    1.576    21 N    1.166     9 C    0.973
     9   6 C    3.952 --    10 C    0.991    11 C    0.986     8 C    0.973
                            12 N    0.944
    10   6 C    3.993 --     9 C    0.991    34 H    0.988    32 H    0.984
                            33 H    0.981
    11   6 C    3.993 --    36 H    0.986     9 C    0.986    35 H    0.985
                            37 H    0.985
    12   7 N    3.135 --    13 C    1.064     9 C    0.944    38 H    0.920
                            14 O    0.107
    13   6 C    3.749 --    14 O    1.461    15 C    1.157    12 N    1.064
    14   8 O    1.679 --    13 C    1.461    12 N    0.107
    15   6 C    3.690 --    16 N    1.388    13 C    1.157    20 O    0.976
    16   7 N    2.737 --    15 C    1.388    17 N    1.186
    17   7 N    2.980 --    18 C    1.628    16 N    1.186
    18   6 C    3.819 --    17 N    1.628    20 O    1.050    19 C    1.023
    19   6 C    3.994 --    18 C    1.023    40 H    0.986    41 H    0.972
                            39 H    0.971
    20   8 O    2.182 --    18 C    1.050    15 C    0.976
    21   7 N    3.392 --     8 C    1.166    22 C    1.045    42 H    0.907
                             7 N    0.108
    22   6 C    3.780 --    23 O    1.424    24 C    1.144    21 N    1.045
    23   8 O    1.649 --    22 C    1.424
    24   6 C    3.807 --    25 O    1.372    22 C    1.144     6 C    1.124
    25   8 O    1.597 --    24 C    1.372
    26   1 H    1.017 --     1 C    0.981
    27   1 H    1.041 --     1 C    0.976
    28   1 H    1.020 --     1 C    0.985
    29   1 H    1.021 --     5 C    0.986
    30   1 H    1.042 --     5 C    0.978
    31   1 H    1.017 --     5 C    0.982
    32   1 H    1.018 --    10 C    0.984
    33   1 H    1.021 --    10 C    0.981
    34   1 H    1.005 --    10 C    0.988
    35   1 H    1.006 --    11 C    0.985
    36   1 H    1.007 --    11 C    0.986
    37   1 H    1.002 --    11 C    0.985
    38   1 H    0.975 --    12 N    0.920
    39   1 H    1.001 --    19 C    0.971
    40   1 H    1.004 --    19 C    0.986
    41   1 H    1.001 --    19 C    0.972
    42   1 H    0.970 --    21 N    0.907
 ---------------------------------------------------------------------------

           -------------------------------------------------
          | TOTAL ENERGY              -83.583943420798 Eh   |
          | GRADIENT NORM               0.000482760372 Eh/α |
          | HOMO-LUMO GAP               0.033230672555 eV   |
           -------------------------------------------------

 * finished run on 2023/06/21 at 17:02:58.771
