   * xtb version 6.5.1 (579679a) compiled by 'ehlert@majestix' on 2022-07-11
          program call               : /lustre/hpc/kemi/ree/PhD/git/ReactivityQM/dep/xtb-6.5.1/bin/xtb --gfn 1 /lustre/hpc/kemi/ree/PhD/git/ReactivityQM/calculations/R02/reac01prodN12/conf18/R02_reac01prodN12_conf18_gfn1.xyz --opt --vfukui --chrg 1 --uhf 0 --alpb DMSO

   ID    Z sym.   atoms
    1    6 C      1, 3, 5, 7-10, 12, 14, 15, 18, 19, 22, 24
    2    8 O      2, 4, 13, 20, 23, 25
    3    7 N      6, 11, 16, 17, 21
    4    1 H      26-43

      * Solvation model:               ALPB
        Solvent                        DMSO
        Solvent mass                       7.8130E+01 g/mol
          :  Hamiltonian                  GFN1-xTB          :
 * total energy  :   -83.1094026 Eh     change       -0.2543743E-11 Eh
 * total energy  :   -83.1244411 Eh     change       -0.1503852E-01 Eh
 * total energy  :   -83.1307945 Eh     change       -0.6353320E-02 Eh
 * total energy  :   -83.1318898 Eh     change       -0.1095393E-02 Eh
 * total energy  :   -83.1324879 Eh     change       -0.5980791E-03 Eh
 * total energy  :   -83.1326966 Eh     change       -0.2086446E-03 Eh
 * total energy  :   -83.1328840 Eh     change       -0.1873989E-03 Eh
 * total energy  :   -83.1330105 Eh     change       -0.1265708E-03 Eh
 * total energy  :   -83.1331021 Eh     change       -0.9155311E-04 Eh
 * total energy  :   -83.1331686 Eh     change       -0.6650897E-04 Eh
 * total energy  :   -83.1338914 Eh     change       -0.7884340E-05 Eh
 * total energy  :   -83.1338979 Eh     change       -0.6530266E-05 Eh
 * total energy  :   -83.1339037 Eh     change       -0.5818651E-05 Eh
 * total energy  :   -83.1339089 Eh     change       -0.5171063E-05 Eh
 * total energy  :   -83.1339141 Eh     change       -0.5168708E-05 Eh
 * total energy  :   -83.1339194 Eh     change       -0.5317125E-05 Eh
 * total energy  :   -83.1339254 Eh     change       -0.5985412E-05 Eh
 * total energy  :   -83.1339318 Eh     change       -0.6424760E-05 Eh
 * total energy  :   -83.1339332 Eh     change       -0.1413889E-05 Eh
   *** GEOMETRY OPTIMIZATION CONVERGED AFTER 44 ITERATIONS ***

 final structure:
================
43
 xtb: 6.5.1 (579679a)
C            6.08126968802624        1.75023963319535        1.42539281027165
O            4.98030719459940        1.54737664533570        0.53258227657211
C            4.05568378920038        0.67409061968383        0.91812710907373
O            4.10798223519890        0.06378776153242        1.96122101124507
C            2.94270129774285        0.51676300845832       -0.06733687539134
N            2.02703888823827       -0.44425936481819        0.29068985893508
C            1.01413657532397       -0.69406718518018       -0.46385110001116
C            0.04677652367007       -1.79059705751242       -0.05129589065562
C           -0.04949220381343       -2.87523862423284       -1.12691690389791
C            0.49423798537388       -2.39693087951406        1.27935924963000
N           -1.29573574743244       -1.19884949705498        0.20202103527883
C           -2.12249904204120       -0.79588970569615       -0.74047649201594
O           -1.96283800665494       -0.73927025187759       -1.93066074776332
C           -3.55637471190193       -0.32774262553839       -0.16986949941118
C           -4.61465826855361       -1.13692921124716       -0.91691244959662
N           -3.60711971485817       -0.42586342270531        1.23146150909698
N           -3.69832588581377        0.72658343625906        1.74543119178685
C           -3.73929462118354        1.63935888274263        0.71741288341695
C           -3.83627360628821        3.08518807126015        0.88160124191013
O           -3.66665104015291        1.05614250226012       -0.41932356213299
N            0.80386746567242       -0.03580825069012       -1.64097050965062
C            1.63130789601054        0.96338153305136       -2.09254679555453
O            1.42857253902119        1.57513065084733       -3.12913642981982
C            2.78024157595034        1.22808654359052       -1.22521032612039
O            3.60578023532356        2.18661824019891       -1.64862559347198
H            6.72853667045419        2.48978539675953        0.95811052610402
H            5.71879383993759        2.11588543008593        2.38892550223883
H            6.62078238521556        0.81173234911947        1.57409750695230
H           -0.33915708979628       -2.45850998183963       -2.08848550138188
H           -0.78549497445276       -3.61945274845308       -0.82881649541418
H            0.92208826569676       -3.35640779154320       -1.23181009190779
H            1.47954630417350       -2.84461758070412        1.15801765074047
H           -0.21100044561498       -3.16397008160416        1.59215732492200
H            0.55469327144953       -1.62465250813941        2.04465895013661
H           -1.61158423983388       -1.18749533655373        1.16070244387324
H           -5.60117470167950       -0.77215183500020       -0.64019528590800
H           -4.51620260238220       -2.18578953981179       -0.64814856324397
H           -4.45320349268512       -1.00843815813076       -1.98605898945048
H           -3.05710186976449        3.42656975092093        1.56629291795764
H           -3.75931572089361        3.59208571511873       -0.07773266807111
H           -4.79359994374344        3.32116024262201        1.35483867260028
H           -0.01162328113459       -0.24158126980565       -2.20454263431834
H            3.26437858439471        2.55454549460541       -2.48509326756175

          :  Hamiltonian                  GFN1-xTB          :
         :: total energy             -83.133933196886 Eh    ::
         :: gradient norm              0.000162684182 Eh/a0 ::
         :: HOMO-LUMO gap              0.311586968014 eV    ::
         :: SCC energy               -83.927890850342 Eh    ::
         :: -> Gsolv                  -0.117250281542 Eh    ::
         :: repulsion energy           0.820809975913 Eh    ::

    * Orbital Energies and Occupations

         #    Occupation            Energy/Eh            Energy/eV
      -------------------------------------------------------------
         1        2.0000           -0.9375124             -25.5110
       ...           ...                  ...                  ...
        55        2.0000           -0.5358816             -14.5821
        56        2.0000           -0.5296276             -14.4119
        57        2.0000           -0.5250984             -14.2887
        58        2.0000           -0.5181771             -14.1003
        59        2.0000           -0.5160617             -14.0428
        60        2.0000           -0.5065482             -13.7839
        61        2.0000           -0.5017489             -13.6533
        62        2.0000           -0.5012604             -13.6400
        63        2.0000           -0.4970734             -13.5261
        64        2.0000           -0.4926065             -13.4045
        65        2.0000           -0.4698782             -12.7860
        66        2.0000           -0.4602694             -12.5246
        67        1.9952           -0.4425492             -12.0424 (HOMO)
        68        0.0048           -0.4310986             -11.7308 (LUMO)
        69                         -0.3349493              -9.1144
        70                         -0.3325587              -9.0494
        71                         -0.3089000              -8.4056
        72                         -0.2974416              -8.0938
        73                         -0.2478716              -6.7449
        74                         -0.1788042              -4.8655
        75                         -0.1684425              -4.5836
        76                         -0.1587115              -4.3188
        77                         -0.1462392              -3.9794
        78                         -0.1408739              -3.8334
       ...                                ...                  ...
       136                          0.7268449              19.7785
      -------------------------------------------------------------
                  HL-Gap            0.0114506 Eh            0.3116 eV

Wiberg/Mayer (AO) data.
largest (>0.10) Wiberg bond orders for each atom

     #   Z sym  total        # sym  WBO       # sym  WBO       # sym  WBO
 ---------------------------------------------------------------------------
     1   6 C    3.869 --    26 H    0.986    27 H    0.979    28 H    0.979
                             2 O    0.894
     2   8 O    2.208 --     3 C    1.122     1 C    0.894     4 O    0.136
     3   6 C    3.854 --     4 O    1.658     2 O    1.122     5 C    0.995
     4   8 O    1.921 --     3 C    1.658     2 O    0.136
     5   6 C    3.958 --    24 C    1.503     6 N    1.174     3 C    0.995
     6   7 N    3.029 --     7 C    1.600     5 C    1.174
     7   6 C    3.936 --     6 N    1.600    21 N    1.171     8 C    0.972
     8   6 C    3.907 --    10 C    0.997     9 C    0.988     7 C    0.972
                            11 N    0.876
     9   6 C    3.983 --     8 C    0.988    30 H    0.982    31 H    0.981
                            29 H    0.977
    10   6 C    3.984 --     8 C    0.997    33 H    0.984    34 H    0.981
                            32 H    0.979
    11   7 N    3.388 --    12 C    1.367    35 H    0.878     8 C    0.876
                            13 O    0.182
    12   6 C    3.909 --    13 O    1.648    11 N    1.367    14 C    0.748
    13   8 O    2.071 --    12 C    1.648    11 N    0.182
    14   6 C    3.836 --    16 N    1.105    15 C    0.918    20 O    0.899
                            12 C    0.748
    15   6 C    3.947 --    37 H    0.978    36 H    0.975    38 H    0.973
                            14 C    0.918
    16   7 N    3.020 --    17 N    1.647    14 C    1.105
    17   7 N    3.013 --    16 N    1.647    18 C    1.192
    18   6 C    3.802 --    20 O    1.303    17 N    1.192    19 C    1.079
    19   6 C    3.965 --    18 C    1.079    40 H    0.972    39 H    0.928
                            41 H    0.915
    20   8 O    2.390 --    18 C    1.303    14 C    0.899
    21   7 N    3.468 --     7 C    1.171    22 C    1.139    42 H    0.861
                            23 O    0.134
    22   6 C    3.909 --    23 O    1.584    21 N    1.139    24 C    1.056
    23   8 O    1.906 --    22 C    1.584    21 N    0.134
    24   6 C    3.915 --     5 C    1.503    25 O    1.118    22 C    1.056
    25   8 O    2.094 --    24 C    1.118    43 H    0.803
    26   1 H    1.010 --     1 C    0.986
    27   1 H    1.007 --     1 C    0.979
    28   1 H    1.007 --     1 C    0.979
    29   1 H    1.001 --     9 C    0.977
    30   1 H    0.996 --     9 C    0.982
    31   1 H    0.997 --     9 C    0.981
    32   1 H    1.003 --    10 C    0.979
    33   1 H    0.996 --    10 C    0.984
    34   1 H    1.004 --    10 C    0.981
    35   1 H    0.935 --    11 N    0.878
    36   1 H    0.990 --    15 C    0.975
    37   1 H    0.990 --    15 C    0.978
    38   1 H    0.995 --    15 C    0.973
    39   1 H    0.980 --    19 C    0.928
    40   1 H    0.985 --    19 C    0.972
    41   1 H    0.976 --    19 C    0.915
    42   1 H    0.927 --    21 N    0.861
    43   1 H    0.842 --    25 O    0.803
 ---------------------------------------------------------------------------

           -------------------------------------------------
          | TOTAL ENERGY              -83.133933196886 Eh   |
          | GRADIENT NORM               0.000162684182 Eh/α |
          | HOMO-LUMO GAP               0.311586968014 eV   |
           -------------------------------------------------

 * finished run on 2023/06/20 at 15:34:32.332
