   * xtb version 6.5.1 (579679a) compiled by 'ehlert@majestix' on 2022-07-11
          program call               : /lustre/hpc/kemi/ree/PhD/git/ReactivityQM/dep/xtb-6.5.1/bin/xtb --gfn 1 /lustre/hpc/kemi/ree/PhD/git/ReactivityQM/calculations/R02methylcation/reac01prodN15/conf02/R02methylcation_reac01prodN15_conf02_gfn1.xyz --opt --vfukui --chrg 0 --uhf 0 --alpb DMSO

   ID    Z sym.   atoms
    1    6 C      1, 3, 5, 7-10, 12, 14, 17, 18, 21, 23, 24
    2    8 O      2, 4, 13, 19, 22, 25
    3    7 N      6, 11, 15, 16, 20
    4    1 H      26-42

      * Solvation model:               ALPB
        Solvent                        DMSO
        Solvent mass                       7.8130E+01 g/mol
          :  Hamiltonian                  GFN1-xTB          :
 * total energy  :   -82.8979196 Eh     change       -0.2272316E-09 Eh
 * total energy  :   -82.9168760 Eh     change       -0.1895639E-01 Eh
 * total energy  :   -82.9344809 Eh     change       -0.1760492E-01 Eh
 * total energy  :   -82.9514534 Eh     change       -0.1697248E-01 Eh
 * total energy  :   -82.9617534 Eh     change       -0.1030002E-01 Eh
 * total energy  :   -82.9712170 Eh     change       -0.9463572E-02 Eh
 * total energy  :   -82.9744749 Eh     change       -0.3257958E-02 Eh
 * total energy  :   -82.9835599 Eh     change       -0.9084922E-02 Eh
 * total energy  :   -82.9899843 Eh     change       -0.6424461E-02 Eh
 * total energy  :   -82.9987614 Eh     change       -0.8777058E-02 Eh
 * total energy  :   -83.0112079 Eh     change       -0.2964034E-04 Eh
 * total energy  :   -83.0112265 Eh     change       -0.1857574E-04 Eh
 * total energy  :   -83.0112389 Eh     change       -0.1239372E-04 Eh
 * total energy  :   -83.0112550 Eh     change       -0.1607721E-04 Eh
 * total energy  :   -83.0112667 Eh     change       -0.1173208E-04 Eh
 * total energy  :   -83.0112801 Eh     change       -0.1333203E-04 Eh
 * total energy  :   -83.0112862 Eh     change       -0.6103604E-05 Eh
 * total energy  :   -83.0112957 Eh     change       -0.9577290E-05 Eh
 * total energy  :   -83.0113007 Eh     change       -0.4991820E-05 Eh
   *** GEOMETRY OPTIMIZATION CONVERGED AFTER 48 ITERATIONS ***

 final structure:
================
42
 xtb: 6.5.1 (579679a)
C            5.59725996272081       -1.42260653660694       -0.56337419182734
O            4.26091069592855       -0.93798175042049       -0.37607836949743
C            4.10782271230658        0.08780029295200        0.44504780355107
O            5.00652209177779        0.62632323729137        1.04033700381742
C            2.65570669273446        0.53212228625716        0.50233568671346
N            1.72472210490805       -0.46333874767526        0.12677323551651
C            0.52938704893496       -0.11839706477651       -0.14693779431641
C           -0.49120211168482       -1.17187924021337       -0.52947283842721
C           -0.12670986355259       -2.52397106191592        0.08977704369132
C           -0.53289824407780       -1.26524273259203       -2.05802356481187
N           -1.81098537943191       -0.73901384204712       -0.07203598955278
C           -2.05240388878357       -0.46996894299008        1.23206300121308
O           -1.19948069667259       -0.45367658408933        2.10234342557019
C           -3.47508855784697       -0.15302176014836        1.50137677020111
N           -4.01611433024204        0.16955057881816        2.63485349421576
N           -5.33915755764741        0.38372346655404        2.39190659650266
C           -5.52504188971492        0.17930534509384        1.12472903994619
C           -6.78733203329985        0.29041428021398        0.36285478521080
O           -4.38512301828083       -0.16413149435640        0.50320867347892
N            0.11055692118868        1.19134274682048       -0.25280169669845
C            0.96607927391676        2.26444469600844       -0.25615360137522
O            0.64371240593152        3.33760717447974       -0.72130955502851
C            2.32068215984098        1.98743683237058        0.32627084573864
C            3.35758559078918        3.06131318312151        0.10019209771075
O            2.30367697451173        1.34889253701218        1.57708376559698
H            6.20520836833867       -0.65074006138061       -1.03989964777345
H            5.52085909188275       -2.29662988614850       -1.20618568063262
H            6.03683745020185       -1.69129193905046        0.39963725458236
H           -0.08329520514358       -2.44366150179006        1.17527526449845
H            0.84838559669098       -2.83643493738867       -0.28014896078670
H           -0.87128558629810       -3.26681722226204       -0.18738765852377
H           -1.26533241797373       -2.01020811164868       -2.36198082896051
H           -0.80630634522677       -0.30350255684840       -2.48798647352014
H            0.44595326291002       -1.55739197781485       -2.43493953674815
H           -2.58303207697502       -0.81654316564891       -0.71053111189698
H           -7.60243277777888        0.54343194841418        1.03693649830343
H           -7.00304904611799       -0.65261936422792       -0.13869137077556
H           -6.69150893625905        1.06179152227615       -0.40128222827749
H           -0.80464918512689        1.35627594751289       -0.64443917386350
H            4.23536416615825        2.87529858983080        0.71420907387707
H            3.64394463156901        3.08285034375078       -0.94960042187079
H            2.93124694490681        4.02914547327943        0.36359233523200

          :  Hamiltonian                  GFN1-xTB          :
         :: total energy             -83.011300726384 Eh    ::
         :: gradient norm              0.000737492415 Eh/a0 ::
         :: HOMO-LUMO gap              3.607333751157 eV    ::
         :: SCC energy               -83.783962567835 Eh    ::
         :: -> Gsolv                  -0.065337895993 Eh    ::
         :: repulsion energy           0.798536071225 Eh    ::

    * Orbital Energies and Occupations

         #    Occupation            Energy/Eh            Energy/eV
      -------------------------------------------------------------
         1        2.0000           -0.8670764             -23.5943
       ...           ...                  ...                  ...
        55        2.0000           -0.5084248             -13.8349
        56        2.0000           -0.5068223             -13.7913
        57        2.0000           -0.5047662             -13.7354
        58        2.0000           -0.5026837             -13.6787
        59        2.0000           -0.4823077             -13.1243
        60        2.0000           -0.4779030             -13.0044
        61        2.0000           -0.4705858             -12.8053
        62        2.0000           -0.4670898             -12.7102
        63        2.0000           -0.4654356             -12.6651
        64        2.0000           -0.4607723             -12.5383
        65        2.0000           -0.4546605             -12.3719
        66        2.0000           -0.4507427             -12.2653
        67        2.0000           -0.4465390             -12.1509 (HOMO)
        68                         -0.3139719              -8.5436 (LUMO)
        69                         -0.3019000              -8.2151
        70                         -0.2871670              -7.8142
        71                         -0.2580235              -7.0212
        72                         -0.2577983              -7.0150
        73                         -0.2011168              -5.4727
        74                         -0.1434897              -3.9046
        75                         -0.1420745              -3.8660
        76                         -0.1364570              -3.7132
        77                         -0.1302932              -3.5455
        78                         -0.1262386              -3.4351
       ...                                ...                  ...
       134                          0.7237400              19.6940
      -------------------------------------------------------------
                  HL-Gap            0.1325671 Eh            3.6073 eV

Wiberg/Mayer (AO) data.
largest (>0.10) Wiberg bond orders for each atom

     #   Z sym  total        # sym  WBO       # sym  WBO       # sym  WBO
 ---------------------------------------------------------------------------
     1   6 C    3.861 --    27 H    0.986    28 H    0.980    26 H    0.979
                             2 O    0.885
     2   8 O    2.217 --     3 C    1.142     1 C    0.885     4 O    0.141
     3   6 C    3.849 --     4 O    1.682     2 O    1.142     5 C    0.939
     4   8 O    1.950 --     3 C    1.682     2 O    0.141
     5   6 C    3.870 --     6 N    1.028     3 C    0.939    25 O    0.907
                            23 C    0.830
     6   7 N    3.022 --     7 C    1.706     5 C    1.028
     7   6 C    3.927 --     6 N    1.706    20 N    1.109     8 C    0.974
     8   6 C    3.937 --     9 C    0.989    10 C    0.981     7 C    0.974
                            11 N    0.929
     9   6 C    3.988 --     8 C    0.989    31 H    0.986    30 H    0.983
                            29 H    0.981
    10   6 C    3.988 --    33 H    0.984    34 H    0.983     8 C    0.981
                            32 H    0.981
    11   7 N    3.338 --    12 C    1.242     8 C    0.929    35 H    0.890
                            13 O    0.173
    12   6 C    3.916 --    13 O    1.594    11 N    1.242    14 C    0.995
    13   8 O    1.897 --    12 C    1.594    11 N    0.173
    14   6 C    3.873 --    15 N    1.621    19 O    1.047    12 C    0.995
    15   7 N    3.001 --    14 C    1.621    16 N    1.200
    16   7 N    2.981 --    17 C    1.608    15 N    1.200
    17   6 C    3.868 --    16 N    1.608    19 O    1.073    18 C    1.032
    18   6 C    3.986 --    17 C    1.032    36 H    0.982    37 H    0.963
                            38 H    0.961
    19   8 O    2.317 --    17 C    1.073    14 C    1.047
    20   7 N    3.422 --    21 C    1.150     7 C    1.109    39 H    0.884
                            22 O    0.128
    21   6 C    3.894 --    22 O    1.650    20 N    1.150    23 C    0.979
    22   8 O    1.929 --    21 C    1.650    20 N    0.128
    23   6 C    3.862 --    24 C    1.002    21 C    0.979    25 O    0.897
                             5 C    0.830
    24   6 C    3.985 --    23 C    1.002    41 H    0.980    40 H    0.979
                            42 H    0.975
    25   8 O    1.969 --     5 C    0.907    23 C    0.897
    26   1 H    1.005 --     1 C    0.979
    27   1 H    1.009 --     1 C    0.986
    28   1 H    1.005 --     1 C    0.980
    29   1 H    1.010 --     9 C    0.981
    30   1 H    1.009 --     9 C    0.983
    31   1 H    1.001 --     9 C    0.986
    32   1 H    0.996 --    10 C    0.981
    33   1 H    0.998 --    10 C    0.984
    34   1 H    1.000 --    10 C    0.983
    35   1 H    0.931 --    11 N    0.890
    36   1 H    0.998 --    18 C    0.982
    37   1 H    0.996 --    18 C    0.963
    38   1 H    0.996 --    18 C    0.961
    39   1 H    0.935 --    20 N    0.884
    40   1 H    1.009 --    24 C    0.979
    41   1 H    1.000 --    24 C    0.980
    42   1 H    1.002 --    24 C    0.975
 ---------------------------------------------------------------------------

           -------------------------------------------------
          | TOTAL ENERGY              -83.011300726384 Eh   |
          | GRADIENT NORM               0.000737492415 Eh/α |
          | HOMO-LUMO GAP               3.607333751157 eV   |
           -------------------------------------------------

 * finished run on 2023/06/21 at 17:56:54.610
