   * xtb version 6.5.1 (579679a) compiled by 'ehlert@majestix' on 2022-07-11
          program call               : /lustre/hpc/kemi/ree/PhD/git/ReactivityQM/dep/xtb-6.5.1/bin/xtb --gfn 1 /lustre/hpc/kemi/ree/PhD/git/ReactivityQM/calculations/RaltegravirCLI/reac01/conf03/RaltegravirCLI_reac01_conf03_gfn1.xyz --opt --vfukui --chrg 0 --uhf 0 --alpb DMSO

   ID    Z sym.   atoms
    1    6 C      1, 2, 5, 6
    2    7 N      3, 4
    3    8 O      7, 9
    4   17 Cl     8
    5    1 H      10-12

      * Solvation model:               ALPB
        Solvent                        DMSO
        Solvent mass                       7.8130E+01 g/mol
          :  Hamiltonian                  GFN1-xTB          :
 * total energy  :   -30.0919107 Eh     change       -0.1307399E-11 Eh
 * total energy  :   -30.0947860 Eh     change       -0.2875253E-02 Eh
 * total energy  :   -30.0960151 Eh     change       -0.1229065E-02 Eh
 * total energy  :   -30.0961952 Eh     change       -0.1800977E-03 Eh
 * total energy  :   -30.0962640 Eh     change       -0.6885302E-04 Eh
 * total energy  :   -30.0962818 Eh     change       -0.1784053E-04 Eh
 * total energy  :   -30.0962902 Eh     change       -0.8383187E-05 Eh
 * total energy  :   -30.0962997 Eh     change       -0.9496498E-05 Eh
 * total energy  :   -30.0963107 Eh     change       -0.1092530E-04 Eh
 * total energy  :   -30.0963426 Eh     change       -0.3193823E-04 Eh
 * total energy  :   -30.0964807 Eh     change       -0.1261740E-04 Eh
 * total energy  :   -30.0964975 Eh     change       -0.1679407E-04 Eh
 * total energy  :   -30.0965139 Eh     change       -0.1639078E-04 Eh
 * total energy  :   -30.0965356 Eh     change       -0.2170820E-04 Eh
 * total energy  :   -30.0965430 Eh     change       -0.7384402E-05 Eh
 * total energy  :   -30.0965543 Eh     change       -0.1123980E-04 Eh
 * total energy  :   -30.0965585 Eh     change       -0.4270772E-05 Eh
 * total energy  :   -30.0965636 Eh     change       -0.5097583E-05 Eh
 * total energy  :   -30.0965642 Eh     change       -0.6116435E-06 Eh
   *** GEOMETRY OPTIMIZATION CONVERGED AFTER 23 ITERATIONS ***

 final structure:
================
12
 xtb: 6.5.1 (579679a)
C           -2.23383946892321        0.24528057138952       -0.08781978177037
C           -0.85366339137264       -0.27876147713957       -0.04305428431651
N           -0.47514493731144       -1.52551128021980       -0.04451284515285
N            0.87440956841990       -1.52569556109664        0.01462146497136
C            1.25176460978986       -0.27797125981831        0.04874322798931
C            2.62913814028569        0.21630056404230        0.11140388426523
O            3.59002731106238       -0.49591483548597        0.15662323007554
Cl           2.75622100454155        1.93768105560462        0.11651653032196
O            0.19042785517088        0.55443017114596        0.01417129759581
H           -2.32944101075647        0.97148293489613       -0.89410137420750
H           -2.93283024965197       -0.57290399257842       -0.24169141213422
H           -2.46707043125446        0.75158110926019        0.84910106236218

          :  Hamiltonian                  GFN1-xTB          :
         :: total energy             -30.096564235127 Eh    ::
         :: gradient norm              0.000286497671 Eh/a0 ::
         :: HOMO-LUMO gap              3.242703326405 eV    ::
         :: SCC energy               -30.331662451118 Eh    ::
         :: -> Gsolv                  -0.018883672787 Eh    ::
         :: repulsion energy           0.240202724411 Eh    ::

    * Orbital Energies and Occupations

         #    Occupation            Energy/Eh            Energy/eV
      -------------------------------------------------------------
         1        2.0000           -0.9451258             -25.7182
       ...           ...                  ...                  ...
        12        2.0000           -0.6195329             -16.8583
        13        2.0000           -0.5993261             -16.3085
        14        2.0000           -0.5906382             -16.0721
        15        2.0000           -0.5528868             -15.0448
        16        2.0000           -0.5521600             -15.0250
        17        2.0000           -0.5405632             -14.7095
        18        2.0000           -0.5193830             -14.1331
        19        2.0000           -0.4975832             -13.5399
        20        2.0000           -0.4943583             -13.4522
        21        2.0000           -0.4885116             -13.2931
        22        2.0000           -0.4833051             -13.1514
        23        2.0000           -0.4678128             -12.7298
        24        2.0000           -0.4637352             -12.6189 (HOMO)
        25                         -0.3445681              -9.3762 (LUMO)
        26                         -0.2689161              -7.3176
        27                         -0.2308678              -6.2822
        28                         -0.2088063              -5.6819
        29                         -0.1468096              -3.9949
        30                         -0.0787511              -2.1429
        31                         -0.0781544              -2.1267
        32                         -0.0717134              -1.9514
        33                         -0.0715924              -1.9481
        34                         -0.0683461              -1.8598
        35                         -0.0367207              -0.9992
       ...                                ...                  ...
        47                          0.7400880              20.1388
      -------------------------------------------------------------
                  HL-Gap            0.1191672 Eh            3.2427 eV

Wiberg/Mayer (AO) data.
largest (>0.10) Wiberg bond orders for each atom

     #   Z sym  total        # sym  WBO       # sym  WBO       # sym  WBO
 ---------------------------------------------------------------------------
     1   6 C    3.983 --     2 C    1.035    11 H    0.981    10 H    0.963
                            12 H    0.957
     2   6 C    3.865 --     3 N    1.570     9 O    1.094     1 C    1.035
     3   7 N    2.986 --     2 C    1.570     4 N    1.236
     4   7 N    3.010 --     5 C    1.577     3 N    1.236
     5   6 C    3.880 --     4 N    1.577     9 O    1.050     6 C    1.039
     6   6 C    3.890 --     7 O    1.760     5 C    1.039     8 Cl   1.021
     7   8 O    2.030 --     6 C    1.760     8 Cl   0.153
     8  17 Cl   1.231 --     6 C    1.021     7 O    0.153
     9   8 O    2.327 --     2 C    1.094     5 C    1.050
    10   1 H    0.995 --     1 C    0.963
    11   1 H    0.997 --     1 C    0.981
    12   1 H    0.994 --     1 C    0.957
 ---------------------------------------------------------------------------

           -------------------------------------------------
          | TOTAL ENERGY              -30.096564235127 Eh   |
          | GRADIENT NORM               0.000286497671 Eh/α |
          | HOMO-LUMO GAP               3.242703326405 eV   |
           -------------------------------------------------

 * finished run on 2023/06/20 at 14:51:34.930
