   * xtb version 6.5.1 (579679a) compiled by 'ehlert@majestix' on 2022-07-11
          program call               : /lustre/hpc/kemi/ree/PhD/git/ReactivityQM/dep/xtb-6.5.1/bin/xtb --gfn 1 /lustre/hpc/kemi/ree/PhD/git/ReactivityQM/calculations/R02deprot/reac01prodN08/conf12/R02deprot_reac01prodN08_conf12_gfn1.xyz --opt --vfukui --chrg 0 --uhf 0 --alpb DMSO

   ID    Z sym.   atoms
    1    6 C      1, 3, 5, 7-10, 12, 14, 17-19, 22, 24
    2    8 O      2, 4, 13, 20, 23, 25
    3    7 N      6, 11, 15, 16, 21
    4    1 H      26-42

      * Solvation model:               ALPB
        Solvent                        DMSO
        Solvent mass                       7.8130E+01 g/mol
          :  Hamiltonian                  GFN1-xTB          :
 * total energy  :   -82.9456455 Eh     change       -0.1279517E-08 Eh
 * total energy  :   -82.9640034 Eh     change       -0.1835793E-01 Eh
 * total energy  :   -82.9709998 Eh     change       -0.6996427E-02 Eh
 * total energy  :   -82.9724904 Eh     change       -0.1490559E-02 Eh
 * total energy  :   -82.9734742 Eh     change       -0.9837790E-03 Eh
 * total energy  :   -82.9737926 Eh     change       -0.3184662E-03 Eh
 * total energy  :   -82.9739925 Eh     change       -0.1998761E-03 Eh
 * total energy  :   -82.9741028 Eh     change       -0.1102577E-03 Eh
 * total energy  :   -82.9742043 Eh     change       -0.1015279E-03 Eh
 * total energy  :   -82.9743343 Eh     change       -0.1300186E-03 Eh
 * total energy  :   -82.9763340 Eh     change       -0.4243452E-04 Eh
 * total energy  :   -82.9763622 Eh     change       -0.2813399E-04 Eh
 * total energy  :   -82.9763902 Eh     change       -0.2804916E-04 Eh
 * total energy  :   -82.9764090 Eh     change       -0.1881961E-04 Eh
 * total energy  :   -82.9764207 Eh     change       -0.1165431E-04 Eh
 * total energy  :   -82.9764307 Eh     change       -0.9999680E-05 Eh
 * total energy  :   -82.9764364 Eh     change       -0.5735360E-05 Eh
 * total energy  :   -82.9764421 Eh     change       -0.5685625E-05 Eh
 * total energy  :   -82.9764447 Eh     change       -0.2570912E-05 Eh
   *** GEOMETRY OPTIMIZATION CONVERGED AFTER 48 ITERATIONS ***

 final structure:
================
42
 xtb: 6.5.1 (579679a)
C           -3.58689626152359        2.42658696426988       -3.14639148966839
O           -3.68956086396499        1.29253276206959       -2.28832936537825
C           -2.57247395773256        0.94106667491827       -1.63523219829788
O           -1.52715618219073        1.55161700569682       -1.76691036328678
C           -2.73504889721042       -0.23544758193697       -0.75517303579184
N           -1.59012761259474       -0.58333941947882       -0.08360632572516
C           -1.63792638196566       -1.61732039664048        0.72456383991194
C           -0.34758641754839       -1.96686402889850        1.45723965856849
C           -0.55043395841400       -1.80099548345621        2.96782201296234
C            0.08043205976836       -3.39732350193097        1.11276145976773
N            0.65539200496867       -1.01127938383304        0.97820670110739
C            1.91909184121344       -0.94495834581990        1.36996601048472
O            2.49559436288661       -1.65324004006287        2.17415476736516
C            2.62971474204181        0.18599080377597        0.65997952384157
N            2.13830227991470        0.97657747392439       -0.24683610550529
N            3.14845184472364        1.80759493673586       -0.56780398452609
C            2.94340351765552        2.84278507107878       -1.55734890225898
C            4.21552530771762        1.51209926548099        0.14285628498872
C            5.54413939565547        2.14726325327795        0.13768040499367
O            3.91437895061267        0.49342722094208        0.92089123215913
N           -2.68138032850270       -2.39701906783166        0.98867125522613
C           -3.85392601071613       -2.12100171135630        0.36472534106555
O           -4.90409769585944       -2.76991007842987        0.52301313654156
C           -3.86988114682084       -0.97476990922927       -0.55607182855836
O           -5.05990037282146       -0.74526177285298       -1.14892550824385
H           -4.55929244201022        2.55621612579018       -3.61866371807469
H           -3.32767280504169        3.31753273874488       -2.56805024182021
H           -2.81846324830590        2.25988073900265       -3.90590600875541
H            0.34785241584495       -2.09212820038506        3.50993128257556
H           -0.78592312060574       -0.76310257255650        3.20031376625920
H           -1.38110075443577       -2.43319467854515        3.28095135028435
H            0.96645570203877       -3.67974135447043        1.67904365796088
H           -0.73693047916612       -4.07471534824363        1.35941624973721
H            0.29839027108987       -3.47605652997041        0.04829522327163
H            0.28308044932217       -0.34422487472112        0.29726115792352
H            2.28543087540900        2.45075794756142       -2.33055799881497
H            3.90715280402159        3.11991527016651       -1.97457470629740
H            2.48267656371690        3.70508989092811       -1.07566581312394
H            5.97609907553747        2.10357919344233       -0.86247821572540
H            5.45690481984764        3.19709416926999        0.41943032910845
H            6.19364789414897        1.63173822784583        0.84196186934117
H           -5.66634024072989       -1.43745245425721       -0.80518670557233

          :  Hamiltonian                  GFN1-xTB          :
         :: total energy             -82.976444684995 Eh    ::
         :: gradient norm              0.000628202008 Eh/a0 ::
         :: HOMO-LUMO gap              0.890924329373 eV    ::
         :: SCC energy               -83.757667692912 Eh    ::
         :: -> Gsolv                  -0.092400121841 Eh    ::
         :: repulsion energy           0.806382484763 Eh    ::

    * Orbital Energies and Occupations

         #    Occupation            Energy/Eh            Energy/eV
      -------------------------------------------------------------
         1        2.0000           -0.9302833             -25.3143
       ...           ...                  ...                  ...
        55        2.0000           -0.4983792             -13.5616
        56        2.0000           -0.4959845             -13.4964
        57        2.0000           -0.4882603             -13.2862
        58        2.0000           -0.4844803             -13.1834
        59        2.0000           -0.4831770             -13.1479
        60        2.0000           -0.4697644             -12.7829
        61        2.0000           -0.4580150             -12.4632
        62        2.0000           -0.4553212             -12.3899
        63        2.0000           -0.4461978             -12.1417
        64        2.0000           -0.4272444             -11.6259
        65        2.0000           -0.4135396             -11.2530
        66        2.0000           -0.3827879             -10.4162
        67        2.0000           -0.3798285             -10.3357 (HOMO)
        68                         -0.3470877              -9.4447 (LUMO)
        69                         -0.3379595              -9.1963
        70                         -0.2839791              -7.7275
        71                         -0.2376675              -6.4673
        72                         -0.2268127              -6.1719
        73                         -0.1974096              -5.3718
        74                         -0.1824810              -4.9656
        75                         -0.1700771              -4.6280
        76                         -0.1310899              -3.5671
        77                         -0.1184465              -3.2231
        78                         -0.1174380              -3.1957
       ...                                ...                  ...
       134                          0.7343719              19.9833
      -------------------------------------------------------------
                  HL-Gap            0.0327409 Eh            0.8909 eV

Wiberg/Mayer (AO) data.
largest (>0.10) Wiberg bond orders for each atom

     #   Z sym  total        # sym  WBO       # sym  WBO       # sym  WBO
 ---------------------------------------------------------------------------
     1   6 C    3.885 --    26 H    0.986    27 H    0.980    28 H    0.980
                             2 O    0.909
     2   8 O    2.188 --     3 C    1.091     1 C    0.909     4 O    0.124
     3   6 C    3.839 --     4 O    1.625     2 O    1.091     5 C    1.029
     4   8 O    1.889 --     3 C    1.625     2 O    0.124
     5   6 C    3.960 --    24 C    1.485     6 N    1.185     3 C    1.029
     6   7 N    3.040 --     7 C    1.466     5 C    1.185
     7   6 C    3.959 --     6 N    1.466    21 N    1.369     8 C    0.969
     8   6 C    3.915 --    10 C    0.984     9 C    0.983     7 C    0.969
                            11 N    0.908
     9   6 C    3.992 --    30 H    0.986    29 H    0.984    31 H    0.983
                             8 C    0.983
    10   6 C    3.992 --    34 H    0.986     8 C    0.984    32 H    0.984
                            33 H    0.983
    11   7 N    3.418 --    12 C    1.336     8 C    0.908    35 H    0.855
                            13 O    0.209
    12   6 C    3.931 --    13 O    1.579    11 N    1.336    14 C    0.944
    13   8 O    1.911 --    12 C    1.579    11 N    0.209
    14   6 C    3.830 --    15 N    1.610    20 O    1.062    12 C    0.944
    15   7 N    2.986 --    14 C    1.610    16 N    1.145
    16   7 N    3.632 --    18 C    1.429    15 N    1.145    17 C    0.912
    17   6 C    3.889 --    37 H    0.980    36 H    0.973    38 H    0.964
                            16 N    0.912
    18   6 C    3.847 --    16 N    1.429    20 O    1.155    19 C    1.039
    19   6 C    3.963 --    18 C    1.039    41 H    0.973    39 H    0.948
                            40 H    0.948
    20   8 O    2.384 --    18 C    1.155    14 C    1.062
    21   7 N    2.983 --     7 C    1.369    22 C    1.245    23 O    0.123
    22   6 C    3.929 --    23 O    1.482    21 N    1.245    24 C    1.065
    23   8 O    1.819 --    22 C    1.482    21 N    0.123
    24   6 C    3.907 --     5 C    1.485    25 O    1.078    22 C    1.065
    25   8 O    2.054 --    24 C    1.078    42 H    0.812
    26   1 H    1.013 --     1 C    0.986
    27   1 H    1.010 --     1 C    0.980
    28   1 H    1.011 --     1 C    0.980
    29   1 H    1.008 --     9 C    0.984
    30   1 H    1.004 --     9 C    0.986
    31   1 H    1.011 --     9 C    0.983
    32   1 H    1.008 --    10 C    0.984
    33   1 H    1.013 --    10 C    0.983
    34   1 H    1.004 --    10 C    0.986
    35   1 H    0.973 --    11 N    0.855
    36   1 H    0.992 --    17 C    0.973
    37   1 H    0.991 --    17 C    0.980
    38   1 H    0.990 --    17 C    0.964
    39   1 H    0.987 --    19 C    0.948
    40   1 H    0.987 --    19 C    0.948
    41   1 H    0.987 --    19 C    0.973
    42   1 H    0.873 --    25 O    0.812
 ---------------------------------------------------------------------------

           -------------------------------------------------
          | TOTAL ENERGY              -82.976444684995 Eh   |
          | GRADIENT NORM               0.000628202008 Eh/α |
          | HOMO-LUMO GAP               0.890924329373 eV   |
           -------------------------------------------------

 * finished run on 2023/06/20 at 18:15:27.318
