   * xtb version 6.5.1 (579679a) compiled by 'ehlert@majestix' on 2022-07-11
          program call               : /lustre/hpc/kemi/ree/PhD/git/ReactivityQM/dep/xtb-6.5.1/bin/xtb --gfn 1 /lustre/hpc/kemi/ree/PhD/git/ReactivityQM/calculations/R02deprot/reac01prodE07/conf18/R02deprot_reac01prodE07_conf18_gfn1.xyz --opt --vfukui --chrg -2 --uhf 0 --alpb DMSO

   ID    Z sym.   atoms
    1    6 C      1, 3, 5, 7-10, 12, 14, 15, 18, 19, 22, 24
    2    8 O      2, 4, 13, 20, 23, 25
    3    7 N      6, 11, 16, 17, 21
    4    1 H      26-42

      * Solvation model:               ALPB
        Solvent                        DMSO
        Solvent mass                       7.8130E+01 g/mol
          :  Hamiltonian                  GFN1-xTB          :
 * total energy  :   -83.5721231 Eh     change       -0.3981029E-08 Eh
 * total energy  :   -83.5846529 Eh     change       -0.1252982E-01 Eh
 * total energy  :   -83.5901170 Eh     change       -0.5464120E-02 Eh
 * total energy  :   -83.5914791 Eh     change       -0.1362044E-02 Eh
 * total energy  :   -83.5926100 Eh     change       -0.1130919E-02 Eh
 * total energy  :   -83.5931537 Eh     change       -0.5437101E-03 Eh
 * total energy  :   -83.5936348 Eh     change       -0.4810657E-03 Eh
 * total energy  :   -83.5939222 Eh     change       -0.2873837E-03 Eh
 * total energy  :   -83.5941439 Eh     change       -0.2217470E-03 Eh
 * total energy  :   -83.5943298 Eh     change       -0.1858454E-03 Eh
 * total energy  :   -83.6005963 Eh     change       -0.2017040E-04 Eh
 * total energy  :   -83.6006103 Eh     change       -0.1399170E-04 Eh
 * total energy  :   -83.6006213 Eh     change       -0.1105244E-04 Eh
 * total energy  :   -83.6006300 Eh     change       -0.8635126E-05 Eh
 * total energy  :   -83.6006353 Eh     change       -0.5391853E-05 Eh
 * total energy  :   -83.6006401 Eh     change       -0.4751424E-05 Eh
 * total energy  :   -83.6006451 Eh     change       -0.5043095E-05 Eh
 * total energy  :   -83.6006503 Eh     change       -0.5171885E-05 Eh
 * total energy  :   -83.6006525 Eh     change       -0.2140957E-05 Eh
   *** GEOMETRY OPTIMIZATION CONVERGED AFTER 83 ITERATIONS ***

 final structure:
================
42
 xtb: 6.5.1 (579679a)
C            5.29485546487913        1.47491748587072        2.06593411577223
O            4.24797726418631        0.99717814471565        1.23002919986534
C            4.46716443120227        1.08321355726596       -0.09681048450735
O            5.51304994009812        1.55428570673853       -0.53706646818611
C            3.37216826018673        0.57280494353834       -0.92287821252463
N            2.27300737668708        0.07738160174274       -0.27952854113604
C            1.29762456729135       -0.38994741164758       -1.03647750557503
C            0.08041531890300       -0.97805481646032       -0.32748940639502
C            0.04671357294480       -0.53821209080739        1.14417215291217
C            0.18074153094007       -2.50824323317181       -0.43030416451398
N           -1.12418331551098       -0.52849643142042       -1.06479141324824
C           -2.37568503356116       -0.71021459571065       -0.37779196327914
O           -3.04126280279058       -1.92940405099194       -0.66232885701208
C           -3.51936287471125       -2.62487140501388        0.47145326750662
C           -2.99868636149957        0.38000317388727        0.15874159093693
N           -2.42417725163573        1.60091690907399        0.33407890236201
N           -3.37353154870486        2.37508814529326        0.96993209628864
C           -4.41948700497724        1.65379654947549        1.15860342549562
C           -5.69109868710026        2.05689358255657        1.81784125075162
O           -4.28763777670400        0.36764941460190        0.67940822093198
N            1.27811539236936       -0.43675685153965       -2.36684229047441
C            2.32820772057887        0.04135627329644       -3.08719876688359
O            2.34077859412750        0.01314073368907       -4.33499466081738
C            3.44259979834596        0.58544113984153       -2.30243993538563
O            4.50813779704538        1.07450256483467       -2.99096201533960
H            6.21758130097958        0.91841047320639        1.87994355908933
H            4.97371142515680        1.32735384806488        3.09562114926355
H            5.47961209544311        2.53685508938048        1.88090460152236
H           -0.10505669525357        0.54087798585222        1.20857428632326
H            0.98902559093518       -0.79117875367021        1.62916323089502
H           -0.76670369925797       -1.03864046222709        1.66993680935818
H            0.21379186849704       -2.80088393205672       -1.48110674014730
H           -0.67974541670945       -2.98314497467893        0.03893984320617
H            1.08567764009163       -2.86134250192971        0.06434454223465
H           -1.01509249590016        0.47678481755894       -1.23107840093191
H           -4.37872830366124       -2.11275967327430        0.92552211578506
H           -3.83757637037754       -3.61691054860699        0.14063925658326
H           -2.73986464497381       -2.73820400264456        1.23853136539051
H           -6.54345596953620        1.86384054455510        1.16594697631016
H           -5.84478699846651        1.49911206196474        2.74271359423860
H           -5.65493495548085        3.11894602823609        2.05025590331710
H            5.19010225592132        1.39651496061379       -2.36800762997492

          :  Hamiltonian                  GFN1-xTB          :
         :: total energy             -83.600652455876 Eh    ::
         :: gradient norm              0.000879958936 Eh/a0 ::
         :: HOMO-LUMO gap              0.182752794506 eV    ::
         :: SCC energy               -84.323601126128 Eh    ::
         :: -> Gsolv                  -0.273323222134 Eh    ::
         :: repulsion energy           0.748817048677 Eh    ::

    * Orbital Energies and Occupations

         #    Occupation            Energy/Eh            Energy/eV
      -------------------------------------------------------------
         1        2.0000           -0.8078308             -21.9822
       ...           ...                  ...                  ...
        56        2.0000           -0.4376386             -11.9088
        57        2.0000           -0.4213265             -11.4649
        58        2.0000           -0.4146638             -11.2836
        59        2.0000           -0.4122245             -11.2172
        60        2.0000           -0.4016739             -10.9301
        61        2.0000           -0.3915539             -10.6547
        62        2.0000           -0.3845190             -10.4633
        63        2.0000           -0.3801790             -10.3452
        64        2.0000           -0.3657039              -9.9513
        65        2.0000           -0.3614869              -9.8366
        66        2.0000           -0.3535191              -9.6197
        67        2.0000           -0.3523442              -9.5878
        68        1.9433           -0.2755794              -7.4989 (HOMO)
        69        0.0567           -0.2688634              -7.3161 (LUMO)
        70                         -0.2089621              -5.6861
        71                         -0.1803667              -4.9080
        72                         -0.1769294              -4.8145
        73                         -0.1345517              -3.6613
        74                         -0.1235755              -3.3627
        75                         -0.1130938              -3.0774
        76                         -0.1039888              -2.8297
        77                         -0.0922866              -2.5112
        78                         -0.0883017              -2.4028
        79                         -0.0826857              -2.2500
       ...                                ...                  ...
       134                          0.7270777              19.7848
      -------------------------------------------------------------
                  HL-Gap            0.0067160 Eh            0.1828 eV

Wiberg/Mayer (AO) data.
largest (>0.10) Wiberg bond orders for each atom

     #   Z sym  total        # sym  WBO       # sym  WBO       # sym  WBO
 ---------------------------------------------------------------------------
     1   6 C    3.891 --    27 H    0.987    28 H    0.980    26 H    0.980
                             2 O    0.917
     2   8 O    2.173 --     3 C    1.076     1 C    0.917     4 O    0.112
     3   6 C    3.803 --     4 O    1.564     2 O    1.076     5 C    1.066
     4   8 O    1.887 --     3 C    1.564     2 O    0.112
     5   6 C    3.955 --    24 C    1.436     6 N    1.208     3 C    1.066
     6   7 N    2.982 --     7 C    1.445     5 C    1.208
     7   6 C    3.951 --     6 N    1.445    21 N    1.370     8 C    0.974
     8   6 C    3.966 --     9 C    0.992    10 C    0.984     7 C    0.974
                            11 N    0.949
     9   6 C    3.996 --     8 C    0.992    30 H    0.985    31 H    0.984
                            29 H    0.984
    10   6 C    3.996 --    34 H    0.988    32 H    0.985     8 C    0.984
                            33 H    0.982
    11   7 N    3.016 --    12 C    0.982     8 C    0.949    35 H    0.944
    12   6 C    3.693 --    15 C    1.490    11 N    0.982    13 O    0.911
                            16 N    0.131
    13   8 O    2.002 --    14 C    0.956    12 C    0.911
    14   6 C    3.931 --    37 H    0.985    36 H    0.980    38 H    0.978
                            13 O    0.956
    15   6 C    3.864 --    12 C    1.490    16 N    1.265    20 O    0.956
    16   7 N    2.791 --    15 C    1.265    17 N    1.153    12 C    0.131
                            18 C    0.118
    17   7 N    2.988 --    18 C    1.674    16 N    1.153
    18   6 C    3.873 --    17 N    1.674    19 C    1.018    20 O    0.989
                            16 N    0.118
    19   6 C    3.996 --    18 C    1.018    41 H    0.987    39 H    0.977
                            40 H    0.974
    20   8 O    2.174 --    18 C    0.989    15 C    0.956
    21   7 N    2.958 --     7 C    1.370    22 C    1.239    23 O    0.124
    22   6 C    3.929 --    23 O    1.473    21 N    1.239    24 C    1.085
    23   8 O    1.758 --    22 C    1.473    21 N    0.124
    24   6 C    3.875 --     5 C    1.436    22 C    1.085    25 O    1.058
    25   8 O    2.031 --    24 C    1.058    42 H    0.811
    26   1 H    1.012 --     1 C    0.980
    27   1 H    1.014 --     1 C    0.987
    28   1 H    1.012 --     1 C    0.980
    29   1 H    1.025 --     9 C    0.984
    30   1 H    1.023 --     9 C    0.985
    31   1 H    1.020 --     9 C    0.984
    32   1 H    1.020 --    10 C    0.985
    33   1 H    1.012 --    10 C    0.982
    34   1 H    1.008 --    10 C    0.988
    35   1 H    1.000 --    11 N    0.944
    36   1 H    1.029 --    14 C    0.980
    37   1 H    1.022 --    14 C    0.985
    38   1 H    1.027 --    14 C    0.978
    39   1 H    1.007 --    19 C    0.977
    40   1 H    1.007 --    19 C    0.974
    41   1 H    1.008 --    19 C    0.987
    42   1 H    0.882 --    25 O    0.811
 ---------------------------------------------------------------------------

           -------------------------------------------------
          | TOTAL ENERGY              -83.600652455876 Eh   |
          | GRADIENT NORM               0.000879958936 Eh/α |
          | HOMO-LUMO GAP               0.182752794506 eV   |
           -------------------------------------------------

 * finished run on 2023/06/20 at 17:49:36.608
