   * xtb version 6.5.1 (579679a) compiled by 'ehlert@majestix' on 2022-07-11
          program call               : /lustre/hpc/kemi/ree/PhD/git/ReactivityQM/dep/xtb-6.5.1/bin/xtb --gfn 1 /lustre/hpc/kemi/ree/PhD/git/ReactivityQM/calculations/RaltegravirCLI/reac02prodE05/conf02/RaltegravirCLI_reac02prodE05_conf02_gfn1.xyz --opt --vfukui --chrg -1 --uhf 0 --alpb DMSO

   ID    Z sym.   atoms
    1    6 C      1, 3, 5-9, 11-13, 15-18, 21, 22, 24
    2    8 O      2, 23, 25
    3    7 N      4, 14, 19, 20
    4    9 F      10
    5    1 H      26-47

      * Solvation model:               ALPB
        Solvent                        DMSO
        Solvent mass                       7.8130E+01 g/mol
          :  Hamiltonian                  GFN1-xTB          :
 * total energy  :   -80.1480283 Eh     change       -0.9391954E-10 Eh
 * total energy  :   -80.1618707 Eh     change       -0.1384237E-01 Eh
 * total energy  :   -80.1671106 Eh     change       -0.5239896E-02 Eh
 * total energy  :   -80.1687378 Eh     change       -0.1627277E-02 Eh
 * total energy  :   -80.1711624 Eh     change       -0.2424529E-02 Eh
 * total energy  :   -80.1726401 Eh     change       -0.1477704E-02 Eh
 * total energy  :   -80.1740433 Eh     change       -0.1403202E-02 Eh
 * total energy  :   -80.1747284 Eh     change       -0.6851447E-03 Eh
 * total energy  :   -80.1752400 Eh     change       -0.5116126E-03 Eh
 * total energy  :   -80.1756074 Eh     change       -0.3674147E-03 Eh
 * total energy  :   -80.1813367 Eh     change       -0.1227334E-04 Eh
 * total energy  :   -80.1813532 Eh     change       -0.1643764E-04 Eh
 * total energy  :   -80.1813695 Eh     change       -0.1626931E-04 Eh
 * total energy  :   -80.1813828 Eh     change       -0.1332885E-04 Eh
 * total energy  :   -80.1813919 Eh     change       -0.9117160E-05 Eh
 * total energy  :   -80.1814026 Eh     change       -0.1070344E-04 Eh
 * total energy  :   -80.1814107 Eh     change       -0.8110942E-05 Eh
 * total energy  :   -80.1814163 Eh     change       -0.5606997E-05 Eh
 * total energy  :   -80.1814208 Eh     change       -0.4509577E-05 Eh
   *** GEOMETRY OPTIMIZATION CONVERGED AFTER 55 ITERATIONS ***

 final structure:
================
47
 xtb: 6.5.1 (579679a)
C            0.22001360956559        0.78265460742803       -2.79250363279280
O            0.59666725427061       -0.44719169698165       -2.19639220685055
C            0.71846729531503       -0.44944103431589       -0.79483918218855
N            2.06068737762478       -0.70830493260881       -0.35886495397572
C            2.87773399527556        0.51398089082306       -0.24066161077789
C            4.31229390387319        0.15449793506356        0.05623451665211
C            5.10161613066369        0.97523863418477        0.85941412851148
C            6.42404435312728        0.64712711515448        1.12798244186781
C            6.93482694753116       -0.51586522230514        0.58217521077966
F            8.21721848523879       -0.84330808618905        0.84006063419481
C            6.18276429303046       -1.35699844923264       -0.21767935661698
C            4.86530252565570       -1.00928789532456       -0.47749087409975
C           -0.36280812088174       -0.32073336667790        0.03214698663584
N           -1.63089120489130       -0.21761670398779       -0.56694420885654
C           -2.71319200130238       -0.16680217836631        0.13309355319276
C           -4.00601560744597       -0.03282544358295       -0.67965951960321
C           -4.43874439985340        1.44080747158126       -0.69970224870542
C           -3.75229092410270       -0.49121609918140       -2.12671660020942
N           -5.08292174323900       -0.84305123757555       -0.10683743913359
N           -2.73128047654518       -0.17254106411745        1.49949589360642
C           -3.94467436628444       -0.15372070234843        2.30574701351805
C           -1.48707076992366       -0.21134262641193        2.23175381825823
O           -1.51509724624718       -0.17177052645875        3.49617431852334
C           -0.34883957406594       -0.28810114256505        1.46183872344465
O            0.88336612629340       -0.29507504630294        2.15239333144589
H            0.90577294882465        1.59567467132469       -2.51726035568567
H            0.25408207032516        0.64208745068106       -3.87591468073748
H           -0.79978595438805        1.07078943999884       -2.50294736430774
H            2.03264848147057       -1.13830462501774        0.56557464295622
H            2.48145016556785        1.18011213514434        0.54085428262136
H            2.83380611452820        1.05149848726374       -1.19489267552349
H            4.68461306545711        1.88276676053031        1.28168927834870
H            7.04604648636160        1.27751219325396        1.74960291072653
H            6.62113919680617       -2.25873794482735       -0.62530830138422
H            4.24961721476633       -1.65215210435718       -1.09890459694615
H           -3.62752871050401        2.05706241982983       -1.08750760134866
H           -5.30925498092926        1.56380359508721       -1.34342568890387
H           -4.69809685448507        1.79304979176518        0.29757552176659
H           -3.03616743525163        0.16861357083868       -2.61560819606604
H           -4.68735136821714       -0.47214809002349       -2.68463537323693
H           -3.35423423033279       -1.50573622512330       -2.13727375237432
H           -5.95661858606435       -0.57710160986477       -0.53732127505803
H           -4.92619270697069       -1.81819932248008       -0.33025509795046
H           -4.64800865041820        0.59492818751590        1.94569258204143
H           -4.43598873225975       -1.12954694406100        2.29308634912204
H           -3.66808732341130        0.08937015164052        3.33477132258095
H            0.65696492644507       -0.23445518882322        3.09524433253404

          :  Hamiltonian                  GFN1-xTB          :
         :: total energy             -80.181420828825 Eh    ::
         :: gradient norm              0.000571569901 Eh/a0 ::
         :: HOMO-LUMO gap              0.871827830240 eV    ::
         :: SCC energy               -81.035517829662 Eh    ::
         :: -> Gsolv                  -0.104478860578 Eh    ::
         :: repulsion energy           0.884283016777 Eh    ::

    * Orbital Energies and Occupations

         #    Occupation            Energy/Eh            Energy/eV
      -------------------------------------------------------------
         1        2.0000           -0.8537997             -23.2331
       ...           ...                  ...                  ...
        56        2.0000           -0.4557519             -12.4016
        57        2.0000           -0.4552038             -12.3867
        58        2.0000           -0.4523024             -12.3078
        59        2.0000           -0.4393062             -11.9541
        60        2.0000           -0.4274197             -11.6307
        61        2.0000           -0.4206184             -11.4456
        62        2.0000           -0.4056874             -11.0393
        63        2.0000           -0.3956750             -10.7669
        64        2.0000           -0.3843332             -10.4582
        65        2.0000           -0.3793624             -10.3230
        66        2.0000           -0.3751414             -10.2081
        67        2.0000           -0.3570451              -9.7157
        68        2.0000           -0.2932125              -7.9787 (HOMO)
        69                         -0.2611734              -7.1069 (LUMO)
        70                         -0.2512638              -6.8372
        71                         -0.2169105              -5.9024
        72                         -0.1822476              -4.9592
        73                         -0.1320190              -3.5924
        74                         -0.1170685              -3.1856
        75                         -0.1130430              -3.0761
        76                         -0.1044872              -2.8432
        77                         -0.0998737              -2.7177
        78                         -0.0984743              -2.6796
        79                         -0.0916068              -2.4927
       ...                                ...                  ...
       144                          0.6992177              19.0267
      -------------------------------------------------------------
                  HL-Gap            0.0320391 Eh            0.8718 eV

Wiberg/Mayer (AO) data.
largest (>0.10) Wiberg bond orders for each atom

     #   Z sym  total        # sym  WBO       # sym  WBO       # sym  WBO
 ---------------------------------------------------------------------------
     1   6 C    3.923 --    27 H    0.985    26 H    0.979    28 H    0.976
                             2 O    0.946
     2   8 O    2.006 --     1 C    0.946     3 C    0.929
     3   6 C    3.801 --    13 C    1.537     4 N    0.986     2 O    0.929
     4   7 N    3.026 --     3 C    0.986     5 C    0.964    29 H    0.937
     5   6 C    3.978 --     6 C    1.008    30 H    0.969     4 N    0.964
                            31 H    0.963
     6   6 C    3.986 --     7 C    1.415    12 C    1.409     5 C    1.008
     7   6 C    3.993 --     8 C    1.441     6 C    1.415    32 H    0.972
                            11 C    0.109
     8   6 C    3.991 --     7 C    1.441     9 C    1.403    33 H    0.971
                            12 C    0.110
     9   6 C    3.854 --     8 C    1.403    11 C    1.400    10 F    0.913
    10   9 F    1.037 --     9 C    0.913
    11   6 C    3.992 --    12 C    1.446     9 C    1.400    34 H    0.971
                             7 C    0.109
    12   6 C    3.993 --    11 C    1.446     6 C    1.409    35 H    0.970
                             8 C    0.110
    13   6 C    3.954 --     3 C    1.537    24 C    1.166    14 N    1.071
    14   7 N    3.015 --    15 C    1.607    13 C    1.071    20 N    0.131
    15   6 C    3.943 --    14 N    1.607    20 N    1.187    16 C    0.968
    16   6 C    3.964 --    18 C    0.992    17 C    0.988    19 N    0.978
                            15 C    0.968
    17   6 C    3.995 --    16 C    0.988    36 H    0.986    37 H    0.985
                            38 H    0.980
    18   6 C    3.997 --    16 C    0.992    40 H    0.987    41 H    0.985
                            39 H    0.981
    19   7 N    2.977 --    16 C    0.978    43 H    0.947    42 H    0.947
    20   7 N    3.399 --    15 C    1.187    21 C    0.954    22 C    0.951
                            14 N    0.131
    21   6 C    3.955 --    45 H    0.982    44 H    0.980    46 H    0.975
                            20 N    0.954
    22   6 C    3.915 --    24 C    1.417    23 O    1.368    20 N    0.951
    23   8 O    1.733 --    22 C    1.368    24 C    0.135
    24   6 C    3.841 --    22 C    1.417    13 C    1.166    25 O    0.948
                            23 O    0.135
    25   8 O    1.948 --    24 C    0.948    47 H    0.849
    26   1 H    1.020 --     1 C    0.979
    27   1 H    1.021 --     1 C    0.985
    28   1 H    1.040 --     1 C    0.976
    29   1 H    0.987 --     4 N    0.937
    30   1 H    1.019 --     5 C    0.969
    31   1 H    1.023 --     5 C    0.963
    32   1 H    1.002 --     7 C    0.972
    33   1 H    1.000 --     8 C    0.971
    34   1 H    1.000 --    11 C    0.971
    35   1 H    1.018 --    12 C    0.970
    36   1 H    1.008 --    17 C    0.986
    37   1 H    1.002 --    17 C    0.985
    38   1 H    1.008 --    17 C    0.980
    39   1 H    1.022 --    18 C    0.981
    40   1 H    1.006 --    18 C    0.987
    41   1 H    1.014 --    18 C    0.985
    42   1 H    0.962 --    19 N    0.947
    43   1 H    0.965 --    19 N    0.947
    44   1 H    1.024 --    21 C    0.980
    45   1 H    1.025 --    21 C    0.982
    46   1 H    1.024 --    21 C    0.975
    47   1 H    0.894 --    25 O    0.849
 ---------------------------------------------------------------------------

           -------------------------------------------------
          | TOTAL ENERGY              -80.181420828825 Eh   |
          | GRADIENT NORM               0.000571569901 Eh/α |
          | HOMO-LUMO GAP               0.871827830240 eV   |
           -------------------------------------------------

 * finished run on 2023/06/20 at 15:02:52.147
