   * xtb version 6.5.1 (579679a) compiled by 'ehlert@majestix' on 2022-07-11
          program call               : /lustre/hpc/kemi/ree/PhD/git/ReactivityQM/dep/xtb-6.5.1/bin/xtb --gfn 1 /lustre/hpc/kemi/ree/PhD/git/ReactivityQM/calculations/R02/reac01prodE06/conf16/R02_reac01prodE06_conf16_gfn1.xyz --opt --vfukui --chrg -1 --uhf 0 --alpb DMSO

   ID    Z sym.   atoms
    1    6 C      1, 3, 5, 6, 8, 11-15, 17, 19, 22, 23
    2    8 O      2, 4, 7, 9, 18, 24
    3    7 N      10, 16, 20, 21, 25
    4    1 H      26-43

      * Solvation model:               ALPB
        Solvent                        DMSO
        Solvent mass                       7.8130E+01 g/mol
          :  Hamiltonian                  GFN1-xTB          :
 * total energy  :   -83.8655365 Eh     change       -0.1418101E-09 Eh
 * total energy  :   -83.8767843 Eh     change       -0.1124781E-01 Eh
 * total energy  :   -83.8811973 Eh     change       -0.4412961E-02 Eh
 * total energy  :   -83.8820577 Eh     change       -0.8604179E-03 Eh
 * total energy  :   -83.8829605 Eh     change       -0.9028138E-03 Eh
 * total energy  :   -83.8834475 Eh     change       -0.4870500E-03 Eh
 * total energy  :   -83.8838611 Eh     change       -0.4135715E-03 Eh
 * total energy  :   -83.8841870 Eh     change       -0.3259086E-03 Eh
 * total energy  :   -83.8843633 Eh     change       -0.1762593E-03 Eh
 * total energy  :   -83.8844528 Eh     change       -0.8953476E-04 Eh
 * total energy  :   -83.8850624 Eh     change       -0.7150273E-05 Eh
 * total energy  :   -83.8850717 Eh     change       -0.9295312E-05 Eh
 * total energy  :   -83.8850793 Eh     change       -0.7568058E-05 Eh
 * total energy  :   -83.8850864 Eh     change       -0.7159753E-05 Eh
 * total energy  :   -83.8850961 Eh     change       -0.9639467E-05 Eh
 * total energy  :   -83.8851078 Eh     change       -0.1172281E-04 Eh
 * total energy  :   -83.8851155 Eh     change       -0.7669549E-05 Eh
 * total energy  :   -83.8851227 Eh     change       -0.7223262E-05 Eh
 * total energy  :   -83.8851272 Eh     change       -0.4466668E-05 Eh
   *** GEOMETRY OPTIMIZATION CONVERGED AFTER 44 ITERATIONS ***

 final structure:
================
43
 xtb: 6.5.1 (579679a)
C           -6.20204631059250       -2.09668980834152        0.90768801951830
O           -5.14415156299176       -1.39052951691392        0.26891667442103
C           -3.98249395235115       -1.32492497586239        0.94200484843917
O           -3.85761687295973       -1.84514333997511        2.03509352085284
C           -2.89806828283679       -0.58545837376282        0.23340810124729
C           -3.13419750501830        0.31703778412693       -0.80205268339380
O           -4.40082295231719        0.55507706574162       -1.34241514698692
C           -2.07937910355442        1.13880974436346       -1.28614948064313
O           -2.22390403649996        2.01701914001555       -2.15854050248418
N           -0.85764440573742        0.97586955852149       -0.64523696457363
C           -0.55283235362658       -0.27798774885248        0.03638925623983
C           -0.01845526960932       -1.29678079671011       -0.99927647684775
C            0.51769888067597        0.01965143988186        1.14663689589225
C           -0.06063673529168        1.03784356807092        2.13203859965232
C            0.87048728837766       -1.26526555533726        1.90342835509590
N            1.76464432090237        0.49953775990281        0.53438018621306
C            2.14858577406022        1.76747574652403        0.31648920229383
O            1.51350583979506        2.78361075837954        0.56189989818364
C            3.50819916823906        1.84873549105120       -0.29042189665861
N            4.16982196527193        2.92420881551223       -0.58908310724236
N            5.36647496065494        2.51985969438539       -1.10871813924421
C            5.35971260980722        1.22483805182453       -1.09439576932742
C            6.42597719451744        0.30805083385421       -1.55388495005318
O            4.21422445650375        0.73505346959171       -0.58929899672225
N           -1.68835137838478       -0.84883005740103        0.71743686979772
H           -5.90585307725057       -3.13034139763286        1.10870575902240
H           -6.46944598541528       -1.61516062983820        1.85287751668080
H           -7.05269740898794       -2.08024753669410        0.22834315222761
H           -4.28017462953457        1.25103938287796       -2.00936509135522
H           -0.07410030779489        1.36749397861289       -1.14927767618283
H            0.09338541700916       -2.27558410253541       -0.53832857167366
H           -0.72975860737715       -1.37898710308389       -1.82039520271549
H            0.94058941633669       -0.97180663306192       -1.39728122906149
H           -0.45727126972402        1.90755177711141        1.60981699606347
H           -0.87658632766824        0.55927547194885        2.67511598911753
H            0.69822672269323        1.36108468201229        2.84268296860116
H           -0.04854664399496       -1.75279873310748        2.23012884910537
H            1.48086069960181       -1.03125971425992        2.77488765115402
H            1.42723993263331       -1.95405555225549        1.27068520198222
H            2.42695637378063       -0.21824529898235        0.28915792812061
H            7.27674012897980        0.88502374753544       -1.90777500221200
H            6.73876619645625       -0.34017256761361       -0.73592782873698
H            6.05293563322067       -0.32387751961184       -2.35958172381329

          :  Hamiltonian                  GFN1-xTB          :
         :: total energy             -83.885127168056 Eh    ::
         :: gradient norm              0.000435790331 Eh/a0 ::
         :: HOMO-LUMO gap              0.642589379329 eV    ::
         :: SCC energy               -84.642528189164 Eh    ::
         :: -> Gsolv                  -0.120361670585 Eh    ::
         :: repulsion energy           0.785123752556 Eh    ::

    * Orbital Energies and Occupations

         #    Occupation            Energy/Eh            Energy/eV
      -------------------------------------------------------------
         1        2.0000           -0.8556774             -23.2842
       ...           ...                  ...                  ...
        56        2.0000           -0.4721438             -12.8477
        57        2.0000           -0.4692684             -12.7694
        58        2.0000           -0.4661266             -12.6839
        59        2.0000           -0.4507323             -12.2651
        60        2.0000           -0.4482685             -12.1980
        61        2.0000           -0.4435339             -12.0692
        62        2.0000           -0.4383554             -11.9283
        63        2.0000           -0.4338291             -11.8051
        64        2.0000           -0.4227752             -11.5043
        65        2.0000           -0.4047504             -11.0138
        66        2.0000           -0.3912640             -10.6468
        67        2.0000           -0.3787350             -10.3059
        68        2.0000           -0.3198801              -8.7044 (HOMO)
        69        0.0000           -0.2962654              -8.0618 (LUMO)
        70                         -0.2657353              -7.2310
        71                         -0.2482896              -6.7563
        72                         -0.1915860              -5.2133
        73                         -0.1849522              -5.0328
        74                         -0.1378723              -3.7517
        75                         -0.1267827              -3.4499
        76                         -0.1181165              -3.2141
        77                         -0.1098453              -2.9890
        78                         -0.1045775              -2.8457
        79                         -0.0934500              -2.5429
       ...                                ...                  ...
       136                          0.7430575              20.2196
      -------------------------------------------------------------
                  HL-Gap            0.0236147 Eh            0.6426 eV

Wiberg/Mayer (AO) data.
largest (>0.10) Wiberg bond orders for each atom

     #   Z sym  total        # sym  WBO       # sym  WBO       # sym  WBO
 ---------------------------------------------------------------------------
     1   6 C    3.892 --    28 H    0.987    27 H    0.980    26 H    0.980
                             2 O    0.916
     2   8 O    2.187 --     3 C    1.085     1 C    0.916     4 O    0.123
     3   6 C    3.820 --     4 O    1.639     2 O    1.085     5 C    1.002
     4   8 O    1.892 --     3 C    1.639     2 O    0.123
     5   6 C    3.971 --    25 N    1.410     6 C    1.342     3 C    1.002
     6   6 C    3.861 --     5 C    1.342     8 C    1.193     7 O    0.976
                            25 N    0.172
     7   8 O    1.947 --     6 C    0.976    29 H    0.849
     8   6 C    3.917 --     9 O    1.468     6 C    1.193    10 N    1.101
     9   8 O    1.798 --     8 C    1.468    10 N    0.104
    10   7 N    3.220 --     8 C    1.101    11 C    0.941    30 H    0.918
                             9 O    0.104
    11   6 C    3.944 --    25 N    1.009    12 C    0.971    10 N    0.941
                            13 C    0.932
    12   6 C    3.995 --    33 H    0.985    32 H    0.985    31 H    0.983
                            11 C    0.971
    13   6 C    3.918 --    14 C    1.001    15 C    1.000    11 C    0.932
                            16 N    0.913
    14   6 C    3.994 --    13 C    1.001    36 H    0.987    35 H    0.983
                            34 H    0.979
    15   6 C    3.994 --    13 C    1.000    38 H    0.986    39 H    0.982
                            37 H    0.979
    16   7 N    3.373 --    17 C    1.281    13 C    0.913    40 H    0.902
                            18 O    0.184
    17   6 C    3.921 --    18 O    1.562    16 N    1.281    19 C    0.985
    18   8 O    1.882 --    17 C    1.562    16 N    0.184
    19   6 C    3.864 --    20 N    1.624    24 O    1.045    17 C    0.985
    20   7 N    2.988 --    19 C    1.624    21 N    1.190
    21   7 N    2.980 --    22 C    1.620    20 N    1.190
    22   6 C    3.870 --    21 N    1.620    24 O    1.069    23 C    1.030
    23   6 C    3.988 --    22 C    1.030    41 H    0.983    42 H    0.965
                            43 H    0.964
    24   8 O    2.312 --    22 C    1.069    19 C    1.045
    25   7 N    2.919 --     5 C    1.410    11 C    1.009     6 C    0.172
    26   1 H    1.012 --     1 C    0.980
    27   1 H    1.012 --     1 C    0.980
    28   1 H    1.014 --     1 C    0.987
    29   1 H    0.890 --     7 O    0.849
    30   1 H    0.964 --    10 N    0.918
    31   1 H    1.012 --    12 C    0.983
    32   1 H    1.007 --    12 C    0.985
    33   1 H    1.005 --    12 C    0.985
    34   1 H    1.028 --    14 C    0.979
    35   1 H    1.018 --    14 C    0.983
    36   1 H    1.006 --    14 C    0.987
    37   1 H    1.024 --    15 C    0.979
    38   1 H    1.004 --    15 C    0.986
    39   1 H    1.003 --    15 C    0.982
    40   1 H    0.952 --    16 N    0.902
    41   1 H    0.999 --    23 C    0.983
    42   1 H    0.998 --    23 C    0.965
    43   1 H    0.997 --    23 C    0.964
 ---------------------------------------------------------------------------

           -------------------------------------------------
          | TOTAL ENERGY              -83.885127168056 Eh   |
          | GRADIENT NORM               0.000435790331 Eh/α |
          | HOMO-LUMO GAP               0.642589379329 eV   |
           -------------------------------------------------

 * finished run on 2023/06/20 at 15:00:34.787
