   * xtb version 6.5.1 (579679a) compiled by 'ehlert@majestix' on 2022-07-11
          program call               : /lustre/hpc/kemi/ree/PhD/git/ReactivityQM/dep/xtb-6.5.1/bin/xtb --gfn 1 /lustre/hpc/kemi/ree/PhD/git/ReactivityQM/calculations/R02oxygendeprot/reac01/conf08/R02oxygendeprot_reac01_conf08_gfn1.xyz --opt --vfukui --chrg -1 --uhf 0 --alpb DMSO

   ID    Z sym.   atoms
    1    6 C      1, 3, 5, 7-10, 12, 14, 17, 18, 21, 23
    2    8 O      2, 4, 13, 19, 22, 24
    3    7 N      6, 11, 15, 16, 20
    4    1 H      25-38

      * Solvation model:               ALPB
        Solvent                        DMSO
        Solvent mass                       7.8130E+01 g/mol
          :  Hamiltonian                  GFN1-xTB          :
 * total energy  :   -79.6001919 Eh     change       -0.3358025E-10 Eh
 * total energy  :   -79.6134221 Eh     change       -0.1323015E-01 Eh
 * total energy  :   -79.6187155 Eh     change       -0.5293435E-02 Eh
 * total energy  :   -79.6196467 Eh     change       -0.9311683E-03 Eh
 * total energy  :   -79.6200564 Eh     change       -0.4097047E-03 Eh
 * total energy  :   -79.6201563 Eh     change       -0.9989091E-04 Eh
 * total energy  :   -79.6202025 Eh     change       -0.4625847E-04 Eh
 * total energy  :   -79.6202300 Eh     change       -0.2747069E-04 Eh
 * total energy  :   -79.6202566 Eh     change       -0.2661790E-04 Eh
 * total energy  :   -79.6202852 Eh     change       -0.2855724E-04 Eh
 * total energy  :   -79.6215244 Eh     change       -0.1396830E-04 Eh
 * total energy  :   -79.6215308 Eh     change       -0.6458340E-05 Eh
 * total energy  :   -79.6215394 Eh     change       -0.8558573E-05 Eh
 * total energy  :   -79.6215460 Eh     change       -0.6625000E-05 Eh
 * total energy  :   -79.6215569 Eh     change       -0.1089302E-04 Eh
 * total energy  :   -79.6215691 Eh     change       -0.1217039E-04 Eh
 * total energy  :   -79.6215774 Eh     change       -0.8375242E-05 Eh
 * total energy  :   -79.6215826 Eh     change       -0.5199760E-05 Eh
 * total energy  :   -79.6215875 Eh     change       -0.4813603E-05 Eh
   *** GEOMETRY OPTIMIZATION CONVERGED AFTER 53 ITERATIONS ***

 final structure:
================
38
 xtb: 6.5.1 (579679a)
C            6.28460450326231        1.61972624783298        0.86346913502144
O            5.15471094241400        0.81503042005031        1.16712968779907
C            4.15313792326843        0.83094641412690        0.25054362269595
O            4.24716542038749        1.51660503913338       -0.76183305425264
C            3.01497813010334       -0.01320760253452        0.57873311452233
N            2.02268715023099        0.02963038876325       -0.38375645472616
C            0.95404099409487       -0.66649312157625       -0.25946319095113
C           -0.11166694223014       -0.60751991243189       -1.34296550955306
C           -0.41142088414625       -2.00042638013928       -1.90875853773134
C            0.37119064360737        0.31251429270237       -2.46654722905643
N           -1.34233831024928        0.00283623246349       -0.80251731182963
C           -2.23875185669258       -0.59469204560730       -0.00064302036708
O           -2.15058094135665       -1.71468722432938        0.47847956302562
C           -3.39126588115886        0.30692224844409        0.27135383290685
N           -3.51409606066662        1.53838715362164       -0.12427119571198
N           -4.70720851585952        1.98878876719426        0.35758454546893
C           -5.23556410752836        1.00241687022650        1.01598622239783
C           -6.53535473006476        0.98014629573914        1.72209931453736
O           -4.45129607620115       -0.08552559666782        1.00073714660266
N            0.74301325687920       -1.48385801262577        0.82950576319327
C            1.62789443571109       -1.60986069954999        1.86696457586350
O            1.36069058212340       -2.34512599920585        2.81555100609386
C            2.90549070113787       -0.80664467544050        1.75063128286064
O            3.74712985789401       -0.89397008514917        2.66410862593547
H            6.75844001226057        1.28805308420623       -0.06563055847609
H            6.98462974078234        1.51438547140641        1.69142366165749
H            5.99582325239423        2.66982663160578        0.75458282663139
H            0.48586321176924       -2.39056824583319       -2.38701534080528
H           -1.20554361127253       -1.93266608598424       -2.65021286057207
H           -0.71999067711223       -2.69196546090474       -1.12834487056669
H            1.28475829964327       -0.09133865535848       -2.90021060668200
H           -0.38831295069350        0.38661342636129       -3.24210492979804
H            0.58634234040250        1.30653088685852       -2.07600745003265
H           -1.57610922685429        0.92210501716097       -1.14611630858601
H           -6.98832876673854        1.96761837235734        1.68595493058321
H           -6.39261127119177        0.67885267741569        2.75938786509436
H           -7.20212663748023        0.25846560965281        1.25033407408508
H           -0.12002295087615       -2.00785374399642        0.89474463272560

          :  Hamiltonian                  GFN1-xTB          :
         :: total energy             -79.621587462369 Eh    ::
         :: gradient norm              0.000546907266 Eh/a0 ::
         :: HOMO-LUMO gap              1.586892986080 eV    ::
         :: SCC energy               -80.347263392517 Eh    ::
         :: -> Gsolv                  -0.124887566095 Eh    ::
         :: repulsion energy           0.748556399788 Eh    ::

    * Orbital Energies and Occupations

         #    Occupation            Energy/Eh            Energy/eV
      -------------------------------------------------------------
         1        2.0000           -0.8606872             -23.4205
       ...           ...                  ...                  ...
        52        2.0000           -0.4862143             -13.2306
        53        2.0000           -0.4793514             -13.0438
        54        2.0000           -0.4642221             -12.6321
        55        2.0000           -0.4607460             -12.5375
        56        2.0000           -0.4570987             -12.4383
        57        2.0000           -0.4530080             -12.3270
        58        2.0000           -0.4483166             -12.1993
        59        2.0000           -0.4431584             -12.0590
        60        2.0000           -0.4359041             -11.8616
        61        2.0000           -0.4349040             -11.8343
        62        2.0000           -0.4131463             -11.2423
        63        2.0000           -0.3764096             -10.2426
        64        2.0000           -0.3642620              -9.9121 (HOMO)
        65                         -0.3059448              -8.3252 (LUMO)
        66                         -0.2677149              -7.2849
        67                         -0.2543663              -6.9217
        68                         -0.2378562              -6.4724
        69                         -0.1950115              -5.3065
        70                         -0.1943311              -5.2880
        71                         -0.1410657              -3.8386
        72                         -0.1214273              -3.3042
        73                         -0.1197049              -3.2573
        74                         -0.1170219              -3.1843
        75                         -0.1068584              -2.9078
       ...                                ...                  ...
       124                          0.7565779              20.5875
      -------------------------------------------------------------
                  HL-Gap            0.0583172 Eh            1.5869 eV

Wiberg/Mayer (AO) data.
largest (>0.10) Wiberg bond orders for each atom

     #   Z sym  total        # sym  WBO       # sym  WBO       # sym  WBO
 ---------------------------------------------------------------------------
     1   6 C    3.899 --    26 H    0.987    25 H    0.980    27 H    0.980
                             2 O    0.926
     2   8 O    2.159 --     3 C    1.046     1 C    0.926     4 O    0.109
     3   6 C    3.850 --     4 O    1.573     5 C    1.116     2 O    1.046
     4   8 O    1.849 --     3 C    1.573     2 O    0.109
     5   6 C    3.914 --    23 C    1.271     6 N    1.153     3 C    1.116
                            24 O    0.128
     6   7 N    3.031 --     7 C    1.631     5 C    1.153
     7   6 C    3.934 --     6 N    1.631    20 N    1.103     8 C    0.968
     8   6 C    3.929 --    10 C    1.002     9 C    0.989     7 C    0.968
                            11 N    0.905
     9   6 C    3.990 --     8 C    0.989    28 H    0.985    29 H    0.985
                            30 H    0.978
    10   6 C    3.993 --     8 C    1.002    32 H    0.986    31 H    0.983
                            33 H    0.983
    11   7 N    3.358 --    12 C    1.279     8 C    0.905    34 H    0.897
                            13 O    0.181
    12   6 C    3.919 --    13 O    1.571    11 N    1.279    14 C    0.986
    13   8 O    1.912 --    12 C    1.571    11 N    0.181
    14   6 C    3.873 --    15 N    1.612    19 O    1.065    12 C    0.986
    15   7 N    3.014 --    14 C    1.612    16 N    1.197
    16   7 N    2.980 --    17 C    1.608    15 N    1.197
    17   6 C    3.872 --    16 N    1.608    19 O    1.082    18 C    1.031
    18   6 C    3.987 --    17 C    1.031    35 H    0.983    36 H    0.966
                            37 H    0.962
    19   8 O    2.330 --    17 C    1.082    14 C    1.065
    20   7 N    3.435 --    21 C    1.169     7 C    1.103    38 H    0.879
                            22 O    0.136
    21   6 C    3.882 --    22 O    1.574    20 N    1.169    23 C    0.968
    22   8 O    1.854 --    21 C    1.574    20 N    0.136
    23   6 C    3.942 --    24 O    1.519     5 C    1.271    21 C    0.968
    24   8 O    1.824 --    23 C    1.519     5 C    0.128
    25   1 H    1.014 --     1 C    0.980
    26   1 H    1.016 --     1 C    0.987
    27   1 H    1.014 --     1 C    0.980
    28   1 H    1.003 --     9 C    0.985
    29   1 H    1.001 --     9 C    0.985
    30   1 H    1.011 --     9 C    0.978
    31   1 H    1.010 --    10 C    0.983
    32   1 H    1.001 --    10 C    0.986
    33   1 H    1.011 --    10 C    0.983
    34   1 H    0.954 --    11 N    0.897
    35   1 H    0.999 --    18 C    0.983
    36   1 H    0.997 --    18 C    0.966
    37   1 H    0.997 --    18 C    0.962
    38   1 H    0.953 --    20 N    0.879
 ---------------------------------------------------------------------------

           -------------------------------------------------
          | TOTAL ENERGY              -79.621587462369 Eh   |
          | GRADIENT NORM               0.000546907266 Eh/α |
          | HOMO-LUMO GAP               1.586892986080 eV   |
           -------------------------------------------------

 * finished run on 2023/06/21 at 17:00:43.265
