   * xtb version 6.5.1 (579679a) compiled by 'ehlert@majestix' on 2022-07-11
          program call               : /lustre/hpc/kemi/ree/PhD/git/ReactivityQM/dep/xtb-6.5.1/bin/xtb --gfn 1 /lustre/hpc/kemi/ree/PhD/git/ReactivityQM/calculations/R02oxygendeprot/reac01prodN04/conf05/R02oxygendeprot_reac01prodN04_conf05_gfn1.xyz --opt --vfukui --chrg 0 --uhf 0 --alpb DMSO

   ID    Z sym.   atoms
    1    6 C      1, 3, 5, 6, 8-11, 13, 15, 18, 19, 22, 24
    2    8 O      2, 4, 14, 20, 23, 25
    3    7 N      7, 12, 16, 17, 21
    4    1 H      26-42

      * Solvation model:               ALPB
        Solvent                        DMSO
        Solvent mass                       7.8130E+01 g/mol
          :  Hamiltonian                  GFN1-xTB          :
 * total energy  :   -82.9659325 Eh     change       -0.8483880E-11 Eh
 * total energy  :   -82.9831479 Eh     change       -0.1721537E-01 Eh
 * total energy  :   -82.9895256 Eh     change       -0.6377732E-02 Eh
 * total energy  :   -82.9912602 Eh     change       -0.1734556E-02 Eh
 * total energy  :   -82.9920516 Eh     change       -0.7914067E-03 Eh
 * total energy  :   -82.9923272 Eh     change       -0.2756585E-03 Eh
 * total energy  :   -82.9925123 Eh     change       -0.1850824E-03 Eh
 * total energy  :   -82.9926484 Eh     change       -0.1361106E-03 Eh
 * total energy  :   -82.9927876 Eh     change       -0.1391972E-03 Eh
 * total energy  :   -82.9929651 Eh     change       -0.1774720E-03 Eh
 * total energy  :   -82.9945150 Eh     change       -0.2004156E-04 Eh
 * total energy  :   -82.9945297 Eh     change       -0.1464894E-04 Eh
 * total energy  :   -82.9945426 Eh     change       -0.1297615E-04 Eh
 * total energy  :   -82.9945538 Eh     change       -0.1113974E-04 Eh
 * total energy  :   -82.9945613 Eh     change       -0.7532409E-05 Eh
 * total energy  :   -82.9945619 Eh     change       -0.6242496E-06 Eh
 * total energy  :   -82.9945666 Eh     change       -0.4657135E-05 Eh
 * total energy  :   -82.9945721 Eh     change       -0.5509965E-05 Eh
 * total energy  :   -82.9945739 Eh     change       -0.1838762E-05 Eh
   *** GEOMETRY OPTIMIZATION CONVERGED AFTER 44 ITERATIONS ***

 final structure:
================
42
 xtb: 6.5.1 (579679a)
C            0.94770536943757        0.93131302026927        1.96353344062038
O            2.12126296039941        0.17499354640112        2.25959331551528
C            2.86912563283165       -0.46324051379440        1.37702364504899
O            3.99875573599342       -0.91899216431685        1.87569987532679
C            4.31684044735289       -0.66462281893950        3.24557635417246
C            2.59197104207847       -0.68270547821029        0.02352446309462
N            1.33472366534713       -0.30877776170908       -0.44271692625476
C            1.02722844854491       -0.43818047121055       -1.67924554025758
C           -0.34933409039848       -0.02433778022452       -2.16576324379116
C           -0.25086117017832        1.36484178055035       -2.81517776212946
C           -0.94346596214527       -1.04958517178090       -3.13922834251460
N           -1.18835022602547        0.04703207130378       -0.97253852119327
C           -2.46885963779450        0.45657918636393       -0.95137804395141
O           -3.13160454064629        0.78887140542725       -1.91857288372377
C           -2.99172057675545        0.44733492636316        0.44266608009628
N           -2.31913596179734        0.13762553158310        1.51150767384989
N           -3.17345429065629        0.26353814974756        2.56540696602496
C           -4.31380720707446        0.64263065277130        2.07238019753086
C           -5.56853363774938        0.91528402033187        2.80727718772248
O           -4.26094351047937        0.77578225571361        0.73873340928738
N            1.91645523739322       -0.90900725957188       -2.61597786401179
C            3.18155425536821       -1.34908370092713       -2.31988557301940
O            3.91401544698626       -1.77116652416993       -3.19471034374513
C            3.57710061718757       -1.26989953826015       -0.85348812979150
O            4.68426868012102       -1.67090529926661       -0.51412361661749
H            1.10269359733307        1.56334860223268        1.08843843420316
H            0.76352549563576        1.54723124121516        2.84461653063016
H            0.09520563699120        0.27013496129368        1.79174616370304
H            5.29722153034546       -1.10631004971626        3.41530066176660
H            4.34714169070573        0.41034494218373        3.43337067747608
H            3.57450185032132       -1.12745704342676        3.89888337323106
H            0.44772101413369        1.33008295333635       -3.64896702764669
H            0.10189522068167        2.08975189969748       -2.08327872113918
H           -1.22818316350077        1.67288854519302       -3.18250163370323
H           -1.97026050942113       -0.77331768104701       -3.37309619365565
H           -0.37410542171520       -1.06776401085512       -4.06583034624674
H           -0.93366426486757       -2.04213501435901       -2.69193135936334
H           -0.73803765894049       -0.18943565651269       -0.09818788821660
H           -5.41369961014056        0.74370119102723        3.86963780315074
H           -6.36248133735153        0.26355910112427        2.44288131314126
H           -5.87903525749322        1.94742724542456        2.64561681859388
H            1.64862545993483       -0.95737529125595       -3.58681542321514

          :  Hamiltonian                  GFN1-xTB          :
         :: total energy             -82.994573943765 Eh    ::
         :: gradient norm              0.000743730392 Eh/a0 ::
         :: HOMO-LUMO gap              2.373276666105 eV    ::
         :: SCC energy               -83.773153200781 Eh    ::
         :: -> Gsolv                  -0.057322166145 Eh    ::
         :: repulsion energy           0.805283193075 Eh    ::

    * Orbital Energies and Occupations

         #    Occupation            Energy/Eh            Energy/eV
      -------------------------------------------------------------
         1        2.0000           -0.8652216             -23.5439
       ...           ...                  ...                  ...
        55        2.0000           -0.5066416             -13.7864
        56        2.0000           -0.5030639             -13.6891
        57        2.0000           -0.5027974             -13.6818
        58        2.0000           -0.4959178             -13.4946
        59        2.0000           -0.4840016             -13.1704
        60        2.0000           -0.4796760             -13.0526
        61        2.0000           -0.4662947             -12.6885
        62        2.0000           -0.4614219             -12.5559
        63        2.0000           -0.4557783             -12.4024
        64        2.0000           -0.4519787             -12.2990
        65        2.0000           -0.4469833             -12.1630
        66        2.0000           -0.4219993             -11.4832
        67        2.0000           -0.4152812             -11.3004 (HOMO)
        68                         -0.3280649              -8.9271 (LUMO)
        69                         -0.3108273              -8.4580
        70                         -0.2757181              -7.5027
        71                         -0.2585597              -7.0358
        72                         -0.2493390              -6.7849
        73                         -0.1989919              -5.4148
        74                         -0.1575214              -4.2864
        75                         -0.1486555              -4.0451
        76                         -0.1427736              -3.8851
        77                         -0.1399099              -3.8071
        78                         -0.1370683              -3.7298
       ...                                ...                  ...
       134                          0.7555221              20.5588
      -------------------------------------------------------------
                  HL-Gap            0.0872163 Eh            2.3733 eV

Wiberg/Mayer (AO) data.
largest (>0.10) Wiberg bond orders for each atom

     #   Z sym  total        # sym  WBO       # sym  WBO       # sym  WBO
 ---------------------------------------------------------------------------
     1   6 C    3.852 --    27 H    0.981    26 H    0.978    28 H    0.968
                             2 O    0.881
     2   8 O    2.223 --     3 C    1.133     1 C    0.881
     3   6 C    3.833 --     6 C    1.331     4 O    1.154     2 O    1.133
     4   8 O    2.240 --     3 C    1.154     5 C    0.888
     5   6 C    3.861 --    29 H    0.984    31 H    0.978    30 H    0.978
                             4 O    0.888
     6   6 C    3.921 --     3 C    1.331    24 C    1.164     7 N    1.106
     7   7 N    3.057 --     8 C    1.645     6 C    1.106
     8   6 C    3.931 --     7 N    1.645    21 N    1.113     9 C    0.980
     9   6 C    3.937 --    11 C    0.986     8 C    0.980    10 C    0.975
                            12 N    0.931
    10   6 C    3.986 --    33 H    0.985    32 H    0.985    34 H    0.979
                             9 C    0.975
    11   6 C    3.988 --     9 C    0.986    37 H    0.985    36 H    0.981
                            35 H    0.978
    12   7 N    3.356 --    13 C    1.265     9 C    0.931    38 H    0.880
                            14 O    0.181
    13   6 C    3.919 --    14 O    1.589    12 N    1.265    15 C    0.984
    14   8 O    1.908 --    13 C    1.589    12 N    0.181
    15   6 C    3.874 --    16 N    1.607    20 O    1.068    13 C    0.984
    16   7 N    3.037 --    15 C    1.607    17 N    1.197
    17   7 N    2.980 --    18 C    1.606    16 N    1.197
    18   6 C    3.870 --    17 N    1.606    20 O    1.082    19 C    1.031
    19   6 C    3.986 --    18 C    1.031    39 H    0.983    40 H    0.963
                            41 H    0.963
    20   8 O    2.332 --    18 C    1.082    15 C    1.068
    21   7 N    3.435 --    22 C    1.155     8 C    1.113    42 H    0.885
                            23 O    0.137
    22   6 C    3.882 --    23 O    1.640    21 N    1.155    24 C    0.940
    23   8 O    1.918 --    22 C    1.640    21 N    0.137
    24   6 C    3.921 --    25 O    1.633     6 C    1.164    22 C    0.940
    25   8 O    1.919 --    24 C    1.633
    26   1 H    1.016 --     1 C    0.978
    27   1 H    1.008 --     1 C    0.981
    28   1 H    1.038 --     1 C    0.968
    29   1 H    1.008 --     5 C    0.984
    30   1 H    1.005 --     5 C    0.978
    31   1 H    1.005 --     5 C    0.978
    32   1 H    1.000 --    10 C    0.985
    33   1 H    1.002 --    10 C    0.985
    34   1 H    1.007 --    10 C    0.979
    35   1 H    1.007 --    11 C    0.978
    36   1 H    0.999 --    11 C    0.981
    37   1 H    1.001 --    11 C    0.985
    38   1 H    0.968 --    12 N    0.880
    39   1 H    0.998 --    19 C    0.983
    40   1 H    0.996 --    19 C    0.963
    41   1 H    0.996 --    19 C    0.963
    42   1 H    0.934 --    21 N    0.885
 ---------------------------------------------------------------------------

           -------------------------------------------------
          | TOTAL ENERGY              -82.994573943765 Eh   |
          | GRADIENT NORM               0.000743730392 Eh/α |
          | HOMO-LUMO GAP               2.373276666105 eV   |
           -------------------------------------------------

 * finished run on 2023/06/21 at 17:20:20.115
