   * xtb version 6.5.1 (579679a) compiled by 'ehlert@majestix' on 2022-07-11
          program call               : /lustre/hpc/kemi/ree/PhD/git/ReactivityQM/dep/xtb-6.5.1/bin/xtb --gfn 1 /lustre/hpc/kemi/ree/PhD/git/ReactivityQM/calculations/R02deprot/reac01prodN10/conf09/R02deprot_reac01prodN10_conf09_gfn1.xyz --opt --vfukui --chrg 0 --uhf 0 --alpb DMSO

   ID    Z sym.   atoms
    1    6 C      1, 3, 5, 6, 8-11, 13, 15, 18, 19, 22, 24
    2    8 O      2, 4, 14, 20, 23, 25
    3    7 N      7, 12, 16, 17, 21
    4    1 H      26-42

      * Solvation model:               ALPB
        Solvent                        DMSO
        Solvent mass                       7.8130E+01 g/mol
          :  Hamiltonian                  GFN1-xTB          :
 * total energy  :   -82.9332078 Eh     change       -0.1477929E-10 Eh
 * total energy  :   -82.9466836 Eh     change       -0.1347579E-01 Eh
 * total energy  :   -82.9522488 Eh     change       -0.5565266E-02 Eh
 * total energy  :   -82.9534119 Eh     change       -0.1163035E-02 Eh
 * total energy  :   -82.9540236 Eh     change       -0.6117315E-03 Eh
 * total energy  :   -82.9542600 Eh     change       -0.2364360E-03 Eh
 * total energy  :   -82.9544122 Eh     change       -0.1521497E-03 Eh
 * total energy  :   -82.9544880 Eh     change       -0.7580611E-04 Eh
 * total energy  :   -82.9545339 Eh     change       -0.4589439E-04 Eh
 * total energy  :   -82.9545728 Eh     change       -0.3894528E-04 Eh
 * total energy  :   -82.9557021 Eh     change       -0.1544459E-04 Eh
 * total energy  :   -82.9557230 Eh     change       -0.2098612E-04 Eh
 * total energy  :   -82.9557323 Eh     change       -0.9298763E-05 Eh
 * total energy  :   -82.9557457 Eh     change       -0.1337142E-04 Eh
 * total energy  :   -82.9557577 Eh     change       -0.1200468E-04 Eh
 * total energy  :   -82.9557707 Eh     change       -0.1297740E-04 Eh
 * total energy  :   -82.9557663 Eh     change        0.4379852E-05 Eh
 * total energy  :   -82.9557755 Eh     change       -0.9190316E-05 Eh
 * total energy  :   -82.9557804 Eh     change       -0.4906415E-05 Eh
   *** GEOMETRY OPTIMIZATION CONVERGED AFTER 42 ITERATIONS ***

 final structure:
================
42
 xtb: 6.5.1 (579679a)
C           -2.18225362647933        2.41447027682380        2.72693351479996
O           -2.26064203802439        1.36836568385926        1.74014759047531
C           -2.55829717240127        1.71888193179756        0.51807550106626
O           -2.79723964078702        2.82160784052752        0.12266539894922
C           -2.56895031736183        0.47009662246369       -0.45852542504867
C           -2.82978162880691        0.98957854257678       -1.87608543555333
N           -1.26079248522682       -0.09135485293049       -0.33842251113974
C           -1.09247630722932       -1.18364553534590        0.33960285518223
C            0.32200741610711       -1.71572377457572        0.49973705262659
C            0.41220813459499       -3.10513802726238       -0.14629611927072
C            0.65107853946931       -1.78206726080780        1.99791671791918
N            1.22780477840141       -0.79019789606041       -0.17247005744976
C            2.56346267209218       -0.92532690638538       -0.20278140875630
O            3.20082695785145       -1.83672037251812        0.29982095153170
C            3.19356858336824        0.20253344736625       -0.94267611131771
N            2.57139133203087        1.19349770711458       -1.50717708359490
N            3.52700787067858        1.99268432218253       -2.06236583009531
C            4.67081663862601        1.43781095616303       -1.79924052359852
C            6.01706962741131        1.91927005903211       -2.18023437403071
O            4.52682544853256        0.30495269836588       -1.09536615373858
N           -2.02830441188319       -1.95632745061124        0.94156417933783
C           -3.31625493307866       -1.62371752623787        0.84859934655392
O           -4.29411499410219       -2.23083441308297        1.29326920049948
C           -3.62299591823980       -0.38767708872766        0.07316780434041
O           -4.86911308850117       -0.11088139060698       -0.06059372890341
H           -2.12293950771336        1.91728801333633        3.69187824764540
H           -3.07142411148683        3.04347193071666        2.66795897387958
H           -1.28959200786331        3.01578224694288        2.55014108484735
H           -2.06189444274505        1.71489729419174       -2.13430219367998
H           -2.79456914712520        0.15839436972770       -2.57565487968031
H           -3.80822886526858        1.46282562476487       -1.91724251248248
H            0.23083861457065       -3.02895184536279       -1.21731163284166
H            1.39963488603596       -3.53267110071063        0.01950522441474
H           -0.34045061355567       -3.75528658949348        0.29748725642872
H            0.63434015245229       -0.78028708891165        2.42465775543353
H           -0.09553712566618       -2.39551603310008        2.49995524763437
H            1.63604019766143       -2.21964558546084        2.15000559186932
H            0.79865324706599        0.00829025911353       -0.62601751360159
H            6.59555780145497        2.15333378314125       -1.28685250244714
H            5.92564384077148        2.81021780429012       -2.79615160048336
H            6.54790449475105        1.14446169840584       -2.73189569515008
H           -5.38682585038078       -0.81074237470300        0.42456979743546

          :  Hamiltonian                  GFN1-xTB          :
         :: total energy             -82.955780409119 Eh    ::
         :: gradient norm              0.000582768476 Eh/a0 ::
         :: HOMO-LUMO gap              1.256532358842 eV    ::
         :: SCC energy               -83.726821798166 Eh    ::
         :: -> Gsolv                  -0.050627494351 Eh    ::
         :: repulsion energy           0.797665030607 Eh    ::

    * Orbital Energies and Occupations

         #    Occupation            Energy/Eh            Energy/eV
      -------------------------------------------------------------
         1        2.0000           -0.8769345             -23.8626
       ...           ...                  ...                  ...
        55        2.0000           -0.5041117             -13.7176
        56        2.0000           -0.5010644             -13.6347
        57        2.0000           -0.4988902             -13.5755
        58        2.0000           -0.4876059             -13.2684
        59        2.0000           -0.4860596             -13.2264
        60        2.0000           -0.4808037             -13.0833
        61        2.0000           -0.4637639             -12.6197
        62        2.0000           -0.4576212             -12.4525
        63        2.0000           -0.4553226             -12.3900
        64        2.0000           -0.4486956             -12.2096
        65        2.0000           -0.4418374             -12.0230
        66        2.0000           -0.4341726             -11.8144
        67        2.0000           -0.4267913             -11.6136 (HOMO)
        68                         -0.3806146             -10.3570 (LUMO)
        69                         -0.3067140              -8.3461
        70                         -0.2987428              -8.1292
        71                         -0.2730129              -7.4291
        72                         -0.2557514              -6.9593
        73                         -0.2003206              -5.4510
        74                         -0.1946865              -5.2977
        75                         -0.1525675              -4.1516
        76                         -0.1422785              -3.8716
        77                         -0.1353294              -3.6825
        78                         -0.1203430              -3.2747
       ...                                ...                  ...
       134                          0.7267130              19.7749
      -------------------------------------------------------------
                  HL-Gap            0.0461767 Eh            1.2565 eV

Wiberg/Mayer (AO) data.
largest (>0.10) Wiberg bond orders for each atom

     #   Z sym  total        # sym  WBO       # sym  WBO       # sym  WBO
 ---------------------------------------------------------------------------
     1   6 C    3.844 --    26 H    0.984    27 H    0.980    28 H    0.979
                             2 O    0.865
     2   8 O    2.237 --     3 C    1.182     1 C    0.865     4 O    0.142
     3   6 C    3.849 --     4 O    1.716     2 O    1.182     5 C    0.789
     4   8 O    2.023 --     3 C    1.716     2 O    0.142
     5   6 C    3.969 --    24 C    1.060     7 N    1.011     6 C    0.951
                             3 C    0.789
     6   6 C    3.977 --    31 H    0.983    30 H    0.983    29 H    0.981
                             5 C    0.951
     7   7 N    3.016 --     8 C    1.590     5 C    1.011
     8   6 C    3.944 --     7 N    1.590    21 N    1.247     9 C    0.979
     9   6 C    3.936 --     8 C    0.979    10 C    0.979    11 C    0.979
                            12 N    0.930
    10   6 C    3.990 --    32 H    0.986    34 H    0.984    33 H    0.981
                             9 C    0.979
    11   6 C    3.991 --    35 H    0.986    36 H    0.983    37 H    0.981
                             9 C    0.979
    12   7 N    3.364 --    13 C    1.274     9 C    0.930    38 H    0.880
                            14 O    0.182
    13   6 C    3.921 --    14 O    1.581    12 N    1.274    15 C    0.985
    14   8 O    1.899 --    13 C    1.581    12 N    0.182
    15   6 C    3.873 --    16 N    1.614    20 O    1.063    13 C    0.985
    16   7 N    3.013 --    15 C    1.614    17 N    1.196
    17   7 N    2.980 --    18 C    1.609    16 N    1.196
    18   6 C    3.872 --    17 N    1.609    20 O    1.082    19 C    1.031
    19   6 C    3.987 --    18 C    1.031    40 H    0.983    41 H    0.965
                            39 H    0.962
    20   8 O    2.328 --    18 C    1.082    15 C    1.063
    21   7 N    3.011 --    22 C    1.309     8 C    1.247    23 O    0.162
                            24 C    0.114
    22   6 C    3.935 --    23 O    1.512    21 N    1.309    24 C    0.991
    23   8 O    1.882 --    22 C    1.512    21 N    0.162
    24   6 C    3.783 --    25 O    1.333     5 C    1.060    22 C    0.991
                            21 N    0.114
    25   8 O    2.253 --    24 C    1.333    42 H    0.745
    26   1 H    1.006 --     1 C    0.984
    27   1 H    1.002 --     1 C    0.980
    28   1 H    1.001 --     1 C    0.979
    29   1 H    1.003 --     6 C    0.981
    30   1 H    0.998 --     6 C    0.983
    31   1 H    1.001 --     6 C    0.983
    32   1 H    1.003 --    10 C    0.986
    33   1 H    1.009 --    10 C    0.981
    34   1 H    1.010 --    10 C    0.984
    35   1 H    1.003 --    11 C    0.986
    36   1 H    1.010 --    11 C    0.983
    37   1 H    1.010 --    11 C    0.981
    38   1 H    0.972 --    12 N    0.880
    39   1 H    0.997 --    19 C    0.962
    40   1 H    0.999 --    19 C    0.983
    41   1 H    0.997 --    19 C    0.965
    42   1 H    0.821 --    25 O    0.745
 ---------------------------------------------------------------------------

           -------------------------------------------------
          | TOTAL ENERGY              -82.955780409119 Eh   |
          | GRADIENT NORM               0.000582768476 Eh/α |
          | HOMO-LUMO GAP               1.256532358842 eV   |
           -------------------------------------------------

 * finished run on 2023/06/20 at 18:18:17.341
