   * xtb version 6.5.1 (579679a) compiled by 'ehlert@majestix' on 2022-07-11
          program call               : /lustre/hpc/kemi/ree/PhD/git/ReactivityQM/dep/xtb-6.5.1/bin/xtb --gfn 1 /lustre/hpc/kemi/ree/PhD/git/ReactivityQM/calculations/R03/reac01prodE02/conf09/R03_reac01prodE02_conf09_gfn1.xyz --opt --vfukui --chrg -1 --uhf 0 --alpb DMSO

   ID    Z sym.   atoms
    1    6 C      1-4, 6-9
    2    9 F      5
    3    7 N      10
    4    1 H      11-21

      * Solvation model:               ALPB
        Solvent                        DMSO
        Solvent mass                       7.8130E+01 g/mol
          :  Hamiltonian                  GFN1-xTB          :
 * total energy  :   -31.4565838 Eh     change       -0.4124701E-11 Eh
 * total energy  :   -31.4618191 Eh     change       -0.5235328E-02 Eh
 * total energy  :   -31.4628804 Eh     change       -0.1061289E-02 Eh
 * total energy  :   -31.4630174 Eh     change       -0.1369575E-03 Eh
 * total energy  :   -31.4631198 Eh     change       -0.1024275E-03 Eh
 * total energy  :   -31.4631811 Eh     change       -0.6123560E-04 Eh
 * total energy  :   -31.4632479 Eh     change       -0.6685880E-04 Eh
 * total energy  :   -31.4633003 Eh     change       -0.5242974E-04 Eh
 * total energy  :   -31.4633367 Eh     change       -0.3634213E-04 Eh
 * total energy  :   -31.4633711 Eh     change       -0.3445961E-04 Eh
 * total energy  :   -31.4633970 Eh     change       -0.2589418E-04 Eh
 * total energy  :   -31.4634218 Eh     change       -0.2479764E-04 Eh
 * total energy  :   -31.4634389 Eh     change       -0.1709932E-04 Eh
 * total energy  :   -31.4634518 Eh     change       -0.1286473E-04 Eh
 * total energy  :   -31.4634581 Eh     change       -0.6329274E-05 Eh
 * total energy  :   -31.4634583 Eh     change       -0.1761946E-06 Eh
 * total energy  :   -31.4634620 Eh     change       -0.3684756E-05 Eh
   *** GEOMETRY OPTIMIZATION CONVERGED AFTER 17 ITERATIONS ***

 final structure:
================
21
 xtb: 6.5.1 (579679a)
C           -0.06162342607721       -1.92948159190568       -0.31697179717043
C            0.19744439042018       -0.77652100468926        0.70362777081517
C            1.67595252578509       -0.67520328387629        1.02480468804335
C            2.41845078663095        0.32960265320922        0.49706064769015
F            3.77533595455357        0.30462806618647        0.73858899901875
C            1.92854872006021        1.42838856336575       -0.21630023369563
C            0.51854080376428        1.51828141949083       -0.29675913546436
C           -0.32294730991678        0.55300172417149        0.17472762691948
C           -1.82062523319799        0.75449549762990        0.14169490381677
N           -2.36530293836805        0.67889093047291       -1.23621342567549
H            0.33114775179827       -2.87042159708955        0.07220914061677
H           -1.13102899113285       -2.04740190938722       -0.49641417587708
H            0.43182959386962       -1.71085114437133       -1.26533599677106
H           -0.36050828294217       -1.05761812579331        1.61967029794814
H            2.12944820461776       -1.46414434755206        1.61297285215389
H            2.58157395864072        2.20860079429007       -0.58266532451955
H            0.08856974399505        2.42633026359108       -0.72364603885795
H           -2.08615649970147        1.74983722204841        0.52857708631924
H           -2.32433716372837        0.00866026802986        0.77969045530959
H           -3.36095446213708        0.83996241927382       -1.18330113057411
H           -2.24335712693385       -0.26903881709519       -1.57601621004559

          :  Hamiltonian                  GFN1-xTB          :
         :: total energy             -31.463461991797 Eh    ::
         :: gradient norm              0.000483401384 Eh/a0 ::
         :: HOMO-LUMO gap              2.666419740791 eV    ::
         :: SCC energy               -31.834708666604 Eh    ::
         :: -> Gsolv                  -0.082247593928 Eh    ::
         :: repulsion energy           0.381560312679 Eh    ::

    * Orbital Energies and Occupations

         #    Occupation            Energy/Eh            Energy/eV
      -------------------------------------------------------------
         1        2.0000           -0.7897769             -21.4909
       ...           ...                  ...                  ...
        16        2.0000           -0.4846257             -13.1873
        17        2.0000           -0.4795222             -13.0485
        18        2.0000           -0.4714108             -12.8277
        19        2.0000           -0.4619189             -12.5695
        20        2.0000           -0.4557921             -12.4027
        21        2.0000           -0.4446170             -12.0986
        22        2.0000           -0.4359864             -11.8638
        23        2.0000           -0.4130088             -11.2385
        24        2.0000           -0.4041290             -10.9969
        25        2.0000           -0.3989381             -10.8557
        26        2.0000           -0.3733745             -10.1600
        27        2.0000           -0.3606972              -9.8151
        28        2.0000           -0.2775261              -7.5519 (HOMO)
        29                         -0.1795370              -4.8854 (LUMO)
        30                         -0.1099066              -2.9907
        31                         -0.0859405              -2.3386
        32                         -0.0800612              -2.1786
        33                         -0.0682491              -1.8572
        34                         -0.0581697              -1.5829
        35                         -0.0451667              -1.2290
        36                         -0.0420978              -1.1455
        37                         -0.0280782              -0.7640
        38                         -0.0237355              -0.6459
        39                         -0.0192483              -0.5238
       ...                                ...                  ...
        62                          0.6571551              17.8821
      -------------------------------------------------------------
                  HL-Gap            0.0979891 Eh            2.6664 eV

Wiberg/Mayer (AO) data.
largest (>0.10) Wiberg bond orders for each atom

     #   Z sym  total        # sym  WBO       # sym  WBO       # sym  WBO
 ---------------------------------------------------------------------------
     1   6 C    3.992 --    13 H    0.989    11 H    0.987    12 H    0.985
                             2 C    0.967
     2   6 C    3.992 --     3 C    1.005     8 C    0.998    14 H    0.969
                             1 C    0.967
     3   6 C    3.900 --     4 C    1.585     2 C    1.005    15 H    0.975
                             6 C    0.110
     4   6 C    3.824 --     3 C    1.585     6 C    1.301     5 F    0.851
     5   9 F    0.959 --     4 C    0.851
     6   6 C    3.872 --     4 C    1.301     7 C    1.287    16 H    0.977
                             3 C    0.110     8 C    0.105
     7   6 C    3.994 --     8 C    1.626     6 C    1.287    17 H    0.973
     8   6 C    3.931 --     7 C    1.626     9 C    1.007     2 C    0.998
                             6 C    0.105
     9   6 C    3.969 --     8 C    1.007    18 H    0.979    19 H    0.977
                            10 N    0.967
    10   7 N    2.935 --     9 C    0.967    21 H    0.960    20 H    0.959
    11   1 H    1.015 --     1 C    0.987
    12   1 H    1.013 --     1 C    0.985
    13   1 H    1.023 --     1 C    0.989
    14   1 H    1.022 --     2 C    0.969
    15   1 H    1.004 --     3 C    0.975
    16   1 H    1.005 --     6 C    0.977
    17   1 H    1.008 --     7 C    0.973
    18   1 H    1.022 --     9 C    0.979
    19   1 H    1.008 --     9 C    0.977
    20   1 H    0.972 --    10 N    0.959
    21   1 H    0.984 --    10 N    0.960
 ---------------------------------------------------------------------------

           -------------------------------------------------
          | TOTAL ENERGY              -31.463461991797 Eh   |
          | GRADIENT NORM               0.000483401384 Eh/α |
          | HOMO-LUMO GAP               2.666419740791 eV   |
           -------------------------------------------------

 * finished run on 2023/06/20 at 15:12:58.666
