   * xtb version 6.5.1 (579679a) compiled by 'ehlert@majestix' on 2022-07-11
          program call               : /lustre/hpc/kemi/ree/PhD/git/ReactivityQM/dep/xtb-6.5.1/bin/xtb --gfn 1 /lustre/hpc/kemi/ree/PhD/git/ReactivityQM/calculations/R03/reac02prodN07/conf13/R03_reac02prodN07_conf13_gfn1.xyz --opt --vfukui --chrg 1 --uhf 0 --alpb DMSO

   ID    Z sym.   atoms
    1    6 C      1, 3, 5, 7-10, 12, 14, 17-19, 22, 23, 25
    2    8 O      2, 4, 13, 20, 24, 26
    3    7 N      6, 11, 15, 16, 21
    4    1 H      27-46

      * Solvation model:               ALPB
        Solvent                        DMSO
        Solvent mass                       7.8130E+01 g/mol
          :  Hamiltonian                  GFN1-xTB          :
 * total energy  :   -86.3352122 Eh     change       -0.2393108E-10 Eh
 * total energy  :   -86.3523711 Eh     change       -0.1715890E-01 Eh
 * total energy  :   -86.3580942 Eh     change       -0.5723068E-02 Eh
 * total energy  :   -86.3592139 Eh     change       -0.1119710E-02 Eh
 * total energy  :   -86.3599235 Eh     change       -0.7095926E-03 Eh
 * total energy  :   -86.3602427 Eh     change       -0.3192119E-03 Eh
 * total energy  :   -86.3605103 Eh     change       -0.2676270E-03 Eh
 * total energy  :   -86.3606751 Eh     change       -0.1647587E-03 Eh
 * total energy  :   -86.3607655 Eh     change       -0.9040427E-04 Eh
 * total energy  :   -86.3608344 Eh     change       -0.6892791E-04 Eh
 * total energy  :   -86.3610690 Eh     change       -0.3505498E-04 Eh
 * total energy  :   -86.3611064 Eh     change       -0.3743150E-04 Eh
 * total energy  :   -86.3611256 Eh     change       -0.1916131E-04 Eh
 * total energy  :   -86.3611565 Eh     change       -0.3095482E-04 Eh
 * total energy  :   -86.3611759 Eh     change       -0.1940317E-04 Eh
 * total energy  :   -86.3611940 Eh     change       -0.1809620E-04 Eh
 * total energy  :   -86.3612083 Eh     change       -0.1431839E-04 Eh
 * total energy  :   -86.3612150 Eh     change       -0.6612243E-05 Eh
 * total energy  :   -86.3612189 Eh     change       -0.3962084E-05 Eh
   *** GEOMETRY OPTIMIZATION CONVERGED AFTER 22 ITERATIONS ***

 final structure:
================
46
 xtb: 6.5.1 (579679a)
C           -5.57519596301496        2.90553154655085        0.76547622727160
O           -4.55451925627780        1.91260539416654        0.61957905187227
C           -4.78020056866032        0.96220955211877       -0.28890662969012
O           -5.78347065522772        0.91344895112841       -0.96079978821040
C           -3.65113341467263       -0.00948185980797       -0.37707942045259
N           -2.59606626342704        0.20100159944333        0.46807340635991
C           -1.55832547308611       -0.56850839592358        0.46722375297208
C           -0.47996223702262       -0.23196280757992        1.48831004659033
C           -0.41855950741419       -1.31971265178681        2.56906957398865
C           -0.79124051497329        1.12552302079196        2.13226886159788
N            0.80547211548984       -0.10900304237418        0.77251627016712
C            1.98122221439113        0.07315280243760        1.39416431024445
O            2.19304994244496        0.08310483814882        2.58525359929017
C            3.08981513294251        0.25216046371968        0.39026541032646
N            2.98950906269250        0.26397459663864       -0.90527513267099
N            4.24744146927749        0.44571042690159       -1.34937466157105
C            4.50825944041410        0.50133583349905       -2.77465975438191
C            5.07421393279281        0.53792175934470       -0.32709687337495
C            6.53043678096799        0.74650782545075       -0.32326030157168
O            4.36570008441375        0.42038034051771        0.77694647329357
N           -1.45924695512445       -1.65034421073206       -0.37190397498761
C           -0.33567652833205       -2.58564889866013       -0.44408007393314
C           -2.47692079828868       -1.96094137964110       -1.25853283581211
O           -2.40913844939598       -2.92694502479949       -2.00961271131912
C           -3.62584148001861       -1.06698773476998       -1.24409975213165
O           -4.60045535708582       -1.36316402513242       -2.10664245654990
H           -5.22205760986514        3.60633125782113        1.51909459214204
H           -5.73623181550187        3.41996246294800       -0.18513792017366
H           -6.50947459600384        2.43917006881195        1.08811042949964
H           -0.02333995131768       -2.25145348156154        2.17367069619288
H           -1.42557377867993       -1.49498567472492        2.94599607963386
H            0.21374649794204       -0.99501385165997        3.39298182292211
H           -0.00929821520119        1.37933648724869        2.84518291891127
H           -1.74699083852407        1.07336442051228        2.65091358535993
H           -0.84657121333337        1.89697418695062        1.36674732961287
H            0.77533237703840        0.02380307652506       -0.22471221325630
H            5.01976089265336        1.43379276711066       -3.00565210231893
H            3.55118536025358        0.45165411030677       -3.28726374089260
H            5.13370006311243       -0.34564773233744       -3.05275035678546
H            6.98037613899688        0.15747081448975        0.47608040652216
H            6.95678450070994        0.47226557985711       -1.28513976070758
H            6.74462860583917        1.80027411486663       -0.12825525421632
H           -0.07437388269084       -2.71197948439842       -1.49450453108706
H            0.51986491664605       -2.21081695698381        0.10151077985651
H           -0.65173600921470       -3.54731175358211       -0.03888084556176
H           -4.33889719668261       -2.14905833184117       -2.62098053297007

          :  Hamiltonian                  GFN1-xTB          :
         :: total energy             -86.361218922623 Eh    ::
         :: gradient norm              0.000817451195 Eh/a0 ::
         :: HOMO-LUMO gap              2.007814660910 eV    ::
         :: SCC energy               -87.206687027824 Eh    ::
         :: -> Gsolv                  -0.128351256463 Eh    ::
         :: repulsion energy           0.873891702905 Eh    ::

    * Orbital Energies and Occupations

         #    Occupation            Energy/Eh            Energy/eV
      -------------------------------------------------------------
         1        2.0000           -0.9398705             -25.5752
       ...           ...                  ...                  ...
        58        2.0000           -0.5274774             -14.3534
        59        2.0000           -0.5226042             -14.2208
        60        2.0000           -0.5196872             -14.1414
        61        2.0000           -0.5174269             -14.0799
        62        2.0000           -0.5137114             -13.9788
        63        2.0000           -0.4998824             -13.6025
        64        2.0000           -0.4956290             -13.4868
        65        2.0000           -0.4892055             -13.3120
        66        2.0000           -0.4834084             -13.1542
        67        2.0000           -0.4788649             -13.0306
        68        2.0000           -0.4670523             -12.7091
        69        2.0000           -0.4542035             -12.3595
        70        2.0000           -0.4369290             -11.8894 (HOMO)
        71                         -0.3631431              -9.8816 (LUMO)
        72                         -0.3466898              -9.4339
        73                         -0.3296538              -8.9703
        74                         -0.2941743              -8.0049
        75                         -0.2463740              -6.7042
        76                         -0.2456488              -6.6844
        77                         -0.1852554              -5.0411
        78                         -0.1737480              -4.7279
        79                         -0.1641853              -4.4677
        80                         -0.1509857              -4.1085
        81                         -0.1404603              -3.8221
       ...                                ...                  ...
       144                          0.7369137              20.0524
      -------------------------------------------------------------
                  HL-Gap            0.0737858 Eh            2.0078 eV

Wiberg/Mayer (AO) data.
largest (>0.10) Wiberg bond orders for each atom

     #   Z sym  total        # sym  WBO       # sym  WBO       # sym  WBO
 ---------------------------------------------------------------------------
     1   6 C    3.871 --    27 H    0.986    28 H    0.979    29 H    0.979
                             2 O    0.896
     2   8 O    2.199 --     3 C    1.112     1 C    0.896     4 O    0.135
     3   6 C    3.852 --     4 O    1.663     2 O    1.112     5 C    0.998
     4   8 O    1.927 --     3 C    1.663     2 O    0.135
     5   6 C    3.962 --    25 C    1.490     6 N    1.186     3 C    0.998
     6   7 N    3.034 --     7 C    1.580     5 C    1.186
     7   6 C    3.934 --     6 N    1.580    21 N    1.166     8 C    0.976
     8   6 C    3.918 --    10 C    0.989     9 C    0.983     7 C    0.976
                            11 N    0.903
     9   6 C    3.986 --    31 H    0.983     8 C    0.983    30 H    0.980
                            32 H    0.977
    10   6 C    3.987 --     8 C    0.989    35 H    0.984    33 H    0.982
                            34 H    0.982
    11   7 N    3.373 --    12 C    1.276     8 C    0.903    36 H    0.893
                            13 O    0.195
    12   6 C    3.925 --    13 O    1.623    11 N    1.276    14 C    0.952
    13   8 O    1.950 --    12 C    1.623    11 N    0.195
    14   6 C    3.843 --    15 N    1.608    20 O    1.069    12 C    0.952
    15   7 N    2.993 --    14 C    1.608    16 N    1.151
    16   7 N    3.630 --    18 C    1.423    15 N    1.151    17 C    0.907
    17   6 C    3.882 --    38 H    0.978    37 H    0.971    39 H    0.967
                            16 N    0.907
    18   6 C    3.841 --    16 N    1.423    20 O    1.154    19 C    1.043
    19   6 C    3.961 --    18 C    1.043    41 H    0.972    40 H    0.956
                            42 H    0.932
    20   8 O    2.390 --    18 C    1.154    14 C    1.069
    21   7 N    3.507 --     7 C    1.166    23 C    1.127    22 C    0.927
                            24 O    0.135
    22   6 C    3.920 --    44 H    0.979    43 H    0.974    45 H    0.974
                            21 N    0.927
    23   6 C    3.913 --    24 O    1.563    21 N    1.127    25 C    1.073
    24   8 O    1.906 --    23 C    1.563    21 N    0.135
    25   6 C    3.922 --     5 C    1.490    26 O    1.115    23 C    1.073
    26   8 O    2.093 --    25 C    1.115    46 H    0.805
    27   1 H    1.011 --     1 C    0.986
    28   1 H    1.007 --     1 C    0.979
    29   1 H    1.007 --     1 C    0.979
    30   1 H    1.000 --     9 C    0.980
    31   1 H    1.000 --     9 C    0.983
    32   1 H    1.007 --     9 C    0.977
    33   1 H    1.003 --    10 C    0.982
    34   1 H    1.009 --    10 C    0.982
    35   1 H    1.007 --    10 C    0.984
    36   1 H    0.939 --    11 N    0.893
    37   1 H    0.989 --    17 C    0.971
    38   1 H    0.992 --    17 C    0.978
    39   1 H    0.989 --    17 C    0.967
    40   1 H    0.985 --    19 C    0.956
    41   1 H    0.988 --    19 C    0.972
    42   1 H    0.984 --    19 C    0.932
    43   1 H    1.004 --    22 C    0.974
    44   1 H    1.007 --    22 C    0.979
    45   1 H    1.000 --    22 C    0.974
    46   1 H    0.845 --    26 O    0.805
 ---------------------------------------------------------------------------

           -------------------------------------------------
          | TOTAL ENERGY              -86.361218922623 Eh   |
          | GRADIENT NORM               0.000817451195 Eh/α |
          | HOMO-LUMO GAP               2.007814660910 eV   |
           -------------------------------------------------

 * finished run on 2023/06/20 at 15:42:14.360
