   * xtb version 6.5.1 (579679a) compiled by 'ehlert@majestix' on 2022-07-11
          program call               : /lustre/hpc/kemi/ree/PhD/git/ReactivityQM/dep/xtb-6.5.1/bin/xtb --gfn 1 /lustre/hpc/kemi/ree/PhD/git/ReactivityQM/calculations/R02oxygendeprot/reac01prodN01/conf13/R02oxygendeprot_reac01prodN01_conf13_gfn1.xyz --opt --vfukui --chrg 0 --uhf 0 --alpb DMSO

   ID    Z sym.   atoms
    1    6 C      1, 3, 5, 7-10, 12, 14, 17, 18, 20, 22, 24
    2    8 O      2, 4, 13, 19, 23, 25
    3    7 N      6, 11, 15, 16, 21
    4    1 H      26-42

      * Solvation model:               ALPB
        Solvent                        DMSO
        Solvent mass                       7.8130E+01 g/mol
          :  Hamiltonian                  GFN1-xTB          :
 * total energy  :   -82.8792933 Eh     change       -0.1959677E-10 Eh
 * total energy  :   -82.8957740 Eh     change       -0.1648072E-01 Eh
 * total energy  :   -82.9041547 Eh     change       -0.8380716E-02 Eh
 * total energy  :   -82.9070249 Eh     change       -0.2870161E-02 Eh
 * total energy  :   -82.9090182 Eh     change       -0.1993344E-02 Eh
 * total energy  :   -82.9100211 Eh     change       -0.1002910E-02 Eh
 * total energy  :   -82.9106594 Eh     change       -0.6382587E-03 Eh
 * total energy  :   -82.9110977 Eh     change       -0.4383034E-03 Eh
 * total energy  :   -82.9113532 Eh     change       -0.2555057E-03 Eh
 * total energy  :   -82.9114950 Eh     change       -0.1417802E-03 Eh
 * total energy  :   -82.9127740 Eh     change       -0.4921211E-04 Eh
 * total energy  :   -82.9128120 Eh     change       -0.3805782E-04 Eh
 * total energy  :   -82.9128424 Eh     change       -0.3034850E-04 Eh
 * total energy  :   -82.9128742 Eh     change       -0.3185441E-04 Eh
 * total energy  :   -82.9129102 Eh     change       -0.3595457E-04 Eh
 * total energy  :   -82.9129350 Eh     change       -0.2483945E-04 Eh
 * total energy  :   -82.9129451 Eh     change       -0.1009082E-04 Eh
 * total energy  :   -82.9129511 Eh     change       -0.6002792E-05 Eh
 * total energy  :   -82.9129541 Eh     change       -0.2999778E-05 Eh
   *** GEOMETRY OPTIMIZATION CONVERGED AFTER 54 ITERATIONS ***

 final structure:
================
42
 xtb: 6.5.1 (579679a)
C            6.08383422645734        1.33728113054467       -1.04948288819513
O            4.85413153397806        0.70986091024167       -0.70829663733692
C            4.77249116492030        0.22189572348187        0.56602138987935
O            5.71669807797316        0.33064221040928        1.33069620849441
C            3.48330718817567       -0.39365736588331        0.84346749016226
N            2.58271908916647       -0.37443015229662       -0.20180765559027
C            1.41664086399451       -0.88987885843276       -0.07343620622637
C            0.44810804310703       -0.85005389592325       -1.24189217002885
C           -0.07364889546294       -2.24108848930661       -1.61045489821630
C            1.13578594314091       -0.21091550157874       -2.44936143462260
N           -0.67883893056278        0.04779212672357       -0.88467977955003
C           -1.71025583708201       -0.26635880645610       -0.10486378570238
O           -1.92159398255573       -1.32054417624153        0.47308274881427
C           -2.65663842877972        0.88338878330545        0.02971929716593
N           -2.52685199138581        2.09574077796889       -0.36043324765743
N           -3.64047851416468        2.79991519497084        0.00769118266165
C           -4.44458709763479        2.01790253601645        0.61933524164653
C           -5.76919235328350        2.30342686587478        1.19158516619083
O           -3.88067894369467        0.73683651702820        0.68604108191671
C           -4.41443373733260       -0.48867139029203        1.28195895549080
N            1.00032528668507       -1.47036522082670        1.10548499935889
C            1.77851978066537       -1.53775478082027        2.23494175156666
O            1.32727937820030       -2.04406708256462        3.25774708829987
C            3.17280748261187       -0.96023922961686        2.11011817571863
O            3.92932476251480       -1.00944379953058        3.09336618685135
H            6.27864751464167        2.19024247146625       -0.39129251437019
H            5.98968965330648        1.68043264969728       -2.07875562924462
H            6.91563616400812        0.62985000667915       -0.96949071721544
H           -0.84132540735810       -2.15535135538815       -2.37697028277019
H           -0.49493725747447       -2.75483520203794       -0.75020471777787
H            0.75201905572976       -2.83451657414659       -2.00149654762900
H            1.97763328555915       -0.83035711925293       -2.75566275634737
H            1.51182861812277        0.77807887354151       -2.18978766778968
H            0.43468340447551       -0.12548392988035       -3.27682077329980
H           -0.66486331941890        0.96975072445310       -1.29356494960276
H           -6.53166841197175        1.69123748599723        0.70912112921043
H           -5.78179705779800        2.08565751707819        2.25984156970204
H           -5.99651393239308        3.35589116914183        1.03159314543069
H           -3.76581186241736       -0.75932704675297        2.11257552803693
H           -5.42228993188218       -0.26049664625624        1.61226632181076
H           -4.40876852229512       -1.25245521157436        0.50830707945280
H            0.06306089753847       -1.83552883954637        1.17518252128880

          :  Hamiltonian                  GFN1-xTB          :
         :: total energy             -82.912954104636 Eh    ::
         :: gradient norm              0.000623736061 Eh/a0 ::
         :: HOMO-LUMO gap              0.328658281610 eV    ::
         :: SCC energy               -83.695877592700 Eh    ::
         :: -> Gsolv                  -0.130186691384 Eh    ::
         :: repulsion energy           0.808950446686 Eh    ::

    * Orbital Energies and Occupations

         #    Occupation            Energy/Eh            Energy/eV
      -------------------------------------------------------------
         1        2.0000           -0.9637757             -26.2257
       ...           ...                  ...                  ...
        55        2.0000           -0.5084110             -13.8346
        56        2.0000           -0.5022706             -13.6675
        57        2.0000           -0.4987828             -13.5726
        58        2.0000           -0.4903609             -13.3434
        59        2.0000           -0.4841936             -13.1756
        60        2.0000           -0.4723931             -12.8545
        61        2.0000           -0.4689025             -12.7595
        62        2.0000           -0.4608112             -12.5393
        63        2.0000           -0.4452039             -12.1146
        64        2.0000           -0.4420604             -12.0291
        65        2.0000           -0.4234012             -11.5213
        66        2.0000           -0.3829946             -10.4218
        67        1.9965           -0.3720341             -10.1236 (HOMO)
        68        0.0035           -0.3599561              -9.7949 (LUMO)
        69                         -0.3102064              -8.4411
        70                         -0.2747318              -7.4758
        71                         -0.2489352              -6.7739
        72                         -0.2392586              -6.5106
        73                         -0.2010578              -5.4711
        74                         -0.1868576              -5.0847
        75                         -0.1733649              -4.7175
        76                         -0.1323053              -3.6002
        77                         -0.1255574              -3.4166
        78                         -0.1244007              -3.3851
       ...                                ...                  ...
       134                          0.7648340              20.8122
      -------------------------------------------------------------
                  HL-Gap            0.0120780 Eh            0.3287 eV

Wiberg/Mayer (AO) data.
largest (>0.10) Wiberg bond orders for each atom

     #   Z sym  total        # sym  WBO       # sym  WBO       # sym  WBO
 ---------------------------------------------------------------------------
     1   6 C    3.897 --    27 H    0.987    26 H    0.981    28 H    0.980
                             2 O    0.924
     2   8 O    2.139 --     3 C    1.030     1 C    0.924     4 O    0.110
     3   6 C    3.849 --     4 O    1.599     5 C    1.110     2 O    1.030
     4   8 O    1.871 --     3 C    1.599     2 O    0.110
     5   6 C    3.904 --    24 C    1.258     6 N    1.163     3 C    1.110
                            25 O    0.125
     6   7 N    3.032 --     7 C    1.622     5 C    1.163
     7   6 C    3.933 --     6 N    1.622    21 N    1.102     8 C    0.965
     8   6 C    3.911 --    10 C    1.002     9 C    0.992     7 C    0.965
                            11 N    0.885
     9   6 C    3.988 --     8 C    0.992    29 H    0.984    31 H    0.983
                            30 H    0.978
    10   6 C    3.991 --     8 C    1.002    34 H    0.986    33 H    0.982
                            32 H    0.981
    11   7 N    3.398 --    12 C    1.322    35 H    0.892     8 C    0.885
                            13 O    0.195
    12   6 C    3.927 --    13 O    1.554    11 N    1.322    14 C    0.972
    13   8 O    1.930 --    12 C    1.554    11 N    0.195
    14   6 C    3.788 --    15 N    1.694    12 C    0.972    19 O    0.883
    15   7 N    3.030 --    14 C    1.694    16 N    1.145
    16   7 N    3.024 --    17 C    1.698    15 N    1.145
    17   6 C    3.798 --    16 N    1.698    18 C    1.043    19 O    0.875
    18   6 C    3.970 --    17 C    1.043    38 H    0.970    37 H    0.952
                            36 H    0.950
    19   8 O    2.650 --    14 C    0.883    17 C    0.875    20 C    0.748
    20   6 C    3.725 --    40 H    0.975    41 H    0.968    39 H    0.967
                            19 O    0.748
    21   7 N    3.427 --    22 C    1.159     7 C    1.102    42 H    0.884
                            23 O    0.135
    22   6 C    3.877 --    23 O    1.586    21 N    1.159    24 C    0.964
    23   8 O    1.862 --    22 C    1.586    21 N    0.135
    24   6 C    3.938 --    25 O    1.535     5 C    1.258    22 C    0.964
    25   8 O    1.831 --    24 C    1.535     5 C    0.125
    26   1 H    1.013 --     1 C    0.981
    27   1 H    1.016 --     1 C    0.987
    28   1 H    1.013 --     1 C    0.980
    29   1 H    0.999 --     9 C    0.984
    30   1 H    1.008 --     9 C    0.978
    31   1 H    1.001 --     9 C    0.983
    32   1 H    1.008 --    10 C    0.981
    33   1 H    1.011 --    10 C    0.982
    34   1 H    0.999 --    10 C    0.986
    35   1 H    0.940 --    11 N    0.892
    36   1 H    0.988 --    18 C    0.950
    37   1 H    0.988 --    18 C    0.952
    38   1 H    0.989 --    18 C    0.970
    39   1 H    1.000 --    20 C    0.967
    40   1 H    0.991 --    20 C    0.975
    41   1 H    0.999 --    20 C    0.968
    42   1 H    0.949 --    21 N    0.884
 ---------------------------------------------------------------------------

           -------------------------------------------------
          | TOTAL ENERGY              -82.912954104636 Eh   |
          | GRADIENT NORM               0.000623736061 Eh/α |
          | HOMO-LUMO GAP               0.328658281610 eV   |
           -------------------------------------------------

 * finished run on 2023/06/21 at 17:17:10.063
