   * xtb version 6.5.1 (579679a) compiled by 'ehlert@majestix' on 2022-07-11
          program call               : /lustre/hpc/kemi/ree/PhD/git/ReactivityQM/dep/xtb-6.5.1/bin/xtb --gfn 1 /lustre/hpc/kemi/ree/PhD/git/ReactivityQM/calculations/R02methylcation/reac02/conf01/R02methylcation_reac02_conf01_gfn1.xyz --opt --vfukui --chrg 1 --uhf 0 --alpb DMSO

   ID    Z sym.   atoms
    1    6 C      1

      * Solvation model:               ALPB
        Solvent                        DMSO
        Solvent mass                       7.8130E+01 g/mol
          :  Hamiltonian                  GFN1-xTB          :

 final structure:
================
1
 xtb: 6.5.1 (579679a)
C            0.00000000000000        0.00000000000000        0.00000000000000

          :  Hamiltonian                  GFN1-xTB          :
         :: total energy              -1.209705319046 Eh    ::
         :: gradient norm              0.000000000000 Eh/a0 ::
         :: HOMO-LUMO gap              0.000000000000 eV    ::
         :: SCC energy                -1.209705319046 Eh    ::
         :: -> Gsolv                  -0.103631034039 Eh    ::
         :: repulsion energy           0.000000000000 Eh    ::

    * Orbital Energies and Occupations

         #    Occupation            Energy/Eh            Energy/eV
      -------------------------------------------------------------
         1        2.0000           -0.8698712             -23.6704
         2        0.3333           -0.7289483             -19.8357 (HOMO)
         3        0.3333           -0.7289483             -19.8357 (LUMO)
         4        0.3333           -0.7289483             -19.8357
      -------------------------------------------------------------
                  HL-Gap            0.0000000 Eh            0.0000 eV

Wiberg/Mayer (AO) data.
largest (>0.10) Wiberg bond orders for each atom

     #   Z sym  total        # sym  WBO       # sym  WBO       # sym  WBO
 ---------------------------------------------------------------------------
     1   6 C    0.000
 ---------------------------------------------------------------------------

           -------------------------------------------------
          | TOTAL ENERGY               -1.209705319046 Eh   |
          | GRADIENT NORM               0.000000000000 Eh/α |
          | HOMO-LUMO GAP               0.000000000000 eV   |
           -------------------------------------------------

 * finished run on 2023/06/21 at 17:03:33.228
