   * xtb version 6.5.1 (579679a) compiled by 'ehlert@majestix' on 2022-07-11
          program call               : /lustre/hpc/kemi/ree/PhD/git/ReactivityQM/dep/xtb-6.5.1/bin/xtb --gfn 1 /lustre/hpc/kemi/ree/PhD/git/ReactivityQM/calculations/R02deprot/reac01prodN04/conf20/R02deprot_reac01prodN04_conf20_gfn1.xyz --opt --vfukui --chrg 0 --uhf 0 --alpb DMSO

   ID    Z sym.   atoms
    1    6 C      1, 3, 5, 6, 8-11, 13, 15, 18, 19, 22, 24
    2    8 O      2, 4, 14, 20, 23, 25
    3    7 N      7, 12, 16, 17, 21
    4    1 H      26-42

      * Solvation model:               ALPB
        Solvent                        DMSO
        Solvent mass                       7.8130E+01 g/mol
          :  Hamiltonian                  GFN1-xTB          :
 * total energy  :   -82.9414047 Eh     change       -0.1561773E-10 Eh
 * total energy  :   -82.9608132 Eh     change       -0.1940848E-01 Eh
 * total energy  :   -82.9674880 Eh     change       -0.6674829E-02 Eh
 * total energy  :   -82.9692155 Eh     change       -0.1727415E-02 Eh
 * total energy  :   -82.9703031 Eh     change       -0.1087597E-02 Eh
 * total energy  :   -82.9709482 Eh     change       -0.6451324E-03 Eh
 * total energy  :   -82.9715711 Eh     change       -0.6228741E-03 Eh
 * total energy  :   -82.9720782 Eh     change       -0.5071367E-03 Eh
 * total energy  :   -82.9723447 Eh     change       -0.2665308E-03 Eh
 * total energy  :   -82.9724976 Eh     change       -0.1528268E-03 Eh
 * total energy  :   -82.9740307 Eh     change       -0.2600903E-04 Eh
 * total energy  :   -82.9740591 Eh     change       -0.2840616E-04 Eh
 * total energy  :   -82.9740763 Eh     change       -0.1724664E-04 Eh
 * total energy  :   -82.9741127 Eh     change       -0.3634392E-04 Eh
 * total energy  :   -82.9741331 Eh     change       -0.2048873E-04 Eh
 * total energy  :   -82.9741492 Eh     change       -0.1601462E-04 Eh
 * total energy  :   -82.9741542 Eh     change       -0.5006508E-05 Eh
 * total energy  :   -82.9741609 Eh     change       -0.6767360E-05 Eh
 * total energy  :   -82.9741654 Eh     change       -0.4461138E-05 Eh
   *** GEOMETRY OPTIMIZATION CONVERGED AFTER 41 ITERATIONS ***

 final structure:
================
42
 xtb: 6.5.1 (579679a)
C           -0.65204349877511        1.97752560799089       -0.73589758299293
O           -1.87814591299559        1.52828339702316       -1.32674356794519
C           -2.55530870744431        0.47634622020993       -0.96739198155198
O           -3.67724851833131        0.29741904166045       -1.59689312425554
C           -4.09617622560087        1.24258675779146       -2.59021496648958
C           -2.17932233269758       -0.47141232357993        0.03220699130489
N           -0.95844993067483       -0.30130766339213        0.63575201556660
C           -0.59365507432263       -1.17726792561703        1.54853482340100
C            0.76288418952394       -0.91350370481602        2.19177942319534
C            0.60819114168156        0.25269887630561        3.17263491480331
C            1.30713455261636       -2.15471417551358        2.90028867561287
N            1.69147759615621       -0.47608398483180        1.14062054160417
C            1.92512579793642       -1.20665558520214        0.03528417260482
O            1.55670848278592       -2.35563449726913       -0.14829906787439
C            2.71881531486723       -0.46850147906418       -0.98560424345605
N            3.26523577929234       -0.94378188676842       -2.05982996378236
N            3.86972312766685        0.10405460637077       -2.69185780248210
C            3.64939080429497        1.15433647023286       -1.96696032933477
C            4.08787108562546        2.54282605713939       -2.22623291223448
O            2.92408293756720        0.86352579428498       -0.87231679645766
N           -1.28657196606274       -2.22021231254625        1.99621361329617
C           -2.50320526918396       -2.46481774711987        1.46821284277824
O           -3.25679090300749       -3.39554458351082        1.78709429856094
C           -2.97162650309090       -1.54323965345042        0.41327424402827
O           -4.16626918532821       -1.82615071169715       -0.09029947725833
H           -0.78358643333204        2.13024362102067        0.33509337806078
H           -0.41923586445213        2.91894342142085       -1.23168119113461
H            0.14374254211447        1.25024692842596       -0.90218287488429
H           -3.36878282385001        1.27399539919729       -3.40274672150746
H           -4.18777992760595        2.23305729881469       -2.14248845783495
H           -5.06100163009496        0.89264912411413       -2.95041733875777
H            0.22025450554181        1.12494493651526        2.64826271557360
H           -0.08997907813303       -0.02027303719053        3.96275112403509
H            1.56861136803624        0.50385349311401        3.61930723802568
H            2.28045963456986       -1.93667243335158        3.33590082079806
H            1.40361001139925       -2.98193331512477        2.19808957650272
H            0.61653231030024       -2.44652217355780        3.69051192247574
H            1.99681874218011        0.48085471935432        1.15822000000696
H            3.22398258210474        3.17023833416784       -2.44504841396140
H            4.58188878252796        2.94804079476227       -1.34465267354756
H            4.76922708606230        2.56024930858524       -3.07335098749307
H           -4.48659158985823       -2.62269401489013        0.39759314299748

          :  Hamiltonian                  GFN1-xTB          :
         :: total energy             -82.974165389444 Eh    ::
         :: gradient norm              0.000712160899 Eh/a0 ::
         :: HOMO-LUMO gap              1.571672667413 eV    ::
         :: SCC energy               -83.743155279504 Eh    ::
         :: -> Gsolv                  -0.069786362093 Eh    ::
         :: repulsion energy           0.796269231373 Eh    ::

    * Orbital Energies and Occupations

         #    Occupation            Energy/Eh            Energy/eV
      -------------------------------------------------------------
         1        2.0000           -0.8837183             -24.0472
       ...           ...                  ...                  ...
        55        2.0000           -0.5031571             -13.6916
        56        2.0000           -0.4940244             -13.4431
        57        2.0000           -0.4875982             -13.2682
        58        2.0000           -0.4778624             -13.0033
        59        2.0000           -0.4661331             -12.6841
        60        2.0000           -0.4626941             -12.5905
        61        2.0000           -0.4568245             -12.4308
        62        2.0000           -0.4551272             -12.3846
        63        2.0000           -0.4473431             -12.1728
        64        2.0000           -0.4433503             -12.0642
        65        2.0000           -0.4296846             -11.6923
        66        2.0000           -0.4024312             -10.9507
        67        2.0000           -0.4012578             -10.9188 (HOMO)
        68                         -0.3434999              -9.3471 (LUMO)
        69                         -0.3055056              -8.3132
        70                         -0.2577010              -7.0124
        71                         -0.2553497              -6.9484
        72                         -0.2349068              -6.3921
        73                         -0.1957450              -5.3265
        74                         -0.1564669              -4.2577
        75                         -0.1476746              -4.0184
        76                         -0.1410128              -3.8372
        77                         -0.1407222              -3.8292
        78                         -0.1230488              -3.3483
       ...                                ...                  ...
       134                          0.7321650              19.9232
      -------------------------------------------------------------
                  HL-Gap            0.0577579 Eh            1.5717 eV

Wiberg/Mayer (AO) data.
largest (>0.10) Wiberg bond orders for each atom

     #   Z sym  total        # sym  WBO       # sym  WBO       # sym  WBO
 ---------------------------------------------------------------------------
     1   6 C    3.832 --    27 H    0.981    26 H    0.973    28 H    0.972
                             2 O    0.863
     2   8 O    2.276 --     3 C    1.206     1 C    0.863
     3   6 C    3.809 --     4 O    1.215     2 O    1.206     6 C    1.180
     4   8 O    2.280 --     3 C    1.215     5 C    0.872
     5   6 C    3.844 --    31 H    0.983    29 H    0.976    30 H    0.976
                             4 O    0.872
     6   6 C    3.955 --    24 C    1.366     3 C    1.180     7 N    1.171
     7   7 N    3.004 --     8 C    1.459     6 C    1.171
     8   6 C    3.950 --     7 N    1.459    21 N    1.361     9 C    0.965
     9   6 C    3.930 --    11 C    0.996    10 C    0.988     8 C    0.965
                            12 N    0.915
    10   6 C    3.992 --     9 C    0.988    34 H    0.984    33 H    0.984
                            32 H    0.983
    11   6 C    3.991 --     9 C    0.996    35 H    0.987    37 H    0.984
                            36 H    0.981
    12   7 N    3.359 --    13 C    1.273     9 C    0.915    38 H    0.898
                            14 O    0.181
    13   6 C    3.921 --    14 O    1.582    12 N    1.273    15 C    0.984
    14   8 O    1.889 --    13 C    1.582    12 N    0.181
    15   6 C    3.869 --    16 N    1.631    20 O    1.044    13 C    0.984
    16   7 N    2.998 --    15 C    1.631    17 N    1.191
    17   7 N    2.982 --    18 C    1.619    16 N    1.191
    18   6 C    3.869 --    17 N    1.619    20 O    1.068    19 C    1.031
    19   6 C    3.987 --    18 C    1.031    41 H    0.982    40 H    0.967
                            39 H    0.961
    20   8 O    2.313 --    18 C    1.068    15 C    1.044
    21   7 N    2.997 --     8 C    1.361    22 C    1.261    23 O    0.132
    22   6 C    3.931 --    23 O    1.499    21 N    1.261    24 C    1.037
    23   8 O    1.847 --    22 C    1.499    21 N    0.132
    24   6 C    3.892 --     6 C    1.366    25 O    1.147    22 C    1.037
    25   8 O    2.120 --    24 C    1.147    42 H    0.788
    26   1 H    1.020 --     1 C    0.973
    27   1 H    1.006 --     1 C    0.981
    28   1 H    1.028 --     1 C    0.972
    29   1 H    1.002 --     5 C    0.976
    30   1 H    1.002 --     5 C    0.976
    31   1 H    1.006 --     5 C    0.983
    32   1 H    1.006 --    10 C    0.983
    33   1 H    1.002 --    10 C    0.984
    34   1 H    0.999 --    10 C    0.984
    35   1 H    1.003 --    11 C    0.987
    36   1 H    1.016 --    11 C    0.981
    37   1 H    1.014 --    11 C    0.984
    38   1 H    0.942 --    12 N    0.898
    39   1 H    0.997 --    19 C    0.961
    40   1 H    0.997 --    19 C    0.967
    41   1 H    0.998 --    19 C    0.982
    42   1 H    0.854 --    25 O    0.788
 ---------------------------------------------------------------------------

           -------------------------------------------------
          | TOTAL ENERGY              -82.974165389444 Eh   |
          | GRADIENT NORM               0.000712160899 Eh/α |
          | HOMO-LUMO GAP               1.571672667413 eV   |
           -------------------------------------------------

 * finished run on 2023/06/20 at 18:09:40.618
