   * xtb version 6.5.1 (579679a) compiled by 'ehlert@majestix' on 2022-07-11
          program call               : /lustre/hpc/kemi/ree/PhD/git/ReactivityQM/dep/xtb-6.5.1/bin/xtb --gfn 1 /lustre/hpc/kemi/ree/PhD/git/ReactivityQM/calculations/RaltegravirCLI/reac02prodE04/conf04/RaltegravirCLI_reac02prodE04_conf04_gfn1.xyz --opt --vfukui --chrg -1 --uhf 0 --alpb DMSO

   ID    Z sym.   atoms
    1    6 C      1, 3, 5, 7-9, 12-16, 18, 19, 21-24
    2    7 N      2, 11, 20, 25
    3    8 O      4, 6, 10
    4    9 F      17
    5    1 H      26-47

      * Solvation model:               ALPB
        Solvent                        DMSO
        Solvent mass                       7.8130E+01 g/mol
          :  Hamiltonian                  GFN1-xTB          :
 * total energy  :   -80.1892009 Eh     change       -0.2160050E-11 Eh
 * total energy  :   -80.2033797 Eh     change       -0.1417876E-01 Eh
 * total energy  :   -80.2068355 Eh     change       -0.3455853E-02 Eh
 * total energy  :   -80.2072970 Eh     change       -0.4614913E-03 Eh
 * total energy  :   -80.2076277 Eh     change       -0.3307206E-03 Eh
 * total energy  :   -80.2077239 Eh     change       -0.9619824E-04 Eh
 * total energy  :   -80.2078227 Eh     change       -0.9874213E-04 Eh
 * total energy  :   -80.2078949 Eh     change       -0.7225244E-04 Eh
 * total energy  :   -80.2079750 Eh     change       -0.8010087E-04 Eh
 * total energy  :   -80.2080575 Eh     change       -0.8249194E-04 Eh
 * total energy  :   -80.2106888 Eh     change       -0.7011702E-05 Eh
 * total energy  :   -80.2106974 Eh     change       -0.8652412E-05 Eh
 * total energy  :   -80.2107094 Eh     change       -0.1194545E-04 Eh
 * total energy  :   -80.2107223 Eh     change       -0.1296223E-04 Eh
 * total energy  :   -80.2107337 Eh     change       -0.1134066E-04 Eh
 * total energy  :   -80.2107430 Eh     change       -0.9341830E-05 Eh
 * total energy  :   -80.2107506 Eh     change       -0.7641318E-05 Eh
 * total energy  :   -80.2107561 Eh     change       -0.5497471E-05 Eh
 * total energy  :   -80.2107606 Eh     change       -0.4426025E-05 Eh
   *** GEOMETRY OPTIMIZATION CONVERGED AFTER 80 ITERATIONS ***

 final structure:
================
47
 xtb: 6.5.1 (579679a)
C           -3.82324263974654       -1.64600100657478       -0.90096503641130
N           -2.70358458405792       -0.71617565942962       -0.94965367676172
C           -1.68945324824574       -0.99399165973089       -1.97098414011300
O           -1.95152475996072       -1.85749569970887       -2.86471737006553
C           -0.57843190354755       -0.22045069844605       -1.88374502233581
O            0.49442775264522       -0.42127830614200       -2.80353770359645
C           -0.27266342266805        0.67243950125274       -0.72219896758287
C            0.49846173557342        1.94118930288460       -1.13603402617385
C            0.57989764763914       -0.13554313374689        0.29139974272431
O            0.22228087601645       -0.40346072351956        1.43419785312572
N            1.75579795541858       -0.58482399690648       -0.21842641528831
C            2.59699582110222       -1.51207600246997        0.51264568116134
C            4.00751280700405       -0.99239241310147        0.68373193719738
C            4.29946628237007        0.36411674589962        0.56844403434015
C            5.59678616393104        0.82734460500794        0.73940814463154
C            6.58810294251369       -0.09120681246865        1.03113151449868
F            7.84886519502260        0.34838211552272        1.19822574032436
C            6.33539549827724       -1.44533690522768        1.15615610688777
C            5.03297523573027       -1.88973423235902        0.97849079434327
N           -1.49982807190330        1.08924384469590       -0.06076285927059
C           -2.57338239036647        0.38468235752461       -0.15667905078505
C           -3.73729959071051        0.88696492422609        0.71143687072805
C           -3.91604636030005       -0.03298707546064        1.92706267633860
C           -3.42191482627489        2.30766674283915        1.21348529537008
N           -4.98643977118644        0.92273293899263       -0.05510844311412
H           -3.73205398055840       -2.31877510352228       -0.04159522818142
H           -3.80834228400198       -2.24916544550251       -1.81290624807721
H           -4.77762254319218       -1.12259321931792       -0.84566365917788
H            0.18870762598227       -1.09792481936542       -3.42680162091025
H            0.72873097730126        2.54167368150884       -0.25601841223871
H           -0.11921598895942        2.53222942740386       -1.81208783179518
H            1.42587314712341        1.68076583979693       -1.64320794500021
H            1.94008951456355       -0.48764300111845       -1.20692832874224
H            2.14438410336925       -1.67000953746491        1.50051292694080
H            2.62332422786326       -2.47887590920525       -0.00433988797614
H            3.50648979083856        1.06697342193539        0.33516470038410
H            5.83707431750381        1.87852650828551        0.64811422997606
H            7.13918981014754       -2.13315264037895        1.38257107902093
H            4.81500261670521       -2.94778653446493        1.06841764366943
H           -4.30329128322450       -1.00653327369590        1.63284763223230
H           -4.61917595243681        0.41271977969871        2.63035026998553
H           -2.95808054356812       -0.17097097074263        2.42980737711271
H           -4.26921246706116        2.69144226502908        1.78041297126217
H           -2.53954673411219        2.30020847211398        1.85329695662189
H           -3.23283931589168        2.97172194383231        0.37066636367570
H           -5.74831069440014        1.13242994485294        0.57335340266107
H           -4.94432668826741        1.67293041676706       -0.73286207161581

          :  Hamiltonian                  GFN1-xTB          :
         :: total energy             -80.210760562612 Eh    ::
         :: gradient norm              0.000393178550 Eh/a0 ::
         :: HOMO-LUMO gap              0.877015158509 eV    ::
         :: SCC energy               -81.072145645668 Eh    ::
         :: -> Gsolv                  -0.110389347722 Eh    ::
         :: repulsion energy           0.892511589591 Eh    ::

    * Orbital Energies and Occupations

         #    Occupation            Energy/Eh            Energy/eV
      -------------------------------------------------------------
         1        2.0000           -0.8593096             -23.3830
       ...           ...                  ...                  ...
        56        2.0000           -0.4618460             -12.5675
        57        2.0000           -0.4539199             -12.3518
        58        2.0000           -0.4465709             -12.1518
        59        2.0000           -0.4449942             -12.1089
        60        2.0000           -0.4386413             -11.9360
        61        2.0000           -0.4299364             -11.6992
        62        2.0000           -0.4170151             -11.3476
        63        2.0000           -0.4109721             -11.1831
        64        2.0000           -0.3942308             -10.7276
        65        2.0000           -0.3756517             -10.2220
        66        2.0000           -0.3723126             -10.1311
        67        2.0000           -0.3605272              -9.8104
        68        2.0000           -0.3007779              -8.1846 (HOMO)
        69                         -0.2685482              -7.3076 (LUMO)
        70                         -0.2591118              -7.0508
        71                         -0.2167188              -5.8972
        72                         -0.2063711              -5.6156
        73                         -0.1389696              -3.7816
        74                         -0.1248036              -3.3961
        75                         -0.1155399              -3.1440
        76                         -0.1112870              -3.0283
        77                         -0.1032689              -2.8101
        78                         -0.1022970              -2.7836
        79                         -0.0969173              -2.6373
       ...                                ...                  ...
       144                          0.6950741              18.9139
      -------------------------------------------------------------
                  HL-Gap            0.0322297 Eh            0.8770 eV

Wiberg/Mayer (AO) data.
largest (>0.10) Wiberg bond orders for each atom

     #   Z sym  total        # sym  WBO       # sym  WBO       # sym  WBO
 ---------------------------------------------------------------------------
     1   6 C    3.959 --    26 H    0.981    28 H    0.976    27 H    0.974
                             2 N    0.958
     2   7 N    3.368 --    21 C    1.198     1 C    0.958     3 C    0.902
                            20 N    0.169
     3   6 C    3.920 --     5 C    1.541     4 O    1.341     2 N    0.902
     4   8 O    1.707 --     3 C    1.341     5 C    0.175
     5   6 C    3.776 --     3 C    1.541     7 C    0.978     6 O    0.927
                             4 O    0.175
     6   8 O    1.928 --     5 C    0.927    29 H    0.855
     7   6 C    3.969 --    20 N    0.979     5 C    0.978     8 C    0.976
                             9 C    0.912
     8   6 C    3.997 --    30 H    0.988    32 H    0.985    31 H    0.985
                             7 C    0.976
     9   6 C    3.868 --    10 O    1.587    11 N    1.230     7 C    0.912
    10   8 O    1.868 --     9 C    1.587    11 N    0.149
    11   7 N    3.312 --     9 C    1.230    12 C    0.960    33 H    0.898
                            10 O    0.149
    12   6 C    3.960 --    13 C    1.001    35 H    0.969    11 N    0.960
                            34 H    0.957
    13   6 C    3.988 --    14 C    1.418    19 C    1.412    12 C    1.001
    14   6 C    3.994 --    15 C    1.441    13 C    1.418    36 H    0.969
                            18 C    0.110
    15   6 C    3.992 --    14 C    1.441    16 C    1.404    37 H    0.970
                            19 C    0.111
    16   6 C    3.859 --    15 C    1.404    18 C    1.399    17 F    0.919
    17   9 F    1.046 --    16 C    0.919
    18   6 C    3.992 --    19 C    1.446    16 C    1.399    38 H    0.970
                            14 C    0.110
    19   6 C    3.994 --    18 C    1.446    13 C    1.412    39 H    0.972
                            15 C    0.111
    20   7 N    2.976 --    21 C    1.645     7 C    0.979     2 N    0.169
    21   6 C    3.947 --    20 N    1.645     2 N    1.198    22 C    0.964
    22   6 C    3.963 --    24 C    0.992    23 C    0.991    25 N    0.975
                            21 C    0.964
    23   6 C    3.996 --    22 C    0.991    42 H    0.986    41 H    0.985
                            40 H    0.982
    24   6 C    3.997 --    22 C    0.992    43 H    0.987    45 H    0.985
                            44 H    0.983
    25   7 N    2.989 --    22 C    0.975    46 H    0.949    47 H    0.947
    26   1 H    1.013 --     1 C    0.981
    27   1 H    1.026 --     1 C    0.974
    28   1 H    1.035 --     1 C    0.976
    29   1 H    0.893 --     6 O    0.855
    30   1 H    1.012 --     8 C    0.988
    31   1 H    1.015 --     8 C    0.985
    32   1 H    1.012 --     8 C    0.985
    33   1 H    0.964 --    11 N    0.898
    34   1 H    1.017 --    12 C    0.957
    35   1 H    1.005 --    12 C    0.969
    36   1 H    1.009 --    14 C    0.969
    37   1 H    0.999 --    15 C    0.970
    38   1 H    0.998 --    18 C    0.970
    39   1 H    1.000 --    19 C    0.972
    40   1 H    1.009 --    23 C    0.982
    41   1 H    1.004 --    23 C    0.985
    42   1 H    1.009 --    23 C    0.986
    43   1 H    1.007 --    24 C    0.987
    44   1 H    1.022 --    24 C    0.983
    45   1 H    1.018 --    24 C    0.985
    46   1 H    0.964 --    25 N    0.949
    47   1 H    0.965 --    25 N    0.947
 ---------------------------------------------------------------------------

           -------------------------------------------------
          | TOTAL ENERGY              -80.210760562612 Eh   |
          | GRADIENT NORM               0.000393178550 Eh/α |
          | HOMO-LUMO GAP               0.877015158509 eV   |
           -------------------------------------------------

 * finished run on 2023/06/20 at 14:59:58.909
