   * xtb version 6.5.1 (579679a) compiled by 'ehlert@majestix' on 2022-07-11
          program call               : /lustre/hpc/kemi/ree/PhD/git/ReactivityQM/dep/xtb-6.5.1/bin/xtb --gfn 1 /lustre/hpc/kemi/ree/PhD/git/ReactivityQM/calculations/R02/reac01prodN13/conf09/R02_reac01prodN13_conf09_gfn1.xyz --opt --vfukui --chrg 1 --uhf 0 --alpb DMSO

   ID    Z sym.   atoms
    1    6 C      1, 3, 5, 7-10, 12, 14, 17-19, 22, 24
    2    8 O      2, 4, 13, 20, 23, 25
    3    7 N      6, 11, 15, 16, 21
    4    1 H      26-43

      * Solvation model:               ALPB
        Solvent                        DMSO
        Solvent mass                       7.8130E+01 g/mol
          :  Hamiltonian                  GFN1-xTB          :
 * total energy  :   -83.0988267 Eh     change       -0.3508262E-08 Eh
 * total energy  :   -83.1129632 Eh     change       -0.1413644E-01 Eh
 * total energy  :   -83.1182450 Eh     change       -0.5281850E-02 Eh
 * total energy  :   -83.1190131 Eh     change       -0.7680829E-03 Eh
 * total energy  :   -83.1194365 Eh     change       -0.4233794E-03 Eh
 * total energy  :   -83.1195612 Eh     change       -0.1246942E-03 Eh
 * total energy  :   -83.1197078 Eh     change       -0.1466237E-03 Eh
 * total energy  :   -83.1198262 Eh     change       -0.1184192E-03 Eh
 * total energy  :   -83.1199262 Eh     change       -0.1000374E-03 Eh
 * total energy  :   -83.1199903 Eh     change       -0.6402304E-04 Eh
 * total energy  :   -83.1201109 Eh     change       -0.1856544E-04 Eh
 * total energy  :   -83.1201376 Eh     change       -0.2670973E-04 Eh
 * total energy  :   -83.1201519 Eh     change       -0.1425345E-04 Eh
 * total energy  :   -83.1201605 Eh     change       -0.8654988E-05 Eh
 * total energy  :   -83.1201708 Eh     change       -0.1025239E-04 Eh
 * total energy  :   -83.1201772 Eh     change       -0.6390398E-05 Eh
 * total energy  :   -83.1201843 Eh     change       -0.7105062E-05 Eh
 * total energy  :   -83.1201897 Eh     change       -0.5441509E-05 Eh
 * total energy  :   -83.1201923 Eh     change       -0.2546603E-05 Eh
   *** GEOMETRY OPTIMIZATION CONVERGED AFTER 22 ITERATIONS ***

 final structure:
================
43
 xtb: 6.5.1 (579679a)
C            6.70471490987249        0.29320887415179        1.70485116359742
O            5.49542521198738        0.77311128825405        1.10429966391693
C            4.57615099584946       -0.13646317896444        0.80999099108226
O            4.71376530765542       -1.32019409657707        1.00970612922143
C            3.33810084341598        0.44945612369437        0.20107731106085
N            2.39110317558039       -0.48657922746328       -0.11568404246393
C            1.26635817501345       -0.12814165195073       -0.63668006019576
C            0.26167107842282       -1.18343517750235       -1.03639259773874
C            0.54807644421574       -2.49932834317916       -0.30655746108287
C            0.33541085143219       -1.35575691131851       -2.56217487469049
N           -1.07602946849854       -0.70168922051997       -0.65277252599229
C           -2.20041135490107       -1.36598282321854       -0.96312752532891
O           -2.30558661277416       -2.38225926447064       -1.61162229168207
C           -3.42262807236654       -0.69395780808177       -0.38762667804924
N           -4.70112237527692       -1.15602975432731       -0.54477598158782
N           -5.47140945296631       -0.37509728665503        0.08108592332858
C           -4.72462092771642        0.66531156731229        0.70042619256304
C           -5.11923775649257        2.03471857720153        0.13440829194923
C           -4.86168743864000        0.60129183656980        2.22686047931245
O           -3.37704064550882        0.36299653625602        0.32826496256895
N            0.97215028537638        1.17459478720288       -0.91431268830936
C            1.83935964289148        2.20975479719663       -0.63800266891881
O            1.57342299635254        3.37387608896350       -0.87620019679232
C            3.10608662560964        1.78206853795913       -0.03854327282329
O            3.96796092007358        2.75482789186946        0.23724322518469
H            7.33725856955380        1.16390120261858        1.86509402687275
H            7.19612533842158       -0.41907849059388        1.03794949721283
H            6.47907075717982       -0.19489023353032        2.65578925393189
H            0.46817207080132       -2.34896674955514        0.76843109855160
H           -0.16304662433144       -3.26114589651517       -0.61893209628576
H            1.55886034173941       -2.82647776735051       -0.54600832158790
H            1.36425110771902       -1.57442506465906       -2.84499256149339
H            0.01700630808114       -0.43836183583961       -3.05260396260671
H           -0.30436635499301       -2.17505986444373       -2.88306396684529
H           -1.14624637470446        0.10086685456662       -0.05037227634648
H           -4.99354382104860        2.02628550032026       -0.94592153075248
H           -6.15810902936008        2.23263779243407        0.38744737431098
H           -4.47588973618989        2.79191656877245        0.57527549775781
H           -4.55688005044131       -0.38387898331727        2.57338780633298
H           -4.22195846022743        1.36198507261844        2.66749887340350
H           -5.89997828980638        0.78553564687216        2.49239546596542
H            0.08845432343539        1.42656412420825       -1.32552321080226
H            3.58083556556376        3.61524696099206       -0.00959043574869

          :  Hamiltonian                  GFN1-xTB          :
         :: total energy             -83.120192285370 Eh    ::
         :: gradient norm              0.000316020067 Eh/a0 ::
         :: HOMO-LUMO gap              0.144885721086 eV    ::
         :: SCC energy               -83.909585527652 Eh    ::
         :: -> Gsolv                  -0.125779537621 Eh    ::
         :: repulsion energy           0.815224880950 Eh    ::

    * Orbital Energies and Occupations

         #    Occupation            Energy/Eh            Energy/eV
      -------------------------------------------------------------
         1        2.0000           -0.9362861             -25.4776
       ...           ...                  ...                  ...
        55        2.0000           -0.5325871             -14.4924
        56        2.0000           -0.5278504             -14.3635
        57        2.0000           -0.5206859             -14.1686
        58        2.0000           -0.5199718             -14.1492
        59        2.0000           -0.5138432             -13.9824
        60        2.0000           -0.5074085             -13.8073
        61        2.0000           -0.5023760             -13.6703
        62        2.0000           -0.5009448             -13.6314
        63        2.0000           -0.4982567             -13.5583
        64        2.0000           -0.4917814             -13.3821
        65        2.0000           -0.4775189             -12.9940
        66        2.0000           -0.4666420             -12.6980
        67        1.8856           -0.4483925             -12.2014 (HOMO)
        68        0.1144           -0.4430680             -12.0565 (LUMO)
        69                         -0.3589738              -9.7682
        70                         -0.3394513              -9.2369
        71                         -0.3038344              -8.2678
        72                         -0.2590091              -7.0480
        73                         -0.2535580              -6.8997
        74                         -0.1754431              -4.7740
        75                         -0.1615556              -4.3962
        76                         -0.1558899              -4.2420
        77                         -0.1481755              -4.0321
        78                         -0.1413959              -3.8476
       ...                                ...                  ...
       136                          0.7254587              19.7407
      -------------------------------------------------------------
                  HL-Gap            0.0053245 Eh            0.1449 eV

Wiberg/Mayer (AO) data.
largest (>0.10) Wiberg bond orders for each atom

     #   Z sym  total        # sym  WBO       # sym  WBO       # sym  WBO
 ---------------------------------------------------------------------------
     1   6 C    3.865 --    26 H    0.986    27 H    0.979    28 H    0.979
                             2 O    0.891
     2   8 O    2.211 --     3 C    1.128     1 C    0.891     4 O    0.139
     3   6 C    3.855 --     4 O    1.664     2 O    1.128     5 C    0.987
     4   8 O    1.925 --     3 C    1.664     2 O    0.139
     5   6 C    3.925 --    24 C    1.467     6 N    1.200     3 C    0.987
     6   7 N    3.003 --     7 C    1.567     5 C    1.200
     7   6 C    3.905 --     6 N    1.567    21 N    1.177     8 C    0.985
     8   6 C    3.910 --     7 C    0.985     9 C    0.981    10 C    0.966
                            11 N    0.908
     9   6 C    3.979 --    29 H    0.984    30 H    0.982     8 C    0.981
                            31 H    0.980
    10   6 C    3.976 --    33 H    0.984    32 H    0.982    34 H    0.976
                             8 C    0.966
    11   7 N    3.402 --    12 C    1.281     8 C    0.908    35 H    0.883
                            13 O    0.212
    12   6 C    3.924 --    13 O    1.616    11 N    1.281    14 C    0.947
    13   8 O    1.948 --    12 C    1.616    11 N    0.212
    14   6 C    3.737 --    20 O    1.319    15 N    1.218    12 C    0.947
    15   7 N    3.013 --    16 N    1.656    14 C    1.218
    16   7 N    2.916 --    15 N    1.656    17 C    1.057
    17   6 C    3.815 --    16 N    1.057    18 C    0.904    19 C    0.904
                            20 O    0.858
    18   6 C    3.941 --    36 H    0.979    37 H    0.977    38 H    0.976
                            17 C    0.904
    19   6 C    3.942 --    39 H    0.979    41 H    0.977    40 H    0.976
                            17 C    0.904
    20   8 O    2.360 --    14 C    1.319    17 C    0.858
    21   7 N    3.457 --     7 C    1.177    22 C    1.122    42 H    0.877
                            23 O    0.127
    22   6 C    3.898 --    23 O    1.602    21 N    1.122    24 C    1.050
    23   8 O    1.899 --    22 C    1.602    21 N    0.127
    24   6 C    3.870 --     5 C    1.467    25 O    1.136    22 C    1.050
    25   8 O    2.089 --    24 C    1.136    43 H    0.797
    26   1 H    1.010 --     1 C    0.986
    27   1 H    1.006 --     1 C    0.979
    28   1 H    1.006 --     1 C    0.979
    29   1 H    1.001 --     9 C    0.984
    30   1 H    1.002 --     9 C    0.982
    31   1 H    1.006 --     9 C    0.980
    32   1 H    0.998 --    10 C    0.982
    33   1 H    0.998 --    10 C    0.984
    34   1 H    1.004 --    10 C    0.976
    35   1 H    0.922 --    11 N    0.883
    36   1 H    0.991 --    18 C    0.979
    37   1 H    0.991 --    18 C    0.977
    38   1 H    0.991 --    18 C    0.976
    39   1 H    0.991 --    19 C    0.979
    40   1 H    0.991 --    19 C    0.976
    41   1 H    0.991 --    19 C    0.977
    42   1 H    0.918 --    21 N    0.877
    43   1 H    0.835 --    25 O    0.797
 ---------------------------------------------------------------------------

           -------------------------------------------------
          | TOTAL ENERGY              -83.120192285370 Eh   |
          | GRADIENT NORM               0.000316020067 Eh/α |
          | HOMO-LUMO GAP               0.144885721086 eV   |
           -------------------------------------------------

 * finished run on 2023/06/20 at 15:36:00.695
