   * xtb version 6.5.1 (579679a) compiled by 'ehlert@majestix' on 2022-07-11
          program call               : /lustre/hpc/kemi/ree/PhD/git/ReactivityQM/dep/xtb-6.5.1/bin/xtb --gfn 1 /lustre/hpc/kemi/ree/PhD/git/ReactivityQM/calculations/R02/reac01prodE02/conf10/R02_reac01prodE02_conf10_gfn1.xyz --opt --vfukui --chrg -1 --uhf 0 --alpb DMSO

   ID    Z sym.   atoms
    1    6 C      1, 3, 4, 6, 8-11, 13, 15, 18, 19, 22, 24
    2    8 O      2, 5, 14, 20, 23, 25
    3    7 N      7, 12, 16, 17, 21
    4    1 H      26-43

      * Solvation model:               ALPB
        Solvent                        DMSO
        Solvent mass                       7.8130E+01 g/mol
          :  Hamiltonian                  GFN1-xTB          :
 * total energy  :   -83.8472553 Eh     change       -0.1115552E-10 Eh
 * total energy  :   -83.8596329 Eh     change       -0.1237755E-01 Eh
 * total energy  :   -83.8648693 Eh     change       -0.5236403E-02 Eh
 * total energy  :   -83.8663351 Eh     change       -0.1465800E-02 Eh
 * total energy  :   -83.8669855 Eh     change       -0.6504506E-03 Eh
 * total energy  :   -83.8673169 Eh     change       -0.3314131E-03 Eh
 * total energy  :   -83.8675654 Eh     change       -0.2485074E-03 Eh
 * total energy  :   -83.8677357 Eh     change       -0.1702244E-03 Eh
 * total energy  :   -83.8678701 Eh     change       -0.1344483E-03 Eh
 * total energy  :   -83.8680102 Eh     change       -0.1400671E-03 Eh
 * total energy  :   -83.8699251 Eh     change       -0.1240750E-04 Eh
 * total energy  :   -83.8699354 Eh     change       -0.1028523E-04 Eh
 * total energy  :   -83.8699496 Eh     change       -0.1429480E-04 Eh
 * total energy  :   -83.8699698 Eh     change       -0.2016505E-04 Eh
 * total energy  :   -83.8699821 Eh     change       -0.1231875E-04 Eh
 * total energy  :   -83.8699999 Eh     change       -0.1777468E-04 Eh
 * total energy  :   -83.8700052 Eh     change       -0.5277772E-05 Eh
 * total energy  :   -83.8700135 Eh     change       -0.8317540E-05 Eh
 * total energy  :   -83.8700176 Eh     change       -0.4120480E-05 Eh
   *** GEOMETRY OPTIMIZATION CONVERGED AFTER 48 ITERATIONS ***

 final structure:
================
43
 xtb: 6.5.1 (579679a)
C           -4.97147187856189        2.10133493869284        0.31738600348404
O           -3.83085749906685        1.71755013600802       -0.41011410033394
C           -2.64837370022960        1.34240612766720        0.45849432861678
C           -1.49882594423969        2.23198847439125       -0.12999476566979
O           -2.84478050787369        1.46753597480207        1.72751554612170
C           -2.34119678990583       -0.16228439930411        0.05164170201660
N           -1.01247166706768       -0.46741357337315       -0.12749583335377
C           -0.62930234671646       -1.67517577261777       -0.36266908998853
C            0.84442103613964       -1.98333307231454       -0.56324107120305
C            1.08438004400502       -2.48253789955150       -1.99505526616587
C            1.32021065768500       -3.01843591779527        0.46546706368999
N            1.54943017689406       -0.72348289419856       -0.35507022611513
C            2.87819518379221       -0.56491648537691       -0.43491156295537
O            3.69047906455768       -1.43799637266363       -0.69908564435188
C            3.25738280246037        0.84621138934245       -0.14615692282981
N            2.44326440390049        1.81298524014647        0.15021984669968
N            3.20699268997718        2.92502569387307        0.34642687041747
C            4.43860812695195        2.56452109928347        0.15772582194065
C            5.65184950544837        3.40446546556538        0.26485580297210
O            4.53741121350641        1.26379949581753       -0.15560524871804
N           -1.50998907180020       -2.71077421292302       -0.44842475599380
C           -2.86889369232388       -2.53803886355677       -0.26477669328308
O           -3.65046344093630       -3.48796186900013       -0.34208185936047
C           -3.26096295338370       -1.17492760612189        0.00926840979588
O           -4.59744537794421       -0.99508749827373        0.19595058992582
H           -5.27665461034898        1.33319893503570        1.04448946378409
H           -5.78829109933216        2.24473131997272       -0.39852295868407
H           -4.81765323320842        3.04643836937846        0.86312082512087
H           -0.55907912190126        1.98582949758583        0.36196289735425
H           -1.74427880509853        3.27373006022368        0.06993206539928
H           -1.39899214564150        2.08154758663229       -1.20355962440483
H            0.51809014528913       -3.39546695899639       -2.16682159113306
H            0.76726448517669       -1.72667424885583       -2.71223520193409
H            2.14205733908336       -2.69387863538506       -2.14125185316864
H            1.16134216694493       -2.64447162764978        1.47598564404231
H            0.76856487780404       -3.94729473760074        0.33924512787833
H            2.38005716363781       -3.22094202808623        0.32294314273186
H            0.96269471344868        0.08135745692959       -0.13935726524023
H            6.26242506226699        3.29701888809042       -0.63088021675734
H            6.24947086853826        3.08582532189661        1.11907792567864
H            5.36678138703776        4.44599890754029        0.39289528799649
H           -1.19784582133479       -3.64551991739556       -0.65044587448331
H           -5.03354440764161       -1.85688378783376        0.10375426045933

          :  Hamiltonian                  GFN1-xTB          :
         :: total energy             -83.870017623888 Eh    ::
         :: gradient norm              0.000942759295 Eh/a0 ::
         :: HOMO-LUMO gap              1.037884820894 eV    ::
         :: SCC energy               -84.632507057940 Eh    ::
         :: -> Gsolv                  -0.131835227279 Eh    ::
         :: repulsion energy           0.789314840806 Eh    ::

    * Orbital Energies and Occupations

         #    Occupation            Energy/Eh            Energy/eV
      -------------------------------------------------------------
         1        2.0000           -0.8595988             -23.3909
       ...           ...                  ...                  ...
        56        2.0000           -0.4592715             -12.4974
        57        2.0000           -0.4574232             -12.4471
        58        2.0000           -0.4574011             -12.4465
        59        2.0000           -0.4555040             -12.3949
        60        2.0000           -0.4473117             -12.1720
        61        2.0000           -0.4403113             -11.9815
        62        2.0000           -0.4397789             -11.9670
        63        2.0000           -0.4331087             -11.7855
        64        2.0000           -0.4250094             -11.5651
        65        2.0000           -0.4067233             -11.0675
        66        2.0000           -0.3934987             -10.7076
        67        2.0000           -0.3631937              -9.8830
        68        2.0000           -0.3418926              -9.3034 (HOMO)
        69                         -0.3037510              -8.2655 (LUMO)
        70                         -0.2747156              -7.4754
        71                         -0.2530622              -6.8862
        72                         -0.2517912              -6.8516
        73                         -0.1920683              -5.2264
        74                         -0.1421997              -3.8695
        75                         -0.1412490              -3.8436
        76                         -0.1321497              -3.5960
        77                         -0.1193241              -3.2470
        78                         -0.1003317              -2.7302
        79                         -0.0959533              -2.6110
       ...                                ...                  ...
       136                          0.7270715              19.7846
      -------------------------------------------------------------
                  HL-Gap            0.0381416 Eh            1.0379 eV

Wiberg/Mayer (AO) data.
largest (>0.10) Wiberg bond orders for each atom

     #   Z sym  total        # sym  WBO       # sym  WBO       # sym  WBO
 ---------------------------------------------------------------------------
     1   6 C    3.933 --    27 H    0.985    28 H    0.980    26 H    0.977
                             2 O    0.972
     2   8 O    1.940 --     1 C    0.972     3 C    0.788
     3   6 C    3.897 --     5 O    1.244     4 C    0.937     6 C    0.876
                             2 O    0.788
     4   6 C    3.991 --    31 H    0.990    30 H    0.987    29 H    0.985
                             3 C    0.937
     5   8 O    1.546 --     3 C    1.244
     6   6 C    3.910 --    24 C    1.521     7 N    1.182     3 C    0.876
     7   7 N    3.061 --     8 C    1.582     6 C    1.182
     8   6 C    3.937 --     7 N    1.582    21 N    1.173     9 C    0.978
     9   6 C    3.939 --    11 C    0.982    10 C    0.980     8 C    0.978
                            12 N    0.933
    10   6 C    3.990 --    33 H    0.985    32 H    0.984    34 H    0.980
                             9 C    0.980
    11   6 C    3.990 --    35 H    0.985    36 H    0.984     9 C    0.982
                            37 H    0.980
    12   7 N    3.370 --    13 C    1.279     9 C    0.933    38 H    0.873
                            14 O    0.183
    13   6 C    3.921 --    14 O    1.576    12 N    1.279    15 C    0.984
    14   8 O    1.896 --    13 C    1.576    12 N    0.183
    15   6 C    3.873 --    16 N    1.616    20 O    1.062    13 C    0.984
    16   7 N    3.019 --    15 C    1.616    17 N    1.196
    17   7 N    2.981 --    18 C    1.610    16 N    1.196
    18   6 C    3.873 --    17 N    1.610    20 O    1.081    19 C    1.031
    19   6 C    3.987 --    18 C    1.031    41 H    0.982    39 H    0.967
                            40 H    0.961
    20   8 O    2.326 --    18 C    1.081    15 C    1.062
    21   7 N    3.450 --     8 C    1.173    22 C    1.109    42 H    0.892
                            23 O    0.120
    22   6 C    3.905 --    23 O    1.525    24 C    1.121    21 N    1.109
    23   8 O    1.851 --    22 C    1.525    21 N    0.120
    24   6 C    3.913 --     6 C    1.521    22 C    1.121    25 O    1.046
    25   8 O    2.038 --    24 C    1.046    43 H    0.832
    26   1 H    1.038 --     1 C    0.977
    27   1 H    1.024 --     1 C    0.985
    28   1 H    1.027 --     1 C    0.980
    29   1 H    1.028 --     4 C    0.985
    30   1 H    1.019 --     4 C    0.987
    31   1 H    1.015 --     4 C    0.990
    32   1 H    1.001 --    10 C    0.984
    33   1 H    1.003 --    10 C    0.985
    34   1 H    1.008 --    10 C    0.980
    35   1 H    1.002 --    11 C    0.985
    36   1 H    1.001 --    11 C    0.984
    37   1 H    1.009 --    11 C    0.980
    38   1 H    0.976 --    12 N    0.873
    39   1 H    0.997 --    19 C    0.967
    40   1 H    0.997 --    19 C    0.961
    41   1 H    0.999 --    19 C    0.982
    42   1 H    0.939 --    21 N    0.892
    43   1 H    0.871 --    25 O    0.832
 ---------------------------------------------------------------------------

           -------------------------------------------------
          | TOTAL ENERGY              -83.870017623888 Eh   |
          | GRADIENT NORM               0.000942759295 Eh/α |
          | HOMO-LUMO GAP               1.037884820894 eV   |
           -------------------------------------------------

 * finished run on 2023/06/20 at 14:54:17.168
