   * xtb version 6.5.1 (579679a) compiled by 'ehlert@majestix' on 2022-07-11
          program call               : /lustre/hpc/kemi/ree/PhD/git/ReactivityQM/dep/xtb-6.5.1/bin/xtb --gfn 1 /lustre/hpc/kemi/ree/PhD/git/ReactivityQM/calculations/RaltegravirCLI/reac02prodN11/conf06/RaltegravirCLI_reac02prodN11_conf06_gfn1.xyz --opt --vfukui --chrg 1 --uhf 0 --alpb DMSO

   ID    Z sym.   atoms
    1    6 C      1, 3-6, 9, 10, 13-18, 20-22, 24
    2    7 N      2, 7, 8, 12
    3    8 O      11, 23, 25
    4    9 F      19
    5    1 H      26-47

      * Solvation model:               ALPB
        Solvent                        DMSO
        Solvent mass                       7.8130E+01 g/mol
          :  Hamiltonian                  GFN1-xTB          :
 * total energy  :   -79.4549697 Eh     change       -0.7749179E-10 Eh
 * total energy  :   -79.4629304 Eh     change       -0.7960726E-02 Eh
 * total energy  :   -79.4652946 Eh     change       -0.2364194E-02 Eh
 * total energy  :   -79.4660064 Eh     change       -0.7118493E-03 Eh
 * total energy  :   -79.4668407 Eh     change       -0.8342308E-03 Eh
 * total energy  :   -79.4675942 Eh     change       -0.7535923E-03 Eh
 * total energy  :   -79.4684705 Eh     change       -0.8762373E-03 Eh
 * total energy  :   -79.4693150 Eh     change       -0.8444891E-03 Eh
 * total energy  :   -79.4700555 Eh     change       -0.7405184E-03 Eh
 * total energy  :   -79.4706824 Eh     change       -0.6269005E-03 Eh
 * total energy  :   -79.4754266 Eh     change       -0.3042342E-04 Eh
 * total energy  :   -79.4754627 Eh     change       -0.3608709E-04 Eh
 * total energy  :   -79.4754992 Eh     change       -0.3648756E-04 Eh
 * total energy  :   -79.4755222 Eh     change       -0.2294580E-04 Eh
 * total energy  :   -79.4755354 Eh     change       -0.1322444E-04 Eh
 * total energy  :   -79.4755508 Eh     change       -0.1537052E-04 Eh
 * total energy  :   -79.4755617 Eh     change       -0.1094720E-04 Eh
 * total energy  :   -79.4755680 Eh     change       -0.6283045E-05 Eh
 * total energy  :   -79.4755711 Eh     change       -0.3129738E-05 Eh
   *** GEOMETRY OPTIMIZATION CONVERGED AFTER 58 ITERATIONS ***

 final structure:
================
47
 xtb: 6.5.1 (579679a)
C           -4.26682441883351       -1.74209289259533        1.66312178002664
N           -3.12709753252438       -0.98883399430464        1.13224737362538
C           -3.21880842372400       -0.00461773090648        0.18298496891076
C           -4.54678725281514        0.39673773126356       -0.44899168881534
C           -4.34371866558769        1.67341561189103       -1.28392362290916
C           -5.05032766659394       -0.73182323153975       -1.35879847833790
N           -5.53408184036582        0.66054800032113        0.58747974843031
N           -2.16797334817575        0.61225732886692       -0.26393347983324
C           -0.92041648700254        0.33131636754637        0.20620842802982
C            0.19394313586832        1.10087685701873       -0.42899824686641
O            0.13221962568746        1.55631615873121       -1.55801635024060
N            1.29357923187567        1.25385486805829        0.35508928053870
C            2.48220871402848        1.87559031730788       -0.17463777751316
C            3.62404526619750        0.93052411839531       -0.29541115348018
C            4.89031863950393        1.43634107132660       -0.68726408960021
C            5.96298003686555        0.61343247710557       -0.80997845623299
C            5.88020155454785       -0.79034594265833       -0.35042425505038
C            6.50226447428127       -0.81112166577565        1.08307002210872
F            6.66187950534698       -1.61928773778442       -1.10650831212098
C            4.50521786451504       -1.31408824103755       -0.20567920776022
C            3.45518471314677       -0.45932276740526       -0.08953516687569
C           -0.75763016305617       -0.64506632436548        1.14399804138137
O            0.44096182960535       -1.02016324510174        1.64075044401992
C           -1.90256119087874       -1.37642602670080        1.64751332887810
O           -1.78929991060324       -2.27465573444534        2.47647986766209
H           -4.35870607900327       -2.68523377269231        1.12405488226870
H           -4.07305994750888       -1.94883768889590        2.71571762410642
H           -5.17598586329891       -1.15578228491282        1.56154142442786
H           -5.29933581822875        1.98792885868692       -1.69929901757364
H           -3.64301275441688        1.48303538308436       -2.09571778382295
H           -3.94795059423759        2.47045232409417       -0.65708200395865
H           -4.28843558800916       -0.98068144863547       -2.09664971891302
H           -5.28624847924018       -1.62280327711310       -0.78118189632077
H           -5.95095852468299       -0.40647918268094       -1.87781158642844
H           -6.44549918169911        0.81317461457345        0.18287023914916
H           -5.27290770242113        1.45815733110306        1.14755651036770
H            1.33252725683260        0.88114321359757        1.28743089657596
H            2.78142280907994        2.72333640369256        0.45201285870528
H            2.23525425053051        2.28123518997769       -1.16743772322408
H            4.97559795188439        2.48768060811029       -0.93751464220435
H            6.92503144802080        0.97139314037039       -1.15614786695385
H            5.93593023432859       -0.17318560219183        1.75493282376841
H            7.52885676895159       -0.45980887016057        1.01018887935280
H            6.48854765504639       -1.83752331469212        1.44207518832029
H            4.38647891920284       -2.38625005218507       -0.10561510237156
H            2.46008874821848       -0.83735808905788        0.11895314801041
H            0.29288679934811       -1.72696185727704        2.29912586874069

          :  Hamiltonian                  GFN1-xTB          :
         :: total energy             -79.475571113774 Eh    ::
         :: gradient norm              0.000406811596 Eh/a0 ::
         :: HOMO-LUMO gap              0.136355900483 eV    ::
         :: SCC energy               -80.357111208243 Eh    ::
         :: -> Gsolv                  -0.106949223197 Eh    ::
         :: repulsion energy           0.911493103508 Eh    ::

    * Orbital Energies and Occupations

         #    Occupation            Energy/Eh            Energy/eV
      -------------------------------------------------------------
         1        2.0000           -0.8940816             -24.3292
       ...           ...                  ...                  ...
        55        2.0000           -0.5195089             -14.1366
        56        2.0000           -0.5186679             -14.1137
        57        2.0000           -0.5115997             -13.9213
        58        2.0000           -0.5085448             -13.8382
        59        2.0000           -0.5041138             -13.7176
        60        2.0000           -0.4957455             -13.4899
        61        2.0000           -0.4818443             -13.1116
        62        2.0000           -0.4769580             -12.9787
        63        2.0000           -0.4649264             -12.6513
        64        2.0000           -0.4607123             -12.5366
        65        2.0000           -0.4470788             -12.1656
        66        1.9998           -0.4324819             -11.7684
        67        1.8665           -0.4260870             -11.5944 (HOMO)
        68        0.1336           -0.4210761             -11.4581 (LUMO)
        69                         -0.3254736              -8.8566
        70                         -0.3221080              -8.7650
        71                         -0.2854044              -7.7662
        72                         -0.2512376              -6.8365
        73                         -0.2448779              -6.6635
        74                         -0.1649049              -4.4873
        75                         -0.1567212              -4.2646
        76                         -0.1541520              -4.1947
        77                         -0.1413582              -3.8466
        78                         -0.1407717              -3.8306
       ...                                ...                  ...
       144                          0.7053976              19.1948
      -------------------------------------------------------------
                  HL-Gap            0.0050110 Eh            0.1364 eV

Wiberg/Mayer (AO) data.
largest (>0.10) Wiberg bond orders for each atom

     #   Z sym  total        # sym  WBO       # sym  WBO       # sym  WBO
 ---------------------------------------------------------------------------
     1   6 C    3.907 --    27 H    0.975    26 H    0.975    28 H    0.964
                             2 N    0.925
     2   7 N    3.516 --     3 C    1.184    24 C    1.129     1 C    0.925
                            25 O    0.132
     3   6 C    3.919 --     8 N    1.552     2 N    1.184     4 C    0.974
     4   6 C    3.951 --     6 C    0.983     5 C    0.980     7 N    0.979
                             3 C    0.974
     5   6 C    3.972 --    29 H    0.985    31 H    0.984    30 H    0.981
                             4 C    0.980
     6   6 C    3.990 --    32 H    0.985     4 C    0.983    34 H    0.982
                            33 H    0.982
     7   7 N    2.951 --     4 C    0.979    36 H    0.929    35 H    0.926
     8   7 N    3.024 --     3 C    1.552     9 C    1.205
     9   6 C    3.964 --    22 C    1.504     8 N    1.205    10 C    0.989
    10   6 C    3.896 --    11 O    1.608    12 N    1.218     9 C    0.989
    11   8 O    1.904 --    10 C    1.608    12 N    0.161
    12   7 N    3.322 --    10 C    1.218    13 C    0.971    37 H    0.885
                            11 O    0.161
    13   6 C    3.955 --    14 C    1.056    12 N    0.971    38 H    0.929
                            39 H    0.910
    14   6 C    3.851 --    21 C    1.284    15 C    1.272    13 C    1.056
    15   6 C    3.987 --    16 C    1.649    14 C    1.272    40 H    0.961
    16   6 C    3.893 --    15 C    1.649    17 C    1.037    41 H    0.961
    17   6 C    3.883 --    20 C    1.040    16 C    1.037    19 F    0.898
                            18 C    0.856
    18   6 C    3.938 --    42 H    0.982    44 H    0.975    43 H    0.974
                            17 C    0.856
    19   9 F    1.006 --    17 C    0.898
    20   6 C    3.887 --    21 C    1.634    17 C    1.040    45 H    0.961
    21   6 C    3.985 --    20 C    1.634    14 C    1.284    46 H    0.955
    22   6 C    3.909 --     9 C    1.504    24 C    1.090    23 O    1.068
    23   8 O    2.061 --    22 C    1.068    47 H    0.798
    24   6 C    3.916 --    25 O    1.549     2 N    1.129    22 C    1.090
    25   8 O    1.890 --    24 C    1.549     2 N    0.132
    26   1 H    1.001 --     1 C    0.975
    27   1 H    1.006 --     1 C    0.975
    28   1 H    1.019 --     1 C    0.964
    29   1 H    1.002 --     5 C    0.985
    30   1 H    1.009 --     5 C    0.981
    31   1 H    1.008 --     5 C    0.984
    32   1 H    1.002 --     6 C    0.985
    33   1 H    1.002 --     6 C    0.982
    34   1 H    0.998 --     6 C    0.982
    35   1 H    0.942 --     7 N    0.926
    36   1 H    0.945 --     7 N    0.929
    37   1 H    0.934 --    12 N    0.885
    38   1 H    0.988 --    13 C    0.929
    39   1 H    0.991 --    13 C    0.910
    40   1 H    0.989 --    15 C    0.961
    41   1 H    0.988 --    16 C    0.961
    42   1 H    0.995 --    18 C    0.982
    43   1 H    0.993 --    18 C    0.974
    44   1 H    0.993 --    18 C    0.975
    45   1 H    0.989 --    20 C    0.961
    46   1 H    1.006 --    21 C    0.955
    47   1 H    0.840 --    23 O    0.798
 ---------------------------------------------------------------------------

           -------------------------------------------------
          | TOTAL ENERGY              -79.475571113774 Eh   |
          | GRADIENT NORM               0.000406811596 Eh/α |
          | HOMO-LUMO GAP               0.136355900483 eV   |
           -------------------------------------------------

 * finished run on 2023/06/20 at 15:31:49.591
