   * xtb version 6.5.1 (579679a) compiled by 'ehlert@majestix' on 2022-07-11
          program call               : /lustre/hpc/kemi/ree/PhD/git/ReactivityQM/dep/xtb-6.5.1/bin/xtb --gfn 1 /lustre/hpc/kemi/ree/PhD/git/ReactivityQM/calculations/RaltegravirCLI/reac01prodE03/conf07/RaltegravirCLI_reac01prodE03_conf07_gfn1.xyz --opt --vfukui --chrg -1 --uhf 0 --alpb DMSO

   ID    Z sym.   atoms
    1    6 C      1, 2, 4, 5, 10
    2    8 O      3, 6
    3   17 Cl     7
    4    7 N      8, 9
    5    1 H      11-16

      * Solvation model:               ALPB
        Solvent                        DMSO
        Solvent mass                       7.8130E+01 g/mol
          :  Hamiltonian                  GFN1-xTB          :
 * total energy  :   -34.0917570 Eh     change       -0.8803624E-10 Eh
 * total energy  :   -34.1026546 Eh     change       -0.1089755E-01 Eh
 * total energy  :   -34.1084494 Eh     change       -0.5794778E-02 Eh
 * total energy  :   -34.1094691 Eh     change       -0.1019753E-02 Eh
 * total energy  :   -34.1107443 Eh     change       -0.1275139E-02 Eh
 * total energy  :   -34.1110782 Eh     change       -0.3339341E-03 Eh
 * total energy  :   -34.1112802 Eh     change       -0.2019951E-03 Eh
 * total energy  :   -34.1113181 Eh     change       -0.3791925E-04 Eh
 * total energy  :   -34.1113247 Eh     change       -0.6565852E-05 Eh
 * total energy  :   -34.1113267 Eh     change       -0.2056275E-05 Eh
   *** GEOMETRY OPTIMIZATION CONVERGED AFTER 10 ITERATIONS ***

 final structure:
================
16
 xtb: 6.5.1 (579679a)
C           -1.66250884314351       -1.46436486949369       -0.07432090045014
C           -0.40720843558504       -0.67369332142043       -0.03808028016070
O            0.81532507634658       -1.26402871124059       -0.12390764219308
C            1.73673417224963       -0.14401623589214       -0.06035608319769
C            3.04867771057695       -0.37189227818524       -0.12769209126941
O            3.84796880000410       -1.30545128265037       -0.22592558108142
Cl           3.94933557701335        1.44577754677276       -0.01038039065752
N            0.99267723449080        1.05418228981651        0.05793100330916
N           -0.26887896310001        0.62404673250558        0.05722106563403
C           -1.33045599802580        1.59398740913901        0.17638119134432
H           -2.34519540833473       -1.14074440546856        0.71135655976313
H           -1.42593267376998       -2.51687590680403        0.06874910475181
H           -2.17568459970116       -1.34985706939561       -1.03180649466655
H           -1.81766230452181        1.49085751274762        1.14562677313692
H           -2.06420414450038        1.43627123848721       -0.61189901880018
H           -0.89298719999891        2.58579935108194        0.08710478453730

          :  Hamiltonian                  GFN1-xTB          :
         :: total energy             -34.111326725008 Eh    ::
         :: gradient norm              0.000495861085 Eh/a0 ::
         :: HOMO-LUMO gap              1.336729936422 eV    ::
         :: SCC energy               -34.385528915115 Eh    ::
         :: -> Gsolv                  -0.116151926477 Eh    ::
         :: repulsion energy           0.281478321871 Eh    ::

    * Orbital Energies and Occupations

         #    Occupation            Energy/Eh            Energy/eV
      -------------------------------------------------------------
         1        2.0000           -0.8280809             -22.5332
       ...           ...                  ...                  ...
        16        2.0000           -0.5287484             -14.3880
        17        2.0000           -0.5229219             -14.2294
        18        2.0000           -0.5151456             -14.0178
        19        2.0000           -0.5099146             -13.8755
        20        2.0000           -0.5032253             -13.6935
        21        2.0000           -0.4873763             -13.2622
        22        2.0000           -0.4694189             -12.7735
        23        2.0000           -0.4393930             -11.9565
        24        2.0000           -0.4385604             -11.9338
        25        2.0000           -0.4193568             -11.4113
        26        2.0000           -0.4110421             -11.1850
        27        2.0000           -0.3959422             -10.7741
        28        2.0000           -0.2868533              -7.8057 (HOMO)
        29                         -0.2377294              -6.4689 (LUMO)
        30                         -0.1945838              -5.2949
        31                         -0.1451566              -3.9499
        32                         -0.1301829              -3.5425
        33                         -0.1264510              -3.4409
        34                         -0.0864090              -2.3513
        35                         -0.0748721              -2.0374
        36                         -0.0591090              -1.6084
        37                         -0.0542522              -1.4763
        38                          0.0288578               0.7853
        39                          0.0359095               0.9771
       ...                                ...                  ...
        57                          0.8555838              23.2816
      -------------------------------------------------------------
                  HL-Gap            0.0491239 Eh            1.3367 eV

Wiberg/Mayer (AO) data.
largest (>0.10) Wiberg bond orders for each atom

     #   Z sym  total        # sym  WBO       # sym  WBO       # sym  WBO
 ---------------------------------------------------------------------------
     1   6 C    3.991 --     2 C    1.025    12 H    0.981    11 H    0.975
                            13 H    0.967
     2   6 C    3.876 --     9 N    1.415     3 O    1.044     1 C    1.025
                             8 N    0.295
     3   8 O    2.132 --     2 C    1.044     4 C    0.853
     4   6 C    3.769 --     5 C    1.610     8 N    1.072     3 O    0.853
                             6 O    0.171
     5   6 C    3.842 --     4 C    1.610     6 O    1.552     7 Cl   0.504
     6   8 O    1.898 --     5 C    1.552     4 C    0.171     7 Cl   0.116
     7  17 Cl   0.659 --     5 C    0.504     6 O    0.116
     8   7 N    2.740 --     9 N    1.159     4 C    1.072     2 C    0.295
     9   7 N    3.644 --     2 C    1.415     8 N    1.159    10 C    0.948
    10   6 C    3.949 --    16 H    0.984    15 H    0.983    14 H    0.979
                             9 N    0.948
    11   1 H    1.002 --     1 C    0.975
    12   1 H    1.001 --     1 C    0.981
    13   1 H    1.002 --     1 C    0.967
    14   1 H    1.002 --    10 C    0.979
    15   1 H    1.001 --    10 C    0.983
    16   1 H    1.011 --    10 C    0.984
 ---------------------------------------------------------------------------

           -------------------------------------------------
          | TOTAL ENERGY              -34.111326725008 Eh   |
          | GRADIENT NORM               0.000495861085 Eh/α |
          | HOMO-LUMO GAP               1.336729936422 eV   |
           -------------------------------------------------

 * finished run on 2023/06/20 at 14:53:00.301
