   * xtb version 6.5.1 (579679a) compiled by 'ehlert@majestix' on 2022-07-11
          program call               : /lustre/hpc/kemi/ree/PhD/git/ReactivityQM/dep/xtb-6.5.1/bin/xtb --gfn 1 /lustre/hpc/kemi/ree/PhD/git/ReactivityQM/calculations/R03/reac02prodN12/conf14/R03_reac02prodN12_conf14_gfn1.xyz --opt --vfukui --chrg 1 --uhf 0 --alpb DMSO

   ID    Z sym.   atoms
    1    6 C      1, 3, 5, 7-10, 12, 14, 15, 18, 19, 22, 23, 25
    2    8 O      2, 4, 13, 20, 24, 26
    3    7 N      6, 11, 16, 17, 21
    4    1 H      27-46

      * Solvation model:               ALPB
        Solvent                        DMSO
        Solvent mass                       7.8130E+01 g/mol
          :  Hamiltonian                  GFN1-xTB          :
 * total energy  :   -86.2962000 Eh     change       -0.1392522E-09 Eh
 * total energy  :   -86.3093158 Eh     change       -0.1311574E-01 Eh
 * total energy  :   -86.3142592 Eh     change       -0.4943464E-02 Eh
 * total energy  :   -86.3151881 Eh     change       -0.9288379E-03 Eh
 * total energy  :   -86.3158966 Eh     change       -0.7085112E-03 Eh
 * total energy  :   -86.3162403 Eh     change       -0.3437221E-03 Eh
 * total energy  :   -86.3165429 Eh     change       -0.3025569E-03 Eh
 * total energy  :   -86.3167811 Eh     change       -0.2382439E-03 Eh
 * total energy  :   -86.3169213 Eh     change       -0.1401804E-03 Eh
 * total energy  :   -86.3170207 Eh     change       -0.9944048E-04 Eh
 * total energy  :   -86.3175493 Eh     change       -0.5213036E-05 Eh
 * total energy  :   -86.3175546 Eh     change       -0.5265907E-05 Eh
 * total energy  :   -86.3175660 Eh     change       -0.1140384E-04 Eh
 * total energy  :   -86.3175595 Eh     change        0.6499200E-05 Eh
 * total energy  :   -86.3175589 Eh     change        0.6564982E-06 Eh
 * total energy  :   -86.3175900 Eh     change       -0.3114688E-04 Eh
 * total energy  :   -86.3175959 Eh     change       -0.5880925E-05 Eh
 * total energy  :   -86.3176057 Eh     change       -0.9786512E-05 Eh
 * total energy  :   -86.3176090 Eh     change       -0.3340383E-05 Eh
   *** GEOMETRY OPTIMIZATION CONVERGED AFTER 44 ITERATIONS ***

 final structure:
================
46
 xtb: 6.5.1 (579679a)
C           -4.71080668483038        2.47673110393944        2.71468634087261
O           -3.82147097411617        1.68688925305225        1.91791856363989
C           -4.18914089831671        1.47354937128244        0.65421943364799
O           -5.21102564833848        1.90676303000100        0.17764208741685
C           -3.19354566120214        0.64086530898729       -0.08360373940893
N           -2.09357850297472        0.24006820802936        0.62254096273744
C           -1.17412847903480       -0.49669104813034        0.09199910438308
C           -0.03431521410665       -0.88955948861868        1.01979731974019
C           -0.12186004729656       -2.37813271131309        1.37347959835510
C           -0.09039204069940       -0.03933750762128        2.29371822588923
N            1.24045584145073       -0.57209659172489        0.32512238601309
C            2.41539137358727       -0.91318958020389        0.81846599232652
O            2.68927694886012       -1.54219261448957        1.80162560114737
C            3.63756394297643       -0.45386907609373       -0.12991758995378
C            4.26748783096716       -1.74450767402542       -0.65213710334504
N            4.47619315357761        0.36109618424848        0.64743803255830
N            4.51522768770886        1.53099546050927        0.15999528308872
C            3.73940110318625        1.54124467680945       -0.96281949728348
C            3.51274887124978        2.69505233927364       -1.82571880527270
O            3.20369910445643        0.38696373503431       -1.16851941031635
N           -1.25047705340588       -0.93091176226343       -1.20612379855684
C           -0.29250214681131       -1.79827049824418       -1.89382598365352
C           -2.31261221674886       -0.56280270625065       -2.01839616389122
O           -2.39130542695259       -0.93189010166590       -3.18274721681262
C           -3.32770897169800        0.27536230552303       -1.39554029696383
O           -4.34858973322102        0.62550792444951       -2.17746934575438
H           -5.67161697106665        1.96683099572394        2.82086870514925
H           -4.23536012968690        2.59410032445292        3.68612138509448
H           -4.86679590994992        3.45206801553534        2.24736371656027
H           -1.12424145155733       -2.58713510929423        1.74536506619513
H            0.59869030601032       -2.62427383614651        2.15104525427630
H            0.06976318971771       -3.00584251860595        0.50750293256110
H           -0.04965885126427        1.01765998139510        2.03811321752358
H           -1.01969343370516       -0.23933582261259        2.82435792279602
H            0.75117565939973       -0.28818047870126        2.93733406498161
H            1.19720401565721        0.01737376372300       -0.48808685102269
H            3.53583317845286       -2.27885266177902       -1.25306172696168
H            5.13098775111433       -1.49191998017453       -1.26359183321364
H            4.56880643391354       -2.35273875242333        0.19865709487153
H            2.91990990341774        2.42009836397759       -2.69440163232121
H            3.00125810707619        3.47414782965274       -1.25436820333624
H            4.47540092975375        3.11154048311930       -2.13096403824016
H            0.02799692339400       -1.29088926113569       -2.80290008109319
H            0.56486769836412       -2.00997305331088       -1.27038377939365
H           -0.79951558395537       -2.72461563837887       -2.16501584438127
H           -4.20899692335065        0.25230181448478       -3.06750135064656

          :  Hamiltonian                  GFN1-xTB          :
         :: total energy             -86.317609018349 Eh    ::
         :: gradient norm              0.000363639795 Eh/a0 ::
         :: HOMO-LUMO gap              0.299624480836 eV    ::
         :: SCC energy               -87.149198649765 Eh    ::
         :: -> Gsolv                  -0.124918527155 Eh    ::
         :: repulsion energy           0.861619279744 Eh    ::

    * Orbital Energies and Occupations

         #    Occupation            Energy/Eh            Energy/eV
      -------------------------------------------------------------
         1        2.0000           -0.9373076             -25.5054
       ...           ...                  ...                  ...
        58        2.0000           -0.5322207             -14.4825
        59        2.0000           -0.5254659             -14.2987
        60        2.0000           -0.5214657             -14.1898
        61        2.0000           -0.5181976             -14.1009
        62        2.0000           -0.5158270             -14.0364
        63        2.0000           -0.5037114             -13.7067
        64        2.0000           -0.5006165             -13.6225
        65        2.0000           -0.4940681             -13.4443
        66        2.0000           -0.4908135             -13.3557
        67        2.0000           -0.4851435             -13.2014
        68        2.0000           -0.4706055             -12.8058
        69        2.0000           -0.4570742             -12.4376
        70        1.9939           -0.4393660             -11.9558 (HOMO)
        71        0.0061           -0.4283550             -11.6561 (LUMO)
        72                         -0.3318337              -9.0297
        73                         -0.3313816              -9.0174
        74                         -0.3026644              -8.2359
        75                         -0.2975908              -8.0979
        76                         -0.2473773              -6.7315
        77                         -0.1778975              -4.8408
        78                         -0.1668426              -4.5400
        79                         -0.1632350              -4.4419
        80                         -0.1502384              -4.0882
        81                         -0.1411369              -3.8405
       ...                                ...                  ...
       144                          0.7376395              20.0722
      -------------------------------------------------------------
                  HL-Gap            0.0110110 Eh            0.2996 eV

Wiberg/Mayer (AO) data.
largest (>0.10) Wiberg bond orders for each atom

     #   Z sym  total        # sym  WBO       # sym  WBO       # sym  WBO
 ---------------------------------------------------------------------------
     1   6 C    3.870 --    28 H    0.986    29 H    0.979    27 H    0.979
                             2 O    0.895
     2   8 O    2.200 --     3 C    1.113     1 C    0.895     4 O    0.136
     3   6 C    3.853 --     4 O    1.665     2 O    1.113     5 C    0.996
     4   8 O    1.929 --     3 C    1.665     2 O    0.136
     5   6 C    3.955 --    25 C    1.484     6 N    1.189     3 C    0.996
     6   7 N    3.029 --     7 C    1.573     5 C    1.189
     7   6 C    3.929 --     6 N    1.573    21 N    1.171     8 C    0.975
     8   6 C    3.906 --    10 C    0.992     9 C    0.985     7 C    0.975
                            11 N    0.876
     9   6 C    3.982 --     8 C    0.985    30 H    0.981    32 H    0.979
                            31 H    0.976
    10   6 C    3.986 --     8 C    0.992    33 H    0.984    35 H    0.982
                            34 H    0.981
    11   7 N    3.382 --    12 C    1.349    36 H    0.882     8 C    0.876
                            13 O    0.179
    12   6 C    3.908 --    13 O    1.667    11 N    1.349    14 C    0.739
    13   8 O    2.058 --    12 C    1.667    11 N    0.179
    14   6 C    3.839 --    16 N    1.112    15 C    0.915    20 O    0.909
                            12 C    0.739
    15   6 C    3.947 --    37 H    0.979    39 H    0.975    38 H    0.974
                            14 C    0.915
    16   7 N    2.993 --    17 N    1.622    14 C    1.112
    17   7 N    3.014 --    16 N    1.622    18 C    1.224
    18   6 C    3.800 --    20 O    1.264    17 N    1.224    19 C    1.079
    19   6 C    3.963 --    18 C    1.079    40 H    0.972    42 H    0.927
                            41 H    0.917
    20   8 O    2.367 --    18 C    1.264    14 C    0.909
    21   7 N    3.505 --     7 C    1.171    23 C    1.121    22 C    0.925
                            24 O    0.134
    22   6 C    3.917 --    44 H    0.980    43 H    0.973    45 H    0.972
                            21 N    0.925
    23   6 C    3.910 --    24 O    1.571    21 N    1.121    25 C    1.071
    24   8 O    1.909 --    23 C    1.571    21 N    0.134
    25   6 C    3.914 --     5 C    1.484    26 O    1.121    23 C    1.071
    26   8 O    2.095 --    25 C    1.121    46 H    0.803
    27   1 H    1.006 --     1 C    0.979
    28   1 H    1.011 --     1 C    0.986
    29   1 H    1.007 --     1 C    0.979
    30   1 H    0.998 --     9 C    0.981
    31   1 H    1.003 --     9 C    0.976
    32   1 H    0.999 --     9 C    0.979
    33   1 H    1.006 --    10 C    0.984
    34   1 H    1.008 --    10 C    0.981
    35   1 H    1.001 --    10 C    0.982
    36   1 H    0.928 --    11 N    0.882
    37   1 H    0.992 --    15 C    0.979
    38   1 H    0.989 --    15 C    0.974
    39   1 H    0.994 --    15 C    0.975
    40   1 H    0.986 --    19 C    0.972
    41   1 H    0.977 --    19 C    0.917
    42   1 H    0.978 --    19 C    0.927
    43   1 H    1.002 --    22 C    0.973
    44   1 H    1.006 --    22 C    0.980
    45   1 H    0.999 --    22 C    0.972
    46   1 H    0.842 --    26 O    0.803
 ---------------------------------------------------------------------------

           -------------------------------------------------
          | TOTAL ENERGY              -86.317609018349 Eh   |
          | GRADIENT NORM               0.000363639795 Eh/α |
          | HOMO-LUMO GAP               0.299624480836 eV   |
           -------------------------------------------------

 * finished run on 2023/06/20 at 15:47:38.638
