   * xtb version 6.5.1 (579679a) compiled by 'ehlert@majestix' on 2022-07-11
          program call               : /lustre/hpc/kemi/ree/PhD/git/ReactivityQM/dep/xtb-6.5.1/bin/xtb --gfn 1 /lustre/hpc/kemi/ree/PhD/git/ReactivityQM/calculations/R02oxygendeprot/reac01prodN11/conf04/R02oxygendeprot_reac01prodN11_conf04_gfn1.xyz --opt --vfukui --chrg 0 --uhf 0 --alpb DMSO

   ID    Z sym.   atoms
    1    6 C      1, 3, 5, 7-10, 12, 13, 15, 18, 19, 22, 24
    2    8 O      2, 4, 14, 20, 23, 25
    3    7 N      6, 11, 16, 17, 21
    4    1 H      26-42

      * Solvation model:               ALPB
        Solvent                        DMSO
        Solvent mass                       7.8130E+01 g/mol
          :  Hamiltonian                  GFN1-xTB          :
 * total energy  :   -82.8618673 Eh     change       -0.1433875E-10 Eh
 * total energy  :   -82.8733741 Eh     change       -0.1150676E-01 Eh
 * total energy  :   -82.8786775 Eh     change       -0.5303471E-02 Eh
 * total energy  :   -82.8800933 Eh     change       -0.1415740E-02 Eh
 * total energy  :   -82.8811765 Eh     change       -0.1083197E-02 Eh
 * total energy  :   -82.8819499 Eh     change       -0.7734119E-03 Eh
 * total energy  :   -82.8824508 Eh     change       -0.5009126E-03 Eh
 * total energy  :   -82.8826879 Eh     change       -0.2371604E-03 Eh
 * total energy  :   -82.8827951 Eh     change       -0.1071964E-03 Eh
 * total energy  :   -82.8828678 Eh     change       -0.7269355E-04 Eh
 * total energy  :   -82.8845851 Eh     change       -0.8320675E-05 Eh
 * total energy  :   -82.8845910 Eh     change       -0.5893317E-05 Eh
 * total energy  :   -82.8845997 Eh     change       -0.8736467E-05 Eh
 * total energy  :   -82.8846106 Eh     change       -0.1080092E-04 Eh
 * total energy  :   -82.8846178 Eh     change       -0.7239783E-05 Eh
 * total energy  :   -82.8846169 Eh     change        0.8957280E-06 Eh
 * total energy  :   -82.8846257 Eh     change       -0.8843659E-05 Eh
 * total energy  :   -82.8846326 Eh     change       -0.6831825E-05 Eh
 * total energy  :   -82.8846374 Eh     change       -0.4875154E-05 Eh
   *** GEOMETRY OPTIMIZATION CONVERGED AFTER 53 ITERATIONS ***

 final structure:
================
42
 xtb: 6.5.1 (579679a)
C           -5.89827626391968       -1.83643158728202       -0.21111494494332
O           -4.69888211499628       -1.05659236022556       -0.22400508767472
C           -4.72846270981639        0.06073960164776       -0.95198551446655
O           -5.69298420660483        0.41443193277661       -1.58645060585227
C           -3.43229936194256        0.80342941751096       -0.87292008662907
N           -2.46236925118618        0.21936888662363       -0.17177844877132
C           -1.28036589178412        0.78516534131008       -0.03706804278953
C           -0.25773747664158        0.08296594964637        0.80720468700067
C           -0.32074640720067       -1.43945040936796        0.56067973816528
C           -0.63453497260484        0.39669455562336        2.27436482990536
N            1.05632869717699        0.57797444912492        0.49952949159954
C            2.26248590978253        0.07092424735855        1.17424105341338
C            3.12739486352548        1.35423382939212        1.49681860710703
O            2.09538540980156       -0.68881166464842        2.19265846920658
C            3.03694382488786       -0.61836602837550        0.01973224826168
N            2.52158849999947       -1.32221322240323       -0.93190766791661
N            3.57764135946256       -1.78753764668240       -1.66935049237539
C            4.65545249728350       -1.32855756285364       -1.11914467691143
C            6.05780103654082       -1.53833926051130       -1.54024126289998
O            4.37608011714717       -0.57521823563600       -0.03699397646700
N           -1.00698710511837        1.99203704997568       -0.57141748548423
C           -1.90630687596477        2.73969503300864       -1.32815899100994
O           -1.58714595605803        3.82417815973238       -1.75637556830220
C           -3.26218894860169        2.08687392069861       -1.53297000832081
O           -4.11280188684217        2.65171405402076       -2.20130612764409
H           -6.14871326327052       -2.15754739320581       -1.22504786389847
H           -6.72312563861742       -1.24654453905767        0.19584141489983
H           -5.70118260510693       -2.69848080796297        0.42224950398580
H            0.31652535335097       -1.95289457185425        1.27710897630214
H           -1.34883227340580       -1.77520795238983        0.67958213362085
H            0.02666448610810       -1.65718886919361       -0.44796934626889
H            0.01850736969684       -0.15002252721319        2.94987169534966
H           -0.52971212026721        1.46438637362638        2.45437962938961
H           -1.66662825159402        0.09812474260071        2.44850554539341
H            1.21583348486182        0.87343078997105       -0.45116003988376
H            4.06611637591599        1.01641020248900        1.92622041310896
H            3.30349408893453        1.92753776639972        0.59325002834319
H            2.56920717341091        1.94028420021365        2.22035141844222
H            6.51469935058786       -0.58173325275867       -1.79303720494971
H            6.08529704006851       -2.19555335188519       -2.40613339686095
H            6.63012329639013       -1.98009548010367       -0.72490896050869
H           -0.11328365339406        2.42815021986471       -0.40114508266037

          :  Hamiltonian                  GFN1-xTB          :
         :: total energy             -82.884637444958 Eh    ::
         :: gradient norm              0.000586633138 Eh/a0 ::
         :: HOMO-LUMO gap              0.078766895110 eV    ::
         :: SCC energy               -83.649683511284 Eh    ::
         :: -> Gsolv                  -0.065636114968 Eh    ::
         :: repulsion energy           0.791396622704 Eh    ::

    * Orbital Energies and Occupations

         #    Occupation            Energy/Eh            Energy/eV
      -------------------------------------------------------------
         1        2.0000           -0.8690036             -23.6468
       ...           ...                  ...                  ...
        55        2.0000           -0.5115601             -13.9203
        56        2.0000           -0.5087322             -13.8433
        57        2.0000           -0.5082292             -13.8296
        58        2.0000           -0.4999931             -13.6055
        59        2.0000           -0.4913364             -13.3699
        60        2.0000           -0.4840818             -13.1725
        61        2.0000           -0.4808222             -13.0838
        62        2.0000           -0.4658179             -12.6755
        63        2.0000           -0.4612980             -12.5526
        64        2.0000           -0.4504734             -12.2580
        65        2.0000           -0.4456426             -12.1266
        66        2.0000           -0.4406432             -11.9905
        67        1.6421           -0.4233567             -11.5201 (HOMO)
        68        0.3579           -0.4204621             -11.4414 (LUMO)
        69                         -0.3271577              -8.9024
        70                         -0.3035371              -8.2597
        71                         -0.2741690              -7.4605
        72                         -0.2572385              -6.9998
        73                         -0.2505666              -6.8183
        74                         -0.1768430              -4.8121
        75                         -0.1434308              -3.9030
        76                         -0.1410647              -3.8386
        77                         -0.1404735              -3.8225
        78                         -0.1326315              -3.6091
       ...                                ...                  ...
       134                          0.7515156              20.4498
      -------------------------------------------------------------
                  HL-Gap            0.0028946 Eh            0.0788 eV

Wiberg/Mayer (AO) data.
largest (>0.10) Wiberg bond orders for each atom

     #   Z sym  total        # sym  WBO       # sym  WBO       # sym  WBO
 ---------------------------------------------------------------------------
     1   6 C    3.867 --    28 H    0.986    26 H    0.978    27 H    0.978
                             2 O    0.895
     2   8 O    2.193 --     3 C    1.112     1 C    0.895     4 O    0.139
     3   6 C    3.846 --     4 O    1.666     2 O    1.112     5 C    0.996
     4   8 O    1.909 --     3 C    1.666     2 O    0.139
     5   6 C    3.754 --     6 N    1.390    24 C    1.111     3 C    0.996
     6   7 N    2.990 --     5 C    1.390     7 C    1.380
     7   6 C    3.826 --     6 N    1.380    21 N    1.241     8 C    1.008
     8   6 C    3.930 --     7 C    1.008    11 N    0.981     9 C    0.935
                            10 C    0.928
     9   6 C    3.956 --    31 H    0.983    30 H    0.980    29 H    0.978
                             8 C    0.935
    10   6 C    3.958 --    34 H    0.986    33 H    0.985    32 H    0.971
                             8 C    0.928
    11   7 N    3.178 --     8 C    0.981    12 C    0.914    35 H    0.903
                            14 O    0.154
    12   6 C    3.877 --    14 O    1.259    11 N    0.914    15 C    0.826
                            13 C    0.814
    13   6 C    3.847 --    37 H    0.988    38 H    0.981    36 H    0.981
                            12 C    0.814
    14   8 O    1.613 --    12 C    1.259    11 N    0.154
    15   6 C    3.768 --    16 N    1.647    20 O    1.075    12 C    0.826
    16   7 N    2.999 --    15 C    1.647    17 N    1.160
    17   7 N    2.980 --    18 C    1.631    16 N    1.160
    18   6 C    3.858 --    17 N    1.631    20 O    1.055    19 C    1.030
    19   6 C    3.984 --    18 C    1.030    40 H    0.982    41 H    0.964
                            39 H    0.962
    20   8 O    2.321 --    15 C    1.075    18 C    1.055
    21   7 N    3.455 --     7 C    1.241    22 C    1.080    42 H    0.872
                            23 O    0.103
    22   6 C    3.835 --    23 O    1.691    21 N    1.080    24 C    0.938
    23   8 O    1.909 --    22 C    1.691    21 N    0.103
    24   6 C    3.854 --    25 O    1.669     5 C    1.111    22 C    0.938
    25   8 O    1.828 --    24 C    1.669
    26   1 H    1.005 --     1 C    0.978
    27   1 H    1.005 --     1 C    0.978
    28   1 H    1.010 --     1 C    0.986
    29   1 H    1.010 --     9 C    0.978
    30   1 H    1.008 --     9 C    0.980
    31   1 H    1.016 --     9 C    0.983
    32   1 H    1.011 --    10 C    0.971
    33   1 H    0.999 --    10 C    0.985
    34   1 H    1.001 --    10 C    0.986
    35   1 H    0.945 --    11 N    0.903
    36   1 H    1.003 --    13 C    0.981
    37   1 H    0.998 --    13 C    0.988
    38   1 H    0.997 --    13 C    0.981
    39   1 H    0.997 --    19 C    0.962
    40   1 H    0.997 --    19 C    0.982
    41   1 H    0.997 --    19 C    0.964
    42   1 H    0.921 --    21 N    0.872
 ---------------------------------------------------------------------------

           -------------------------------------------------
          | TOTAL ENERGY              -82.884637444958 Eh   |
          | GRADIENT NORM               0.000586633138 Eh/α |
          | HOMO-LUMO GAP               0.078766895110 eV   |
           -------------------------------------------------

 * finished run on 2023/06/21 at 17:26:58.403
