   * xtb version 6.5.1 (579679a) compiled by 'ehlert@majestix' on 2022-07-11
          program call               : /lustre/hpc/kemi/ree/PhD/git/ReactivityQM/dep/xtb-6.5.1/bin/xtb --gfn 1 /lustre/hpc/kemi/ree/PhD/git/ReactivityQM/calculations/R02methylcation/reac01prodN07/conf02/R02methylcation_reac01prodN07_conf02_gfn1.xyz --opt --vfukui --chrg 0 --uhf 0 --alpb DMSO

   ID    Z sym.   atoms
    1    6 C      1, 3, 5, 7-10, 12, 14, 17-19, 22, 24
    2    8 O      2, 4, 13, 20, 23, 25
    3    7 N      6, 11, 15, 16, 21
    4    1 H      26-42

      * Solvation model:               ALPB
        Solvent                        DMSO
        Solvent mass                       7.8130E+01 g/mol
          :  Hamiltonian                  GFN1-xTB          :
 * total energy  :   -82.9559328 Eh     change       -0.1309672E-09 Eh
 * total energy  :   -82.9728662 Eh     change       -0.1693344E-01 Eh
 * total energy  :   -82.9796057 Eh     change       -0.6739513E-02 Eh
 * total energy  :   -82.9806703 Eh     change       -0.1064592E-02 Eh
 * total energy  :   -82.9813373 Eh     change       -0.6669950E-03 Eh
 * total energy  :   -82.9816745 Eh     change       -0.3371902E-03 Eh
 * total energy  :   -82.9820419 Eh     change       -0.3674285E-03 Eh
 * total energy  :   -82.9823606 Eh     change       -0.3186980E-03 Eh
 * total energy  :   -82.9825825 Eh     change       -0.2218851E-03 Eh
 * total energy  :   -82.9826986 Eh     change       -0.1161113E-03 Eh
 * total energy  :   -82.9837081 Eh     change       -0.5058433E-04 Eh
 * total energy  :   -82.9837230 Eh     change       -0.1482414E-04 Eh
 * total energy  :   -82.9837398 Eh     change       -0.1682262E-04 Eh
 * total energy  :   -82.9837349 Eh     change        0.4924407E-05 Eh
 * total energy  :   -82.9837500 Eh     change       -0.1512799E-04 Eh
 * total energy  :   -82.9837611 Eh     change       -0.1105941E-04 Eh
 * total energy  :   -82.9837682 Eh     change       -0.7143404E-05 Eh
 * total energy  :   -82.9837754 Eh     change       -0.7205976E-05 Eh
 * total energy  :   -82.9837777 Eh     change       -0.2342453E-05 Eh
   *** GEOMETRY OPTIMIZATION CONVERGED AFTER 44 ITERATIONS ***

 final structure:
================
42
 xtb: 6.5.1 (579679a)
C            6.89151788719839        1.70951949899411       -0.35851782662082
O            5.74748216782287        1.16026629513933        0.28101503828108
C            4.71569228453656        0.83079652719207       -0.53474226738371
O            4.79063219516265        1.01974883793727       -1.74328852993056
C            3.56481326897894        0.24934280490494        0.14211365557634
N            2.54640100163088       -0.08490218040565       -0.73304354628477
C            1.47122546112481       -0.62339395384285       -0.30102891936958
C            0.37430908286350       -1.03790590185423       -1.25762831736719
C            0.51365339071007       -0.28909042862800       -2.58471488397273
C            0.41480967277919       -2.55356251821233       -1.47148145482135
N           -0.93510224496765       -0.72506301850889       -0.65138497349982
C           -1.24956210176272        0.49475194276535       -0.20340539086296
O           -0.53714356931340        1.47705498545420       -0.19138498684436
C           -2.65066402183617        0.55710670320046        0.34480082284407
N           -3.24933192119438        1.58732174801790        0.86155886554207
N           -4.47429885524293        1.14251654063101        1.20016590592926
C           -5.44040718291948        2.04432529553079        1.79340716457402
C           -4.59595304693742       -0.12964767535584        0.88786184119068
C           -5.75167117091161       -1.02432916281031        1.05042690700265
O           -3.45887647987254       -0.52314192840878        0.34912167957551
N            1.27427994102491       -0.90810613461647        1.03552035927733
C            2.18288257101649       -0.60262847699060        2.01745531038256
O            1.92171245648475       -0.85926038383315        3.18974530448248
C            3.47045804190720        0.03851490050848        1.54349068928991
O            4.33305853192670        0.32841705697141        2.39154925284509
H            6.63332436579698        2.62925620582836       -0.89280817764070
H            7.62014311816518        1.92834709461529        0.42137656445454
H            7.31527458382848        0.99532465785687       -1.07160003719578
H            0.47682821832950        0.78646789182193       -2.41563026064740
H            1.47283157968284       -0.54125283780685       -3.03609981066708
H           -0.29071709207044       -0.57495969311729       -3.25839262037214
H           -0.38004931512971       -2.85937010997779       -2.14856427081968
H            0.28698431425563       -3.07001141784238       -0.52181272221275
H            1.37444479490640       -2.83684354054748       -1.90228812090479
H           -1.63944137159281       -1.43911654792341       -0.65835816959080
H           -4.93083255985927        2.97536246168434        2.02937661629345
H           -6.24298773347399        2.22018958092022        1.07895099112919
H           -5.84372005001595        1.58650555373939        2.69430351119600
H           -6.30847746022080       -0.76825084010001        1.95002802725769
H           -6.41787497924733       -0.91436561612467        0.19153233219895
H           -5.40909527538670       -2.05698943797411        1.09248270076071
H            0.41344750182432       -1.33894177884357        1.32142974692324

          :  Hamiltonian                  GFN1-xTB          :
         :: total energy             -82.983777744738 Eh    ::
         :: gradient norm              0.000219880631 Eh/a0 ::
         :: HOMO-LUMO gap              0.424232934548 eV    ::
         :: SCC energy               -83.773651105068 Eh    ::
         :: -> Gsolv                  -0.148134314610 Eh    ::
         :: repulsion energy           0.815233150325 Eh    ::

    * Orbital Energies and Occupations

         #    Occupation            Energy/Eh            Energy/eV
      -------------------------------------------------------------
         1        2.0000           -0.9353395             -25.4519
       ...           ...                  ...                  ...
        55        2.0000           -0.5057431             -13.7620
        56        2.0000           -0.5029400             -13.6857
        57        2.0000           -0.4943088             -13.4508
        58        2.0000           -0.4896312             -13.3235
        59        2.0000           -0.4823207             -13.1246
        60        2.0000           -0.4674266             -12.7193
        61        2.0000           -0.4672439             -12.7144
        62        2.0000           -0.4604719             -12.5301
        63        2.0000           -0.4439864             -12.0815
        64        2.0000           -0.4393276             -11.9547
        65        2.0000           -0.4211849             -11.4610
        66        2.0000           -0.3829404             -10.4203
        67        1.9995           -0.3699693             -10.0674 (HOMO)
        68        0.0005           -0.3543790              -9.6431 (LUMO)
        69                         -0.3409651              -9.2781
        70                         -0.2737792              -7.4499
        71                         -0.2437432              -6.6326
        72                         -0.2353490              -6.4042
        73                         -0.2006223              -5.4592
        74                         -0.1831797              -4.9846
        75                         -0.1706512              -4.6437
        76                         -0.1335416              -3.6339
        77                         -0.1232382              -3.3535
        78                         -0.1223316              -3.3288
       ...                                ...                  ...
       134                          0.7524511              20.4752
      -------------------------------------------------------------
                  HL-Gap            0.0155903 Eh            0.4242 eV

Wiberg/Mayer (AO) data.
largest (>0.10) Wiberg bond orders for each atom

     #   Z sym  total        # sym  WBO       # sym  WBO       # sym  WBO
 ---------------------------------------------------------------------------
     1   6 C    3.898 --    27 H    0.987    28 H    0.980    26 H    0.980
                             2 O    0.924
     2   8 O    2.162 --     3 C    1.051     1 C    0.924     4 O    0.110
     3   6 C    3.850 --     4 O    1.577     5 C    1.111     2 O    1.051
     4   8 O    1.851 --     3 C    1.577     2 O    0.110
     5   6 C    3.912 --    24 C    1.271     6 N    1.153     3 C    1.111
                            25 O    0.129
     6   7 N    3.031 --     7 C    1.638     5 C    1.153
     7   6 C    3.933 --     6 N    1.638    21 N    1.090     8 C    0.973
     8   6 C    3.916 --     9 C    0.990    10 C    0.989     7 C    0.973
                            11 N    0.899
     9   6 C    3.989 --     8 C    0.990    31 H    0.987    29 H    0.982
                            30 H    0.982
    10   6 C    3.989 --     8 C    0.989    33 H    0.984    32 H    0.983
                            34 H    0.983
    11   7 N    3.387 --    12 C    1.299     8 C    0.899    35 H    0.891
                            13 O    0.201
    12   6 C    3.927 --    13 O    1.600    11 N    1.299    14 C    0.954
    13   8 O    1.918 --    12 C    1.600    11 N    0.201
    14   6 C    3.832 --    15 N    1.613    20 O    1.051    12 C    0.954
    15   7 N    2.977 --    14 C    1.613    16 N    1.148
    16   7 N    3.631 --    18 C    1.428    15 N    1.148    17 C    0.910
    17   6 C    3.887 --    36 H    0.978    38 H    0.971    37 H    0.968
                            16 N    0.910
    18   6 C    3.841 --    16 N    1.428    20 O    1.145    19 C    1.042
    19   6 C    3.961 --    18 C    1.042    41 H    0.965    39 H    0.963
                            40 H    0.933
    20   8 O    2.372 --    18 C    1.145    14 C    1.051
    21   7 N    3.422 --    22 C    1.158     7 C    1.090    42 H    0.899
                            23 O    0.135
    22   6 C    3.876 --    23 O    1.581    21 N    1.158    24 C    0.966
    23   8 O    1.861 --    22 C    1.581    21 N    0.135
    24   6 C    3.942 --    25 O    1.523     5 C    1.271    22 C    0.966
    25   8 O    1.827 --    24 C    1.523     5 C    0.129
    26   1 H    1.014 --     1 C    0.980
    27   1 H    1.015 --     1 C    0.987
    28   1 H    1.013 --     1 C    0.980
    29   1 H    1.010 --     9 C    0.982
    30   1 H    1.012 --     9 C    0.982
    31   1 H    1.002 --     9 C    0.987
    32   1 H    0.997 --    10 C    0.983
    33   1 H    0.999 --    10 C    0.984
    34   1 H    1.001 --    10 C    0.983
    35   1 H    0.929 --    11 N    0.891
    36   1 H    0.993 --    17 C    0.978
    37   1 H    0.990 --    17 C    0.968
    38   1 H    0.990 --    17 C    0.971
    39   1 H    0.988 --    19 C    0.963
    40   1 H    0.984 --    19 C    0.933
    41   1 H    0.985 --    19 C    0.965
    42   1 H    0.948 --    21 N    0.899
 ---------------------------------------------------------------------------

           -------------------------------------------------
          | TOTAL ENERGY              -82.983777744738 Eh   |
          | GRADIENT NORM               0.000219880631 Eh/α |
          | HOMO-LUMO GAP               0.424232934548 eV   |
           -------------------------------------------------

 * finished run on 2023/06/21 at 17:37:56.334
