   * xtb version 6.5.1 (579679a) compiled by 'ehlert@majestix' on 2022-07-11
          program call               : /lustre/hpc/kemi/ree/PhD/git/ReactivityQM/dep/xtb-6.5.1/bin/xtb --gfn 1 /lustre/hpc/kemi/ree/PhD/git/ReactivityQM/calculations/R02deprot/reac01prodN03/conf13/R02deprot_reac01prodN03_conf13_gfn1.xyz --opt --vfukui --chrg 0 --uhf 0 --alpb DMSO

   ID    Z sym.   atoms
    1    6 C      1, 3, 5, 7-10, 12, 14, 17, 18, 21, 22, 24
    2    8 O      2, 4, 13, 19, 23, 25
    3    7 N      6, 11, 15, 16, 20
    4    1 H      26-42

      * Solvation model:               ALPB
        Solvent                        DMSO
        Solvent mass                       7.8130E+01 g/mol
          :  Hamiltonian                  GFN1-xTB          :
 * total energy  :   -82.9967895 Eh     change       -0.1291767E-10 Eh
 * total energy  :   -83.0057640 Eh     change       -0.8974416E-02 Eh
 * total energy  :   -83.0087962 Eh     change       -0.3032253E-02 Eh
 * total energy  :   -83.0095017 Eh     change       -0.7054604E-03 Eh
 * total energy  :   -83.0101433 Eh     change       -0.6415817E-03 Eh
 * total energy  :   -83.0105514 Eh     change       -0.4081241E-03 Eh
 * total energy  :   -83.0108869 Eh     change       -0.3355219E-03 Eh
 * total energy  :   -83.0111445 Eh     change       -0.2576495E-03 Eh
 * total energy  :   -83.0112624 Eh     change       -0.1178392E-03 Eh
 * total energy  :   -83.0113108 Eh     change       -0.4839950E-04 Eh
 * total energy  :   -83.0114614 Eh     change       -0.4034162E-04 Eh
 * total energy  :   -83.0115079 Eh     change       -0.4650613E-04 Eh
 * total energy  :   -83.0115235 Eh     change       -0.1556103E-04 Eh
 * total energy  :   -83.0115439 Eh     change       -0.2045930E-04 Eh
 * total energy  :   -83.0115536 Eh     change       -0.9626600E-05 Eh
 * total energy  :   -83.0115601 Eh     change       -0.6480682E-05 Eh
 * total energy  :   -83.0115608 Eh     change       -0.7253566E-06 Eh
 * total energy  :   -83.0115666 Eh     change       -0.5838138E-05 Eh
 * total energy  :   -83.0115705 Eh     change       -0.3921593E-05 Eh
   *** GEOMETRY OPTIMIZATION CONVERGED AFTER 22 ITERATIONS ***

 final structure:
================
42
 xtb: 6.5.1 (579679a)
C           -4.79339544244248        2.68002997361967        2.03403455740425
O           -3.80476816066398        1.81370747813905        1.47118335843222
C           -4.13124279463333        1.20134599265483        0.33081096001907
O           -5.19799027494383        1.35162034674415       -0.21835044210985
C           -3.03342809824591        0.32237670594619       -0.16547502421680
N           -1.90069236929006        0.27462585350795        0.59793479203684
C           -0.88762636128004       -0.46015671480758        0.27108328336770
C            0.28130306009678       -0.44202332744737        1.24723020164159
C            0.24512786999867       -1.72831904635540        2.08738312142010
C            0.15562326858178        0.78166201855487        2.16699630092194
N            1.53258468025065       -0.31960238385957        0.49058274399667
C            2.75383300092964       -0.35790885460345        1.07208075384733
O            2.97736143473411       -0.63964020717004        2.23632088342175
C            3.84485284505858       -0.03213293333649        0.12085461888838
N            5.11638343300185        0.02711459429494        0.37010072169794
N            5.72955966114465        0.38587573035573       -0.79047062304763
C            4.79524597439437        0.52589129570823       -1.68023598642947
C            4.94844538825086        0.91396631109995       -3.10095077563461
O            3.57933653270871        0.27598064244660       -1.16829492247650
N           -0.90062604961188       -1.25051587914517       -0.85086890863098
C            0.18299337052015       -2.13250060341811       -1.29055544332378
C           -1.98572716157722       -1.25257867537744       -1.70896136422459
O           -2.00745855290360       -1.93172961121847       -2.73045424884109
C           -3.10687686865782       -0.41188383553933       -1.31672524894369
O           -4.15894189054961       -0.42916779578713       -2.14080203723371
H           -5.10448648128500        3.42566127543634        1.29806290283325
H           -5.66360395633667        2.09994614126982        2.35113902383046
H           -4.33185046156695        3.16539120946695        2.89170106518134
H           -0.75362058415014       -1.84430804141923        2.50633667734996
H            0.96329452694591       -1.66639012026149        2.90255839868184
H            0.47479229494962       -2.60264030147606        1.48329459209250
H            0.99928709486994        0.80883806070215        2.85424038392212
H           -0.76935227552386        0.72165280933903        2.73732853503124
H            0.14577403856710        1.69388219133686        1.57307271248651
H            1.47272497908284        0.07292665890147       -0.43463457535472
H            3.97742281388495        0.92080241998167       -3.58874558331188
H            5.39364437199365        1.90671676172091       -3.16914428635310
H            5.60644460553526        0.21078381180220       -3.61113304222280
H            0.66764127622845       -1.68647062527967       -2.15852480414423
H           -0.25773927342895       -3.08627628752876       -1.58090803473316
H            0.90688346594790       -2.28423502304515       -0.50020751089533
H           -3.96113293058655       -1.02231501595438       -2.88889072637699

          :  Hamiltonian                  GFN1-xTB          :
         :: total energy             -83.011570539331 Eh    ::
         :: gradient norm              0.000479040295 Eh/a0 ::
         :: HOMO-LUMO gap              2.885999058936 eV    ::
         :: SCC energy               -83.794927144069 Eh    ::
         :: -> Gsolv                  -0.058119058013 Eh    ::
         :: repulsion energy           0.809726192615 Eh    ::

    * Orbital Energies and Occupations

         #    Occupation            Energy/Eh            Energy/eV
      -------------------------------------------------------------
         1        2.0000           -0.8670836             -23.5945
       ...           ...                  ...                  ...
        55        2.0000           -0.5059747             -13.7683
        56        2.0000           -0.5017940             -13.6545
        57        2.0000           -0.4960622             -13.4985
        58        2.0000           -0.4839691             -13.1695
        59        2.0000           -0.4811370             -13.0924
        60        2.0000           -0.4755097             -12.9393
        61        2.0000           -0.4687333             -12.7549
        62        2.0000           -0.4624169             -12.5830
        63        2.0000           -0.4591271             -12.4935
        64        2.0000           -0.4525280             -12.3139
        65        2.0000           -0.4492016             -12.2234
        66        2.0000           -0.4457421             -12.1293
        67        2.0000           -0.4292422             -11.6803 (HOMO)
        68                         -0.3231837              -8.7943 (LUMO)
        69                         -0.3128124              -8.5121
        70                         -0.2853775              -7.7655
        71                         -0.2581569              -7.0248
        72                         -0.2399145              -6.5284
        73                         -0.2006204              -5.4592
        74                         -0.1571472              -4.2762
        75                         -0.1427673              -3.8849
        76                         -0.1400232              -3.8102
        77                         -0.1379092              -3.7527
        78                         -0.1270577              -3.4574
       ...                                ...                  ...
       134                          0.7402719              20.1438
      -------------------------------------------------------------
                  HL-Gap            0.1060585 Eh            2.8860 eV

Wiberg/Mayer (AO) data.
largest (>0.10) Wiberg bond orders for each atom

     #   Z sym  total        # sym  WBO       # sym  WBO       # sym  WBO
 ---------------------------------------------------------------------------
     1   6 C    3.873 --    28 H    0.986    26 H    0.980    27 H    0.979
                             2 O    0.899
     2   8 O    2.199 --     3 C    1.110     1 C    0.899     4 O    0.134
     3   6 C    3.851 --     4 O    1.660     2 O    1.110     5 C    1.000
     4   8 O    1.925 --     3 C    1.660     2 O    0.134
     5   6 C    3.963 --    24 C    1.490     6 N    1.189     3 C    1.000
     6   7 N    3.032 --     7 C    1.573     5 C    1.189
     7   6 C    3.930 --     6 N    1.573    20 N    1.168     8 C    0.978
     8   6 C    3.933 --    10 C    0.989     9 C    0.980     7 C    0.978
                            11 N    0.923
     9   6 C    3.987 --    29 H    0.985     8 C    0.980    31 H    0.980
                            30 H    0.977
    10   6 C    3.988 --     8 C    0.989    34 H    0.985    33 H    0.983
                            32 H    0.982
    11   7 N    3.340 --    12 C    1.241     8 C    0.923    35 H    0.896
                            13 O    0.172
    12   6 C    3.915 --    13 O    1.593    11 N    1.241    14 C    0.994
    13   8 O    1.909 --    12 C    1.593    11 N    0.172
    14   6 C    3.872 --    15 N    1.620    19 O    1.045    12 C    0.994
    15   7 N    3.001 --    14 C    1.620    16 N    1.204
    16   7 N    2.980 --    17 C    1.606    15 N    1.204
    17   6 C    3.867 --    16 N    1.606    19 O    1.075    18 C    1.030
    18   6 C    3.986 --    17 C    1.030    36 H    0.983    38 H    0.964
                            37 H    0.963
    19   8 O    2.318 --    17 C    1.075    14 C    1.045
    20   7 N    3.511 --     7 C    1.168    22 C    1.132    21 C    0.926
                            23 O    0.135
    21   6 C    3.919 --    41 H    0.979    39 H    0.975    40 H    0.974
                            20 N    0.926
    22   6 C    3.914 --    23 O    1.557    20 N    1.132    24 C    1.076
    23   8 O    1.901 --    22 C    1.557    20 N    0.135
    24   6 C    3.921 --     5 C    1.490    25 O    1.110    22 C    1.076
    25   8 O    2.088 --    24 C    1.110    42 H    0.806
    26   1 H    1.008 --     1 C    0.980
    27   1 H    1.007 --     1 C    0.979
    28   1 H    1.011 --     1 C    0.986
    29   1 H    1.002 --     9 C    0.985
    30   1 H    1.011 --     9 C    0.977
    31   1 H    1.002 --     9 C    0.980
    32   1 H    1.006 --    10 C    0.982
    33   1 H    1.013 --    10 C    0.983
    34   1 H    1.006 --    10 C    0.985
    35   1 H    0.940 --    11 N    0.896
    36   1 H    0.997 --    18 C    0.983
    37   1 H    0.997 --    18 C    0.963
    38   1 H    0.997 --    18 C    0.964
    39   1 H    1.000 --    21 C    0.975
    40   1 H    1.004 --    21 C    0.974
    41   1 H    1.010 --    21 C    0.979
    42   1 H    0.847 --    25 O    0.806
 ---------------------------------------------------------------------------

           -------------------------------------------------
          | TOTAL ENERGY              -83.011570539331 Eh   |
          | GRADIENT NORM               0.000479040295 Eh/α |
          | HOMO-LUMO GAP               2.885999058936 eV   |
           -------------------------------------------------

 * finished run on 2023/06/20 at 18:07:43.274
