   * xtb version 6.5.1 (579679a) compiled by 'ehlert@majestix' on 2022-07-11
          program call               : /lustre/hpc/kemi/ree/PhD/git/ReactivityQM/dep/xtb-6.5.1/bin/xtb --gfn 1 /lustre/hpc/kemi/ree/PhD/git/ReactivityQM/calculations/R02methylcation/reac01/conf08/R02methylcation_reac01_conf08_gfn1.xyz --opt --vfukui --chrg -1 --uhf 0 --alpb DMSO

   ID    Z sym.   atoms
    1    6 C      1, 3, 5, 7-10, 12, 14, 17, 18, 21, 23
    2    8 O      2, 4, 13, 19, 22, 24
    3    7 N      6, 11, 15, 16, 20
    4    1 H      25-38

      * Solvation model:               ALPB
        Solvent                        DMSO
        Solvent mass                       7.8130E+01 g/mol
          :  Hamiltonian                  GFN1-xTB          :
 * total energy  :   -79.6001920 Eh     change       -0.3359446E-10 Eh
 * total energy  :   -79.6134221 Eh     change       -0.1323013E-01 Eh
 * total energy  :   -79.6187155 Eh     change       -0.5293422E-02 Eh
 * total energy  :   -79.6196467 Eh     change       -0.9311634E-03 Eh
 * total energy  :   -79.6200564 Eh     change       -0.4097024E-03 Eh
 * total energy  :   -79.6201563 Eh     change       -0.9989104E-04 Eh
 * total energy  :   -79.6202025 Eh     change       -0.4625871E-04 Eh
 * total energy  :   -79.6202300 Eh     change       -0.2747133E-04 Eh
 * total energy  :   -79.6202566 Eh     change       -0.2661852E-04 Eh
 * total energy  :   -79.6202852 Eh     change       -0.2855879E-04 Eh
 * total energy  :   -79.6215244 Eh     change       -0.1397455E-04 Eh
 * total energy  :   -79.6215308 Eh     change       -0.6456259E-05 Eh
 * total energy  :   -79.6215394 Eh     change       -0.8560415E-05 Eh
 * total energy  :   -79.6215460 Eh     change       -0.6626471E-05 Eh
 * total energy  :   -79.6215569 Eh     change       -0.1088834E-04 Eh
 * total energy  :   -79.6215691 Eh     change       -0.1217465E-04 Eh
 * total energy  :   -79.6215775 Eh     change       -0.8375287E-05 Eh
 * total energy  :   -79.6215826 Eh     change       -0.5199150E-05 Eh
 * total energy  :   -79.6215875 Eh     change       -0.4813200E-05 Eh
   *** GEOMETRY OPTIMIZATION CONVERGED AFTER 53 ITERATIONS ***

 final structure:
================
38
 xtb: 6.5.1 (579679a)
C            6.28460589253515        1.61972605504445        0.86346129744333
O            5.15471481769636        0.81502804290693        1.16712576220677
C            4.15313854382151        0.83094455278078        0.25054327432760
O            4.24716154428590        1.51660545018124       -0.76183226220361
C            3.01497955043986       -0.01320950413826        0.57873524323206
N            2.02268738743998        0.02962942431477       -0.38375298904185
C            0.95404039688795       -0.66649239277366       -0.25945870487103
C           -0.11166627781949       -0.60751926580155       -1.34296225716172
C           -0.41141874593633       -2.00042570701888       -1.90875600375698
C            0.37119276445444        0.31251550467499       -2.46654295455051
N           -1.34233828541661        0.00283644861561       -0.80251545981690
C           -2.23875472739257       -0.59469373753080       -0.00064609382307
O           -2.15058619592631       -1.71469070198602        0.47847202655649
C           -3.39126834537398        0.30692083505224        0.27135126403134
N           -3.51409417394365        1.53838775506516       -0.12426604386761
N           -4.70720659959096        1.98878981672361        0.35758960168430
C           -5.23556627843107        1.00241611667441        1.01598391056454
C           -6.53535820079000        0.98014537974933        1.72209442452072
O           -4.45130145060439       -0.08552796842787        1.00072952365877
N            0.74301170857495       -1.48385526711949        0.82951154759442
C            1.62789431774097       -1.60985873232683        1.86696915944291
O            1.36068949893116       -2.34512143741980        2.81555706623329
C            2.90549320010221       -0.80664726563977        1.75063278637919
O            3.74713454751914       -0.89397562951108        2.66410782215234
H            6.75843467606463        1.28805798414769       -0.06564175205570
H            6.98463641134568        1.51438228549867        1.69140867694216
H            5.99582460079772        2.66982556604439        0.75458123730488
H            0.48586427370346       -2.39056476003159       -2.38701654058840
H           -1.20554421006351       -1.93266692011513       -2.65020714855392
H           -0.71998359521726       -2.69196620280823       -1.12834218355521
H            1.28476112016979       -0.09133696833094       -2.90020513933881
H           -0.38830966239902        0.38661495894167       -3.24210168577797
H            0.58634377716698        1.30653184330409       -2.07600232475456
H           -1.57610689166247        0.92210675228062       -1.14611095305775
H           -6.98832978207509        1.96761739531999        1.68595478959082
H           -6.39261804410704        0.67884623974291        2.75938037216833
H           -7.20213047532773        0.25847005093664        1.25032485812109
H           -0.12002608760511       -2.00784799701930        0.89475285262046

          :  Hamiltonian                  GFN1-xTB          :
         :: total energy             -79.621587462606 Eh    ::
         :: gradient norm              0.000547709155 Eh/a0 ::
         :: HOMO-LUMO gap              1.586898627063 eV    ::
         :: SCC energy               -80.347265433125 Eh    ::
         :: -> Gsolv                  -0.124887503954 Eh    ::
         :: repulsion energy           0.748558439573 Eh    ::

    * Orbital Energies and Occupations

         #    Occupation            Energy/Eh            Energy/eV
      -------------------------------------------------------------
         1        2.0000           -0.8606872             -23.4205
       ...           ...                  ...                  ...
        52        2.0000           -0.4862143             -13.2306
        53        2.0000           -0.4793513             -13.0438
        54        2.0000           -0.4642221             -12.6321
        55        2.0000           -0.4607459             -12.5375
        56        2.0000           -0.4570987             -12.4383
        57        2.0000           -0.4530080             -12.3270
        58        2.0000           -0.4483166             -12.1993
        59        2.0000           -0.4431584             -12.0590
        60        2.0000           -0.4359041             -11.8616
        61        2.0000           -0.4349041             -11.8343
        62        2.0000           -0.4131462             -11.2423
        63        2.0000           -0.3764097             -10.2426
        64        2.0000           -0.3642621              -9.9121 (HOMO)
        65                         -0.3059446              -8.3252 (LUMO)
        66                         -0.2677149              -7.2849
        67                         -0.2543660              -6.9217
        68                         -0.2378562              -6.4724
        69                         -0.1950114              -5.3065
        70                         -0.1943310              -5.2880
        71                         -0.1410658              -3.8386
        72                         -0.1214274              -3.3042
        73                         -0.1197048              -3.2573
        74                         -0.1170218              -3.1843
        75                         -0.1068584              -2.9078
       ...                                ...                  ...
       124                          0.7565783              20.5875
      -------------------------------------------------------------
                  HL-Gap            0.0583175 Eh            1.5869 eV

Wiberg/Mayer (AO) data.
largest (>0.10) Wiberg bond orders for each atom

     #   Z sym  total        # sym  WBO       # sym  WBO       # sym  WBO
 ---------------------------------------------------------------------------
     1   6 C    3.899 --    26 H    0.987    25 H    0.980    27 H    0.980
                             2 O    0.926
     2   8 O    2.159 --     3 C    1.046     1 C    0.926     4 O    0.109
     3   6 C    3.850 --     4 O    1.573     5 C    1.116     2 O    1.046
     4   8 O    1.849 --     3 C    1.573     2 O    0.109
     5   6 C    3.914 --    23 C    1.271     6 N    1.153     3 C    1.116
                            24 O    0.128
     6   7 N    3.031 --     7 C    1.631     5 C    1.153
     7   6 C    3.934 --     6 N    1.631    20 N    1.103     8 C    0.968
     8   6 C    3.929 --    10 C    1.002     9 C    0.989     7 C    0.968
                            11 N    0.905
     9   6 C    3.990 --     8 C    0.989    28 H    0.985    29 H    0.985
                            30 H    0.978
    10   6 C    3.993 --     8 C    1.002    32 H    0.986    31 H    0.983
                            33 H    0.983
    11   7 N    3.358 --    12 C    1.279     8 C    0.905    34 H    0.897
                            13 O    0.181
    12   6 C    3.919 --    13 O    1.571    11 N    1.279    14 C    0.986
    13   8 O    1.912 --    12 C    1.571    11 N    0.181
    14   6 C    3.873 --    15 N    1.612    19 O    1.065    12 C    0.986
    15   7 N    3.014 --    14 C    1.612    16 N    1.197
    16   7 N    2.980 --    17 C    1.608    15 N    1.197
    17   6 C    3.872 --    16 N    1.608    19 O    1.082    18 C    1.031
    18   6 C    3.987 --    17 C    1.031    35 H    0.983    36 H    0.966
                            37 H    0.962
    19   8 O    2.330 --    17 C    1.082    14 C    1.065
    20   7 N    3.435 --    21 C    1.169     7 C    1.103    38 H    0.879
                            22 O    0.136
    21   6 C    3.882 --    22 O    1.574    20 N    1.169    23 C    0.968
    22   8 O    1.854 --    21 C    1.574    20 N    0.136
    23   6 C    3.942 --    24 O    1.519     5 C    1.271    21 C    0.968
    24   8 O    1.824 --    23 C    1.519     5 C    0.128
    25   1 H    1.014 --     1 C    0.980
    26   1 H    1.016 --     1 C    0.987
    27   1 H    1.014 --     1 C    0.980
    28   1 H    1.003 --     9 C    0.985
    29   1 H    1.001 --     9 C    0.985
    30   1 H    1.011 --     9 C    0.978
    31   1 H    1.010 --    10 C    0.983
    32   1 H    1.001 --    10 C    0.986
    33   1 H    1.011 --    10 C    0.983
    34   1 H    0.954 --    11 N    0.897
    35   1 H    0.999 --    18 C    0.983
    36   1 H    0.997 --    18 C    0.966
    37   1 H    0.997 --    18 C    0.962
    38   1 H    0.953 --    20 N    0.879
 ---------------------------------------------------------------------------

           -------------------------------------------------
          | TOTAL ENERGY              -79.621587462606 Eh   |
          | GRADIENT NORM               0.000547709155 Eh/α |
          | HOMO-LUMO GAP               1.586898627063 eV   |
           -------------------------------------------------

 * finished run on 2023/06/21 at 17:04:00.007
