   * xtb version 6.5.1 (579679a) compiled by 'ehlert@majestix' on 2022-07-11
          program call               : /lustre/hpc/kemi/ree/PhD/git/ReactivityQM/dep/xtb-6.5.1/bin/xtb --gfn 1 /lustre/hpc/kemi/ree/PhD/git/ReactivityQM/calculations/R02deprot/reac01prodE05/conf17/R02deprot_reac01prodE05_conf17_gfn1.xyz --opt --vfukui --chrg -2 --uhf 0 --alpb DMSO

   ID    Z sym.   atoms
    1    6 C      1, 3, 5, 6, 8, 11-14, 16, 18, 21, 22, 25
    2    8 O      2, 4, 7, 9, 17, 23
    3    7 N      10, 15, 19, 20, 24
    4    1 H      26-42

      * Solvation model:               ALPB
        Solvent                        DMSO
        Solvent mass                       7.8130E+01 g/mol
          :  Hamiltonian                  GFN1-xTB          :
 * total energy  :   -83.5582129 Eh     change       -0.6473044E-09 Eh
 * total energy  :   -83.5740862 Eh     change       -0.1587330E-01 Eh
 * total energy  :   -83.5801336 Eh     change       -0.6047406E-02 Eh
 * total energy  :   -83.5812020 Eh     change       -0.1068420E-02 Eh
 * total energy  :   -83.5818410 Eh     change       -0.6389714E-03 Eh
 * total energy  :   -83.5820440 Eh     change       -0.2030615E-03 Eh
 * total energy  :   -83.5822286 Eh     change       -0.1846078E-03 Eh
 * total energy  :   -83.5823578 Eh     change       -0.1291733E-03 Eh
 * total energy  :   -83.5824471 Eh     change       -0.8931854E-04 Eh
 * total energy  :   -83.5825076 Eh     change       -0.6044888E-04 Eh
 * total energy  :   -83.5836446 Eh     change       -0.9911852E-05 Eh
 * total energy  :   -83.5836519 Eh     change       -0.7292658E-05 Eh
 * total energy  :   -83.5836643 Eh     change       -0.1238781E-04 Eh
 * total energy  :   -83.5836743 Eh     change       -0.1003672E-04 Eh
 * total energy  :   -83.5835218 Eh     change        0.1525316E-03 Eh
 * total energy  :   -83.5836751 Eh     change       -0.1533465E-03 Eh
 * total energy  :   -83.5836868 Eh     change       -0.1169791E-04 Eh
 * total energy  :   -83.5836935 Eh     change       -0.6615039E-05 Eh
 * total energy  :   -83.5836956 Eh     change       -0.2171561E-05 Eh
   *** GEOMETRY OPTIMIZATION CONVERGED AFTER 60 ITERATIONS ***

 final structure:
================
42
 xtb: 6.5.1 (579679a)
C           -6.06863782054447        1.93400304438080        0.19737984372292
O           -5.10979649696341        1.19688624726818       -0.53785065666496
C           -3.86175268294895        1.05671400302552        0.11363139688983
O           -3.73643053348885        1.57950213061766        1.24872544212830
C           -2.90565557952672        0.34347277838748       -0.62422304706945
C           -3.08803140907975       -0.34301466517002       -1.86555245895084
O           -4.17392311451842       -0.08060409429118       -2.69136926748811
C           -2.18519879103658       -1.32323437106192       -2.31876954429543
O           -2.26916732088463       -1.94909579946849       -3.41245263455217
N           -1.11738405815985       -1.64007358048853       -1.44019218570674
C           -0.84389904172457       -0.90749137652668       -0.41538687324100
C            0.38090567974469       -1.34019515312842        0.40997685714653
C            0.85929334559973       -2.71148981142575       -0.10233343351294
C            0.00516832425263       -1.46695982911285        1.89493430620266
N            1.44199430916825       -0.34494806714359        0.20742192204185
C            2.70551856715519       -0.52897407058666        0.80972125358457
O            2.86593442226025       -1.17419450849516        1.87014389264259
C            3.72370614138661        0.16260695066070        0.09593849797844
N            3.57126703632324        0.82361473810862       -1.06214087945346
N            4.80881025246888        1.30046594759178       -1.40059900838058
C            5.63368621346758        0.92823762494545       -0.47798301147291
C            7.08878639746681        1.21565575504425       -0.40902368624174
O            5.04505201594280        0.20580715492627        0.50731210565561
N           -1.60811795673710        0.15357235943077       -0.02499794950993
C           -1.08445599621401        1.24578192975696        0.79200129423879
H           -5.72214996311748        2.95714746941606        0.38717427702007
H           -6.28396234422774        1.45540057005562        1.16056511564034
H           -6.98103923768430        1.96822882385034       -0.39844260371511
H           -4.79022361826893        0.52686800143836       -2.25509005944500
H            1.72400005220747       -3.04084136364354        0.47202237532585
H            1.13374791916809       -2.64912065600139       -1.15523994345070
H            0.06166370649282       -3.44592253266602        0.00574695897291
H            0.03241251287442       -0.50184053098735        2.39558694855105
H            0.70147387503645       -2.12824631743959        2.40789633608991
H           -0.99800905528286       -1.88451696723142        1.98424571108245
H            1.53037084834888       -0.06302967309089       -0.76582417032332
H            7.30650397359743        1.88688077759552        0.42277842142534
H            7.65071330296253        0.29479189174010       -0.25331445540990
H            7.41201084802005        1.68374633928282       -1.33590761111843
H           -1.42864423487022        1.16888352858967        1.82569885964266
H           -1.43174881968900        2.19577115006409        0.38172411018790
H            0.00521033102106        1.23975515179246        0.77415655383337

          :  Hamiltonian                  GFN1-xTB          :
         :: total energy             -83.583695633807 Eh    ::
         :: gradient norm              0.000226596580 Eh/a0 ::
         :: HOMO-LUMO gap              0.026178446378 eV    ::
         :: SCC energy               -84.306293624255 Eh    ::
         :: -> Gsolv                  -0.262061244046 Eh    ::
         :: repulsion energy           0.749180407939 Eh    ::

    * Orbital Energies and Occupations

         #    Occupation            Energy/Eh            Energy/eV
      -------------------------------------------------------------
         1        2.0000           -0.7969568             -21.6863
       ...           ...                  ...                  ...
        56        2.0000           -0.4371283             -11.8949
        57        2.0000           -0.4360337             -11.8651
        58        2.0000           -0.4263207             -11.6008
        59        2.0000           -0.4057549             -11.0412
        60        2.0000           -0.4019542             -10.9377
        61        2.0000           -0.4002701             -10.8919
        62        2.0000           -0.3947973             -10.7430
        63        2.0000           -0.3928929             -10.6912
        64        2.0000           -0.3913436             -10.6490
        65        2.0000           -0.3832844             -10.4297
        66        2.0000           -0.3529408              -9.6040
        67        2.0000           -0.3475926              -9.4585
        68        1.2479           -0.2660391              -7.2393 (HOMO)
        69        0.7521           -0.2650770              -7.2131 (LUMO)
        70                         -0.2171512              -5.9090
        71                         -0.2071788              -5.6376
        72                         -0.1556579              -4.2357
        73                         -0.1371616              -3.7324
        74                         -0.1234171              -3.3583
        75                         -0.1074070              -2.9227
        76                         -0.1012478              -2.7551
        77                         -0.0946526              -2.5756
        78                         -0.0893489              -2.4313
        79                         -0.0799338              -2.1751
       ...                                ...                  ...
       134                          0.7014510              19.0875
      -------------------------------------------------------------
                  HL-Gap            0.0009620 Eh            0.0262 eV

Wiberg/Mayer (AO) data.
largest (>0.10) Wiberg bond orders for each atom

     #   Z sym  total        # sym  WBO       # sym  WBO       # sym  WBO
 ---------------------------------------------------------------------------
     1   6 C    3.911 --    28 H    0.987    27 H    0.981    26 H    0.981
                             2 O    0.939
     2   8 O    2.066 --     1 C    0.939     3 C    0.917
     3   6 C    3.733 --     4 O    1.407     5 C    1.316     2 O    0.917
     4   8 O    1.683 --     3 C    1.407
     5   6 C    3.739 --     3 C    1.316     6 C    1.214    24 N    0.966
     6   6 C    3.697 --     8 C    1.289     5 C    1.214     7 O    0.994
     7   8 O    1.942 --     6 C    0.994    29 H    0.837
     8   6 C    3.834 --     9 O    1.406     6 C    1.289    10 N    1.030
     9   8 O    1.624 --     8 C    1.406
    10   7 N    2.965 --    11 C    1.602     8 C    1.030    24 N    0.133
    11   6 C    3.931 --    10 N    1.602    24 N    1.199    12 C    0.962
    12   6 C    3.949 --    14 C    0.992    13 C    0.991    11 C    0.962
                            15 N    0.940
    13   6 C    3.993 --    12 C    0.991    32 H    0.987    31 H    0.984
                            30 H    0.984
    14   6 C    3.994 --    12 C    0.992    35 H    0.988    33 H    0.982
                            34 H    0.981
    15   7 N    3.141 --    16 C    1.054    12 C    0.940    36 H    0.922
                            17 O    0.101
    16   6 C    3.738 --    17 O    1.440    18 C    1.174    15 N    1.054
    17   8 O    1.674 --    16 C    1.440    15 N    0.101
    18   6 C    3.686 --    19 N    1.372    16 C    1.174    23 O    0.970
    19   7 N    2.723 --    18 C    1.372    20 N    1.184
    20   7 N    2.980 --    21 C    1.629    19 N    1.184
    21   6 C    3.817 --    20 N    1.629    23 O    1.047    22 C    1.023
    22   6 C    3.994 --    21 C    1.023    39 H    0.986    38 H    0.974
                            37 H    0.970
    23   8 O    2.174 --    21 C    1.047    18 C    0.970
    24   7 N    3.342 --    11 C    1.199     5 C    0.966    25 C    0.946
                            10 N    0.133
    25   6 C    3.953 --    41 H    0.982    40 H    0.979    42 H    0.977
                            24 N    0.946
    26   1 H    1.020 --     1 C    0.981
    27   1 H    1.020 --     1 C    0.981
    28   1 H    1.018 --     1 C    0.987
    29   1 H    0.895 --     7 O    0.837
    30   1 H    1.013 --    13 C    0.984
    31   1 H    1.023 --    13 C    0.984
    32   1 H    1.016 --    13 C    0.987
    33   1 H    1.011 --    14 C    0.982
    34   1 H    1.025 --    14 C    0.981
    35   1 H    1.008 --    14 C    0.988
    36   1 H    0.983 --    15 N    0.922
    37   1 H    1.001 --    22 C    0.970
    38   1 H    1.001 --    22 C    0.974
    39   1 H    1.005 --    22 C    0.986
    40   1 H    1.031 --    25 C    0.979
    41   1 H    1.016 --    25 C    0.982
    42   1 H    1.023 --    25 C    0.977
 ---------------------------------------------------------------------------

           -------------------------------------------------
          | TOTAL ENERGY              -83.583695633807 Eh   |
          | GRADIENT NORM               0.000226596580 Eh/α |
          | HOMO-LUMO GAP               0.026178446378 eV   |
           -------------------------------------------------

 * finished run on 2023/06/20 at 17:41:28.566
