   * xtb version 6.5.1 (579679a) compiled by 'ehlert@majestix' on 2022-07-11
          program call               : /lustre/hpc/kemi/ree/PhD/git/ReactivityQM/dep/xtb-6.5.1/bin/xtb --gfn 1 /lustre/hpc/kemi/ree/PhD/git/ReactivityQM/calculations/R03/reac02prodE05/conf11/R03_reac02prodE05_conf11_gfn1.xyz --opt --vfukui --chrg -1 --uhf 0 --alpb DMSO

   ID    Z sym.   atoms
    1    6 C      1, 3, 5, 6, 8, 11-15, 17, 19, 22, 23, 26
    2    8 O      2, 4, 7, 9, 18, 24
    3    7 N      10, 16, 20, 21, 25
    4    1 H      27-46

      * Solvation model:               ALPB
        Solvent                        DMSO
        Solvent mass                       7.8130E+01 g/mol
          :  Hamiltonian                  GFN1-xTB          :
 * total energy  :   -86.9792068 Eh     change       -0.3244338E-10 Eh
 * total energy  :   -86.9919528 Eh     change       -0.1274603E-01 Eh
 * total energy  :   -86.9975779 Eh     change       -0.5625068E-02 Eh
 * total energy  :   -86.9990884 Eh     change       -0.1510538E-02 Eh
 * total energy  :   -87.0004229 Eh     change       -0.1334509E-02 Eh
 * total energy  :   -87.0012890 Eh     change       -0.8660497E-03 Eh
 * total energy  :   -87.0021478 Eh     change       -0.8588140E-03 Eh
 * total energy  :   -87.0030709 Eh     change       -0.9230862E-03 Eh
 * total energy  :   -87.0039108 Eh     change       -0.8399458E-03 Eh
 * total energy  :   -87.0046494 Eh     change       -0.7386155E-03 Eh
 * total energy  :   -87.0139598 Eh     change       -0.1610180E-04 Eh
 * total energy  :   -87.0139728 Eh     change       -0.1303404E-04 Eh
 * total energy  :   -87.0139853 Eh     change       -0.1249983E-04 Eh
 * total energy  :   -87.0139992 Eh     change       -0.1390165E-04 Eh
 * total energy  :   -87.0140122 Eh     change       -0.1301522E-04 Eh
 * total energy  :   -87.0140216 Eh     change       -0.9410147E-05 Eh
 * total energy  :   -87.0140282 Eh     change       -0.6574789E-05 Eh
 * total energy  :   -87.0140336 Eh     change       -0.5456161E-05 Eh
 * total energy  :   -87.0140385 Eh     change       -0.4834943E-05 Eh
   *** GEOMETRY OPTIMIZATION CONVERGED AFTER 61 ITERATIONS ***

 final structure:
================
46
 xtb: 6.5.1 (579679a)
C           -4.85083054855906        0.95940241626266        2.55941729828765
O           -3.77016534196462        0.42201411771749        1.80957703672061
C           -4.02317784822299        0.20249016200073        0.48441259984342
O           -5.13456025932858        0.47072931730674        0.00550279157992
C           -2.94113893633520       -0.38099725569403       -0.24064531585637
C           -2.98820253902310       -0.59080335055316       -1.61547042312035
O           -4.09152508567311       -0.27982544248766       -2.35063196612502
C           -1.80126871925222       -0.97548571279788       -2.34066150302846
O           -1.77308442321756       -1.41206482185683       -3.52024140684668
N           -0.63946973459196       -0.72528600420969       -1.63418178248117
C            0.62024843016483       -0.80128786108126       -2.37182485616929
C           -0.58187868852556       -0.47220161776092       -0.26407624553103
C            0.05329025855856        0.83986492203683        0.19527532642878
C           -0.19594152675531        1.04038652136206        1.69633819853550
C           -0.47595289342065        2.06076656822422       -0.57992178418949
N            1.51563766585697        0.80718653843943       -0.03024524308992
C            2.32661174589280       -0.13077178521500        0.48650973226138
O            1.98170398074274       -1.10215830674943        1.14267265905044
C            3.75078867760250        0.14560141678819        0.14121333380542
N            4.19290600223523        1.13986229499007       -0.57032875242092
N            5.54897967141881        0.99815106804330       -0.64519411272757
C            5.84522422818161       -0.07293743509945        0.02398204384661
C            7.18653123390310       -0.65851370567195        0.24399154267476
O            4.75493835920315       -0.65733202672062        0.54444439291201
N           -1.77050173972987       -0.83640430377628        0.46501576283002
C           -1.81489395672622       -2.28758171702952        0.73909488891876
H           -4.51718310488040        1.03275147758152        3.59405569132770
H           -5.72719843415879        0.30624146025977        2.49881276763239
H           -5.12502409461921        1.95240960511199        2.18881393351401
H           -4.79361764886681        0.03506963043434       -1.73668800787554
H            0.43448476688080       -1.24615691632936       -3.35097172115247
H            1.04845985784440        0.19384840112426       -2.50726341618625
H            1.32999905702180       -1.41924348078965       -1.82052288203241
H            0.14890372814043        0.17164800228547        2.25576667914040
H           -1.26283809776556        1.16743326750228        1.87653038562718
H            0.33359680702260        1.92488843116885        2.04840318756887
H           -0.25829477051387        1.96534265442406       -1.64297714200739
H           -1.55515715609720        2.13050116604939       -0.44843301001059
H           -0.01782143164416        2.97688328847877       -0.20847228643323
H            1.94341154435191        1.59877668199259       -0.48453369610885
H            7.21967745350926       -1.67535839163134       -0.14686995756325
H            7.93620672419835       -0.05139139392067       -0.25691151995997
H            7.40534142935857       -0.70028963799753        1.31082228368293
H           -2.66917045439748       -2.49811269825925        1.38387310453576
H           -0.89333010496057       -2.56159154764291        1.25422730328030
H           -1.90471608280913       -2.87876899637247       -0.18168791309498

          :  Hamiltonian                  GFN1-xTB          :
         :: total energy             -87.014038480072 Eh    ::
         :: gradient norm              0.000295271118 Eh/a0 ::
         :: HOMO-LUMO gap              0.276504915952 eV    ::
         :: SCC energy               -87.792957023317 Eh    ::
         :: -> Gsolv                  -0.111566258538 Eh    ::
         :: repulsion energy           0.810443389844 Eh    ::

    * Orbital Energies and Occupations

         #    Occupation            Energy/Eh            Energy/eV
      -------------------------------------------------------------
         1        2.0000           -0.8545326             -23.2530
       ...           ...                  ...                  ...
        59        2.0000           -0.4730222             -12.8716
        60        2.0000           -0.4639173             -12.6238
        61        2.0000           -0.4605510             -12.5322
        62        2.0000           -0.4528976             -12.3240
        63        2.0000           -0.4491894             -12.2231
        64        2.0000           -0.4404157             -11.9843
        65        2.0000           -0.4347254             -11.8295
        66        2.0000           -0.4302064             -11.7065
        67        2.0000           -0.4085834             -11.1181
        68        2.0000           -0.3980783             -10.8323
        69        2.0000           -0.3849972             -10.4763
        70        2.0000           -0.3649185              -9.9299
        71        1.9905           -0.3069016              -8.3512 (HOMO)
        72        0.0095           -0.2967402              -8.0747 (LUMO)
        73                         -0.2719223              -7.3994
        74                         -0.2493615              -6.7855
        75                         -0.1900094              -5.1704
        76                         -0.1847019              -5.0260
        77                         -0.1394152              -3.7937
        78                         -0.1329737              -3.6184
        79                         -0.1205405              -3.2801
        80                         -0.1194701              -3.2509
        81                         -0.1087879              -2.9603
        82                         -0.0997446              -2.7142
       ...                                ...                  ...
       144                          0.7340607              19.9748
      -------------------------------------------------------------
                  HL-Gap            0.0101614 Eh            0.2765 eV

Wiberg/Mayer (AO) data.
largest (>0.10) Wiberg bond orders for each atom

     #   Z sym  total        # sym  WBO       # sym  WBO       # sym  WBO
 ---------------------------------------------------------------------------
     1   6 C    3.898 --    27 H    0.987    29 H    0.981    28 H    0.980
                             2 O    0.925
     2   8 O    2.146 --     3 C    1.023     1 C    0.925
     3   6 C    3.858 --     4 O    1.494     5 C    1.188     2 O    1.023
     4   8 O    1.868 --     3 C    1.494
     5   6 C    3.927 --     6 C    1.400     3 C    1.188    25 N    0.977
     6   6 C    3.905 --     5 C    1.400     8 C    1.140     7 O    1.054
                            12 C    0.134
     7   8 O    2.029 --     6 C    1.054    30 H    0.802
     8   6 C    3.925 --     9 O    1.405    10 N    1.152     6 C    1.140
                            12 C    0.118
     9   8 O    1.743 --     8 C    1.405    10 N    0.141
    10   7 N    3.471 --     8 C    1.152    12 C    1.097    11 C    0.951
                             9 O    0.141
    11   6 C    3.958 --    33 H    0.986    32 H    0.980    31 H    0.978
                            10 N    0.951
    12   6 C    3.676 --    10 N    1.097    25 N    0.973    13 C    0.965
                             6 C    0.134     8 C    0.118
    13   6 C    3.914 --    14 C    0.994    15 C    0.984    12 C    0.965
                            16 N    0.896
    14   6 C    3.994 --    13 C    0.994    36 H    0.988    34 H    0.982
                            35 H    0.982
    15   6 C    3.995 --    39 H    0.985    13 C    0.984    38 H    0.984
                            37 H    0.984
    16   7 N    3.364 --    17 C    1.278    40 H    0.904    13 C    0.896
                            18 O    0.184
    17   6 C    3.920 --    18 O    1.572    16 N    1.278    19 C    0.982
    18   8 O    1.880 --    17 C    1.572    16 N    0.184
    19   6 C    3.863 --    20 N    1.611    24 O    1.060    17 C    0.982
    20   7 N    3.003 --    19 C    1.611    21 N    1.191
    21   7 N    2.980 --    22 C    1.615    20 N    1.191
    22   6 C    3.872 --    21 N    1.615    24 O    1.080    23 C    1.030
    23   6 C    3.988 --    22 C    1.030    42 H    0.983    41 H    0.965
                            43 H    0.965
    24   8 O    2.321 --    22 C    1.080    19 C    1.060
    25   7 N    3.056 --     5 C    0.977    12 C    0.973    26 C    0.960
    26   6 C    3.982 --    44 H    0.988    45 H    0.988    46 H    0.983
                            25 N    0.960
    27   1 H    1.016 --     1 C    0.987
    28   1 H    1.014 --     1 C    0.980
    29   1 H    1.013 --     1 C    0.981
    30   1 H    0.883 --     7 O    0.802
    31   1 H    1.021 --    11 C    0.978
    32   1 H    1.013 --    11 C    0.980
    33   1 H    1.015 --    11 C    0.986
    34   1 H    1.019 --    14 C    0.982
    35   1 H    1.026 --    14 C    0.982
    36   1 H    1.005 --    14 C    0.988
    37   1 H    1.004 --    15 C    0.984
    38   1 H    1.012 --    15 C    0.984
    39   1 H    1.001 --    15 C    0.985
    40   1 H    0.961 --    16 N    0.904
    41   1 H    0.998 --    23 C    0.965
    42   1 H    0.999 --    23 C    0.983
    43   1 H    0.998 --    23 C    0.965
    44   1 H    1.019 --    26 C    0.988
    45   1 H    1.028 --    26 C    0.988
    46   1 H    1.009 --    26 C    0.983
 ---------------------------------------------------------------------------

           -------------------------------------------------
          | TOTAL ENERGY              -87.014038480072 Eh   |
          | GRADIENT NORM               0.000295271118 Eh/α |
          | HOMO-LUMO GAP               0.276504915952 eV   |
           -------------------------------------------------

 * finished run on 2023/06/20 at 15:19:55.687
