   * xtb version 6.5.1 (579679a) compiled by 'ehlert@majestix' on 2022-07-11
          program call               : /lustre/hpc/kemi/ree/PhD/git/ReactivityQM/dep/xtb-6.5.1/bin/xtb --gfn 1 /lustre/hpc/kemi/ree/PhD/git/ReactivityQM/calculations/R02methylcation/reac01prodN18/conf03/R02methylcation_reac01prodN18_conf03_gfn1.xyz --opt --vfukui --chrg 0 --uhf 0 --alpb DMSO

   ID    Z sym.   atoms
    1    6 C      1, 3, 5, 6, 8, 11-15, 17, 19, 22, 23
    2    8 O      2, 4, 7, 9, 18, 24
    3    7 N      10, 16, 20, 21, 25
    4    1 H      26-42

      * Solvation model:               ALPB
        Solvent                        DMSO
        Solvent mass                       7.8130E+01 g/mol
          :  Hamiltonian                  GFN1-xTB          :
 * total energy  :   -82.9254389 Eh     change       -0.6821210E-11 Eh
 * total energy  :   -82.9413600 Eh     change       -0.1592109E-01 Eh
 * total energy  :   -82.9481256 Eh     change       -0.6765588E-02 Eh
 * total energy  :   -82.9494908 Eh     change       -0.1365162E-02 Eh
 * total energy  :   -82.9503090 Eh     change       -0.8182450E-03 Eh
 * total energy  :   -82.9508190 Eh     change       -0.5099701E-03 Eh
 * total energy  :   -82.9512040 Eh     change       -0.3850497E-03 Eh
 * total energy  :   -82.9515427 Eh     change       -0.3386320E-03 Eh
 * total energy  :   -82.9517532 Eh     change       -0.2105452E-03 Eh
 * total energy  :   -82.9518604 Eh     change       -0.1072320E-03 Eh
 * total energy  :   -82.9522327 Eh     change       -0.3377821E-04 Eh
 * total energy  :   -82.9522604 Eh     change       -0.2769913E-04 Eh
 * total energy  :   -82.9522835 Eh     change       -0.2316131E-04 Eh
 * total energy  :   -82.9522992 Eh     change       -0.1564476E-04 Eh
 * total energy  :   -82.9523109 Eh     change       -0.1168515E-04 Eh
 * total energy  :   -82.9523334 Eh     change       -0.2252399E-04 Eh
 * total energy  :   -82.9523403 Eh     change       -0.6869779E-05 Eh
 * total energy  :   -82.9523479 Eh     change       -0.7652822E-05 Eh
 * total energy  :   -82.9523520 Eh     change       -0.4058530E-05 Eh
   *** GEOMETRY OPTIMIZATION CONVERGED AFTER 28 ITERATIONS ***

 final structure:
================
42
 xtb: 6.5.1 (579679a)
C           -6.57433423537645        1.22212093454187       -0.16014337168824
O           -5.42706453010947        0.38835924225617       -0.00994020697571
C           -4.24798475041526        0.93603606036011       -0.34907456751496
O           -4.15867654797295        2.08182105593709       -0.75287521080527
C           -3.10292087907948        0.03806075495923       -0.16535379240253
C           -3.20241277901726       -1.32397879428386        0.17982406878407
O           -4.21126604613823       -1.99258838185349        0.41592845758921
C           -1.87228461810200       -2.07229901355845        0.18255873549547
O           -1.65857419921472       -3.23559354114717        0.07700254328526
N           -0.68015531675068       -1.18229238669554        0.45612500041534
C           -0.70277934748161       -0.96638961753487        1.93467159275102
C           -0.76760205165609        0.10677121439853       -0.28577641625560
C            0.50191323526420        0.65781661868395       -0.89477647146734
C            0.52176270994150        2.18499373234649       -0.76060869503205
C            0.50311538910416        0.26197627644776       -2.38040353877446
N            1.69435513203863        0.04787289979693       -0.30175513943538
C            2.22675041236967        0.40715430184052        0.89102982158427
O            1.66985151513018        1.09864486773183        1.72820838411405
C            3.56783194567246       -0.17669974923651        1.11653450084065
N            4.33705807679038       -0.02688600497602        2.14987555933556
N            5.46588099402287       -0.74728955133890        1.90764494638552
C            5.31851730811440       -1.29398486956606        0.74019467964762
C            6.26511072504420       -2.17253236810160        0.02043883483365
O            4.13900476427773       -0.97139656520251        0.18533271093610
N           -1.89458627372996        0.61629639622907       -0.52063909570610
H           -6.47184146878893        2.12412224684593        0.44956140225142
H           -7.43203867243624        0.64021429160973        0.17372249263557
H           -6.70088631444278        1.51111915074582       -1.20719094727964
H            0.17041813553111       -1.68398064923068        0.20542270919560
H           -0.60739637925203       -1.93699696341577        2.41459843973115
H            0.12995970166199       -0.32212652213668        2.19986394189894
H           -1.64419180742215       -0.49340643211290        2.20557187849041
H            1.44072029896102        2.57781851652129       -1.19034617114040
H            0.45436103682789        2.48399011051245        0.28348784262384
H           -0.33274341986509        2.59327771249597       -1.29912521031529
H           -0.38525558835098        0.66449619273000       -2.86511157156312
H            0.50041317005958       -0.82185425252963       -2.48019864790985
H            1.38949122437776        0.66258998527860       -2.86821821124369
H            2.28572151010220       -0.47581088234489       -0.92675670910953
H            5.75995342315241       -3.08800984792529       -0.28514323284521
H            7.10789351546042       -2.41235799418711        0.66439304627477
H            6.62491400168987       -1.67160017489122       -0.87855738165045

          :  Hamiltonian                  GFN1-xTB          :
         :: total energy             -82.952351980871 Eh    ::
         :: gradient norm              0.000511100808 Eh/a0 ::
         :: HOMO-LUMO gap              1.619999612657 eV    ::
         :: SCC energy               -83.733556159420 Eh    ::
         :: -> Gsolv                  -0.074919397566 Eh    ::
         :: repulsion energy           0.808430072308 Eh    ::

    * Orbital Energies and Occupations

         #    Occupation            Energy/Eh            Energy/eV
      -------------------------------------------------------------
         1        2.0000           -0.8748500             -23.8059
       ...           ...                  ...                  ...
        55        2.0000           -0.5074024             -13.8071
        56        2.0000           -0.5040332             -13.7154
        57        2.0000           -0.5039146             -13.7122
        58        2.0000           -0.4842242             -13.1764
        59        2.0000           -0.4827415             -13.1361
        60        2.0000           -0.4753640             -12.9353
        61        2.0000           -0.4706505             -12.8071
        62        2.0000           -0.4678121             -12.7298
        63        2.0000           -0.4622228             -12.5777
        64        2.0000           -0.4565740             -12.4240
        65        2.0000           -0.4545254             -12.3683
        66        2.0000           -0.4296283             -11.6908
        67        2.0000           -0.4092850             -11.1372 (HOMO)
        68                         -0.3497511              -9.5172 (LUMO)
        69                         -0.3190302              -8.6813
        70                         -0.2880214              -7.8375
        71                         -0.2599840              -7.0745
        72                         -0.2504620              -6.8154
        73                         -0.2064245              -5.6171
        74                         -0.1647732              -4.4837
        75                         -0.1493348              -4.0636
        76                         -0.1426161              -3.8808
        77                         -0.1420767              -3.8661
        78                         -0.1328251              -3.6144
       ...                                ...                  ...
       134                          0.7725891              21.0232
      -------------------------------------------------------------
                  HL-Gap            0.0595339 Eh            1.6200 eV

Wiberg/Mayer (AO) data.
largest (>0.10) Wiberg bond orders for each atom

     #   Z sym  total        # sym  WBO       # sym  WBO       # sym  WBO
 ---------------------------------------------------------------------------
     1   6 C    3.884 --    27 H    0.986    28 H    0.980    26 H    0.980
                             2 O    0.910
     2   8 O    2.181 --     3 C    1.081     1 C    0.910     4 O    0.120
     3   6 C    3.860 --     4 O    1.607     2 O    1.081     5 C    1.075
     4   8 O    1.881 --     3 C    1.607     2 O    0.120
     5   6 C    3.904 --     6 C    1.297    25 N    1.116     3 C    1.075
                             7 O    0.152
     6   6 C    3.942 --     7 O    1.549     5 C    1.297     8 C    0.918
     7   8 O    1.891 --     6 C    1.549     5 C    0.152
     8   6 C    3.782 --     9 O    1.854     6 C    0.918    10 N    0.838
     9   8 O    2.068 --     8 C    1.854
    10   7 N    3.604 --    11 C    0.881    29 H    0.880    12 C    0.850
                             8 C    0.838
    11   6 C    3.884 --    32 H    0.984    30 H    0.982    31 H    0.967
                            10 N    0.881
    12   6 C    3.888 --    25 N    1.783    13 C    0.980    10 N    0.850
    13   6 C    3.933 --    14 C    0.984    12 C    0.980    15 C    0.976
                            16 N    0.928
    14   6 C    3.986 --    33 H    0.985    13 C    0.984    35 H    0.983
                            34 H    0.979
    15   6 C    3.986 --    37 H    0.984    36 H    0.983    38 H    0.981
                            13 C    0.976
    16   7 N    3.332 --    17 C    1.239    13 C    0.928    39 H    0.890
                            18 O    0.168
    17   6 C    3.913 --    18 O    1.581    16 N    1.239    19 C    1.001
    18   8 O    1.912 --    17 C    1.581    16 N    0.168
    19   6 C    3.875 --    20 N    1.617    24 O    1.046    17 C    1.001
    20   7 N    3.004 --    19 C    1.617    21 N    1.204
    21   7 N    2.982 --    22 C    1.605    20 N    1.204
    22   6 C    3.866 --    21 N    1.605    24 O    1.073    23 C    1.033
    23   6 C    3.985 --    22 C    1.033    41 H    0.982    40 H    0.965
                            42 H    0.959
    24   8 O    2.318 --    22 C    1.073    19 C    1.046
    25   7 N    3.083 --    12 C    1.783     5 C    1.116
    26   1 H    1.010 --     1 C    0.980
    27   1 H    1.013 --     1 C    0.986
    28   1 H    1.010 --     1 C    0.980
    29   1 H    0.937 --    10 N    0.880
    30   1 H    0.992 --    11 C    0.982
    31   1 H    1.007 --    11 C    0.967
    32   1 H    0.997 --    11 C    0.984
    33   1 H    0.999 --    14 C    0.985
    34   1 H    1.012 --    14 C    0.979
    35   1 H    1.007 --    14 C    0.983
    36   1 H    1.002 --    15 C    0.983
    37   1 H    0.997 --    15 C    0.984
    38   1 H    0.996 --    15 C    0.981
    39   1 H    0.933 --    16 N    0.890
    40   1 H    0.996 --    23 C    0.965
    41   1 H    0.998 --    23 C    0.982
    42   1 H    0.996 --    23 C    0.959
 ---------------------------------------------------------------------------

           -------------------------------------------------
          | TOTAL ENERGY              -82.952351980871 Eh   |
          | GRADIENT NORM               0.000511100808 Eh/α |
          | HOMO-LUMO GAP               1.619999612657 eV   |
           -------------------------------------------------

 * finished run on 2023/06/21 at 18:01:03.716
