   * xtb version 6.5.1 (579679a) compiled by 'ehlert@majestix' on 2022-07-11
          program call               : /lustre/hpc/kemi/ree/PhD/git/ReactivityQM/dep/xtb-6.5.1/bin/xtb --gfn 1 /lustre/hpc/kemi/ree/PhD/git/ReactivityQM/calculations/RaltegravirCLI/reac02/conf20/RaltegravirCLI_reac02_conf20_gfn1.xyz --opt --vfukui --chrg 0 --uhf 0 --alpb DMSO

   ID    Z sym.   atoms
    1    6 C      1, 3-6, 9, 10, 13-17, 19-21, 23
    2    7 N      2, 7, 8, 12
    3    8 O      11, 22, 24
    4    9 F      18
    5    1 H      25-43

      * Solvation model:               ALPB
        Solvent                        DMSO
        Solvent mass                       7.8130E+01 g/mol
          :  Hamiltonian                  GFN1-xTB          :
 * total energy  :   -76.1647164 Eh     change       -0.7602807E-11 Eh
 * total energy  :   -76.1719490 Eh     change       -0.7232597E-02 Eh
 * total energy  :   -76.1738304 Eh     change       -0.1881352E-02 Eh
 * total energy  :   -76.1741895 Eh     change       -0.3591223E-03 Eh
 * total energy  :   -76.1744138 Eh     change       -0.2243226E-03 Eh
 * total energy  :   -76.1744982 Eh     change       -0.8433454E-04 Eh
 * total energy  :   -76.1745574 Eh     change       -0.5925507E-04 Eh
 * total energy  :   -76.1745884 Eh     change       -0.3100961E-04 Eh
 * total energy  :   -76.1746180 Eh     change       -0.2952248E-04 Eh
 * total energy  :   -76.1746388 Eh     change       -0.2086238E-04 Eh
 * total energy  :   -76.1748991 Eh     change       -0.6149317E-05 Eh
 * total energy  :   -76.1749074 Eh     change       -0.8273425E-05 Eh
 * total energy  :   -76.1749136 Eh     change       -0.6285918E-05 Eh
 * total energy  :   -76.1749187 Eh     change       -0.5099781E-05 Eh
 * total energy  :   -76.1749251 Eh     change       -0.6328120E-05 Eh
 * total energy  :   -76.1749325 Eh     change       -0.7392041E-05 Eh
 * total energy  :   -76.1749401 Eh     change       -0.7670892E-05 Eh
 * total energy  :   -76.1749460 Eh     change       -0.5837667E-05 Eh
 * total energy  :   -76.1749502 Eh     change       -0.4188022E-05 Eh
   *** GEOMETRY OPTIMIZATION CONVERGED AFTER 32 ITERATIONS ***

 final structure:
================
43
 xtb: 6.5.1 (579679a)
C           -3.94873781494071       -1.03034216034209        1.72937970116704
N           -2.66633363712306       -0.95117889173615        1.02986395298122
C           -2.42347162339237       -0.13351084652038       -0.04847664002168
C           -3.46480156335123        0.81250799747872       -0.66335688609867
C           -4.81573058131054        0.14388655171185       -0.95159228440480
C           -3.62557913372178        2.05865745270830        0.22072874989595
N           -2.94742239605796        1.26951238400034       -1.94908641295114
N           -1.25850106648663       -0.09236464631535       -0.61286508852726
C           -0.20844088575286       -0.85543926858658       -0.18838252590232
C            1.04961831268024       -0.63324977732172       -0.97671929274605
O            1.07756840220276        0.14545431181559       -1.92293443977298
N            2.12799157761422       -1.34436880675320       -0.59393820226041
C            3.41303512641939       -1.15960065828094       -1.26095783983687
C            4.21524049366937       -0.06858231351277       -0.58302038482382
C            3.87752101192508        1.26990552258579       -0.77922116821665
C            4.58920245084433        2.27790685024944       -0.14559358054644
C            5.64012150986835        1.91982575307863        0.68001172970220
F            6.33492061018605        2.89053579968003        1.29708639957123
C            6.00523427212020        0.60370127617311        0.89426518739014
C            5.27895181464047       -0.39254428673114        0.25482546327599
C           -0.39509720759781       -1.70841352799879        0.85935867516548
O            0.55696316241814       -2.52010028355239        1.36574385842799
C           -1.68430308544799       -1.79597933396343        1.51691872700593
O           -1.87717454633085       -2.56847977698021        2.45448442453038
H           -4.38110902845084       -0.04164993153379        1.84204282195240
H           -4.62977766483165       -1.68108166862086        1.18251273548668
H           -3.76604994844600       -1.45557512441631        2.71583844509882
H           -5.32047496424996        0.71465815368857       -1.73114312798996
H           -5.46068903964844        0.12821630051679       -0.07688868461320
H           -4.67097413381941       -0.87507734623907       -1.30780878890942
H           -4.07459363155999        1.81724467602273        1.18126608639214
H           -2.65244770964701        2.51646467359717        0.39546223960138
H           -4.26436554614330        2.77617893734811       -0.29336341201160
H           -2.83004018239514        0.46555675845097       -2.55485609267127
H           -2.02453784774722        1.67117675196625       -1.80734439722313
H            2.11317547287707       -1.92445035705116        0.22756725984979
H            3.95056113793843       -2.10973663461711       -1.22725626850594
H            3.21664943396666       -0.89381399849522       -2.30480364795581
H            3.05133704413484        1.52605085617148       -1.43284015171038
H            4.33777806897689        3.32104706291176       -0.28795264944667
H            6.83532091011976        0.36469582507974        1.54589507307464
H            5.54876544269735       -1.43049853157576        0.41015978321087
H            0.17069498315387       -3.02714872408997        2.10529065337474

          :  Hamiltonian                  GFN1-xTB          :
         :: total energy             -76.174950153376 Eh    ::
         :: gradient norm              0.000528109118 Eh/a0 ::
         :: HOMO-LUMO gap              2.721104366279 eV    ::
         :: SCC energy               -77.019777395175 Eh    ::
         :: -> Gsolv                  -0.045527956204 Eh    ::
         :: repulsion energy           0.872152549579 Eh    ::

    * Orbital Energies and Occupations

         #    Occupation            Energy/Eh            Energy/eV
      -------------------------------------------------------------
         1        2.0000           -0.8627735             -23.4773
       ...           ...                  ...                  ...
        52        2.0000           -0.4951971             -13.4750
        53        2.0000           -0.4875504             -13.2669
        54        2.0000           -0.4837434             -13.1633
        55        2.0000           -0.4719391             -12.8421
        56        2.0000           -0.4665293             -12.6949
        57        2.0000           -0.4651613             -12.6577
        58        2.0000           -0.4498271             -12.2404
        59        2.0000           -0.4458961             -12.1335
        60        2.0000           -0.4379148             -11.9163
        61        2.0000           -0.4335840             -11.7984
        62        2.0000           -0.4317514             -11.7486
        63        2.0000           -0.4195473             -11.4165
        64        2.0000           -0.4101995             -11.1621 (HOMO)
        65                         -0.3102008              -8.4410 (LUMO)
        66                         -0.2723895              -7.4121
        67                         -0.2717596              -7.3950
        68                         -0.2653598              -7.2208
        69                         -0.2252004              -6.1280
        70                         -0.1471385              -4.0038
        71                         -0.1450760              -3.9477
        72                         -0.1438220              -3.9136
        73                         -0.1266862              -3.4473
        74                         -0.1190268              -3.2389
        75                         -0.1167856              -3.1779
       ...                                ...                  ...
       134                          0.7182322              19.5441
      -------------------------------------------------------------
                  HL-Gap            0.0999987 Eh            2.7211 eV

Wiberg/Mayer (AO) data.
largest (>0.10) Wiberg bond orders for each atom

     #   Z sym  total        # sym  WBO       # sym  WBO       # sym  WBO
 ---------------------------------------------------------------------------
     1   6 C    3.925 --    25 H    0.977    26 H    0.977    27 H    0.973
                             2 N    0.932
     2   7 N    3.507 --     3 C    1.164    23 C    1.133     1 C    0.932
                            24 O    0.133
     3   6 C    3.918 --     8 N    1.570     2 N    1.164     4 C    0.963
     4   6 C    3.969 --     7 N    0.997     5 C    0.992     6 C    0.983
                             3 C    0.963
     5   6 C    3.994 --     4 C    0.992    30 H    0.986    28 H    0.983
                            29 H    0.983
     6   6 C    3.994 --    32 H    0.985    33 H    0.983     4 C    0.983
                            31 H    0.979
     7   7 N    2.960 --     4 C    0.997    34 H    0.945    35 H    0.939
     8   7 N    3.042 --     3 C    1.570     9 C    1.197
     9   6 C    3.964 --    21 C    1.507     8 N    1.197    10 C    0.991
    10   6 C    3.907 --    11 O    1.571    12 N    1.265     9 C    0.991
    11   8 O    1.880 --    10 C    1.571    12 N    0.170
    12   7 N    3.346 --    10 C    1.265    13 C    0.941    36 H    0.887
                            11 O    0.170
    13   6 C    3.949 --    14 C    0.993    37 H    0.977    38 H    0.969
                            12 N    0.941
    14   6 C    3.988 --    20 C    1.423    15 C    1.414    13 C    0.993
    15   6 C    3.992 --    16 C    1.448    14 C    1.414    39 H    0.968
                            19 C    0.111
    16   6 C    3.992 --    15 C    1.448    17 C    1.398    40 H    0.970
                            20 C    0.110
    17   6 C    3.860 --    19 C    1.404    16 C    1.398    18 F    0.923
    18   9 F    1.051 --    17 C    0.923
    19   6 C    3.991 --    20 C    1.439    17 C    1.404    41 H    0.969
                            15 C    0.111
    20   6 C    3.994 --    19 C    1.439    14 C    1.423    42 H    0.971
                            16 C    0.110
    21   6 C    3.916 --     9 C    1.507    23 C    1.093    22 O    1.070
    22   8 O    2.063 --    21 C    1.070    43 H    0.800
    23   6 C    3.916 --    24 O    1.538     2 N    1.133    21 C    1.093
    24   8 O    1.889 --    23 C    1.538     2 N    0.133
    25   1 H    1.008 --     1 C    0.977
    26   1 H    1.002 --     1 C    0.977
    27   1 H    1.007 --     1 C    0.973
    28   1 H    1.007 --     5 C    0.983
    29   1 H    1.004 --     5 C    0.983
    30   1 H    1.001 --     5 C    0.986
    31   1 H    1.005 --     6 C    0.979
    32   1 H    1.003 --     6 C    0.985
    33   1 H    1.005 --     6 C    0.983
    34   1 H    0.967 --     7 N    0.945
    35   1 H    0.978 --     7 N    0.939
    36   1 H    0.945 --    12 N    0.887
    37   1 H    1.003 --    13 C    0.977
    38   1 H    1.010 --    13 C    0.969
    39   1 H    1.012 --    15 C    0.968
    40   1 H    0.999 --    16 C    0.970
    41   1 H    0.998 --    19 C    0.969
    42   1 H    1.000 --    20 C    0.971
    43   1 H    0.845 --    22 O    0.800
 ---------------------------------------------------------------------------

           -------------------------------------------------
          | TOTAL ENERGY              -76.174950153376 Eh   |
          | GRADIENT NORM               0.000528109118 Eh/α |
          | HOMO-LUMO GAP               2.721104366279 eV   |
           -------------------------------------------------

 * finished run on 2023/06/20 at 14:51:39.282
