   * xtb version 6.5.1 (579679a) compiled by 'ehlert@majestix' on 2022-07-11
          program call               : /lustre/hpc/kemi/ree/PhD/git/ReactivityQM/dep/xtb-6.5.1/bin/xtb --gfn 1 /lustre/hpc/kemi/ree/PhD/git/ReactivityQM/calculations/R02oxygendeprot/reac01prodN04/conf10/R02oxygendeprot_reac01prodN04_conf10_gfn1.xyz --opt --vfukui --chrg 0 --uhf 0 --alpb DMSO

   ID    Z sym.   atoms
    1    6 C      1, 3, 5, 6, 8-11, 13, 15, 18, 19, 22, 24
    2    8 O      2, 4, 14, 20, 23, 25
    3    7 N      7, 12, 16, 17, 21
    4    1 H      26-42

      * Solvation model:               ALPB
        Solvent                        DMSO
        Solvent mass                       7.8130E+01 g/mol
          :  Hamiltonian                  GFN1-xTB          :
 * total energy  :   -82.9677309 Eh     change       -0.8654411E-11 Eh
 * total energy  :   -82.9849115 Eh     change       -0.1718057E-01 Eh
 * total energy  :   -82.9908064 Eh     change       -0.5894855E-02 Eh
 * total energy  :   -82.9921333 Eh     change       -0.1326889E-02 Eh
 * total energy  :   -82.9926782 Eh     change       -0.5448980E-03 Eh
 * total energy  :   -82.9928684 Eh     change       -0.1902484E-03 Eh
 * total energy  :   -82.9930039 Eh     change       -0.1354970E-03 Eh
 * total energy  :   -82.9931052 Eh     change       -0.1012973E-03 Eh
 * total energy  :   -82.9931795 Eh     change       -0.7428528E-04 Eh
 * total energy  :   -82.9932328 Eh     change       -0.5332990E-04 Eh
 * total energy  :   -82.9935502 Eh     change       -0.1271856E-04 Eh
 * total energy  :   -82.9935586 Eh     change       -0.8412638E-05 Eh
 * total energy  :   -82.9935691 Eh     change       -0.1056351E-04 Eh
 * total energy  :   -82.9935810 Eh     change       -0.1183331E-04 Eh
 * total energy  :   -82.9935955 Eh     change       -0.1449151E-04 Eh
 * total energy  :   -82.9936090 Eh     change       -0.1354626E-04 Eh
 * total energy  :   -82.9936168 Eh     change       -0.7819751E-05 Eh
 * total energy  :   -82.9936220 Eh     change       -0.5138130E-05 Eh
 * total energy  :   -82.9936264 Eh     change       -0.4488164E-05 Eh
   *** GEOMETRY OPTIMIZATION CONVERGED AFTER 29 ITERATIONS ***

 final structure:
================
42
 xtb: 6.5.1 (579679a)
C           -6.41074298572368        0.13017029239306        0.71839893275508
O           -5.07944085502659        0.45987874877120        1.12104126120990
C           -4.08147440579739        0.25199208387321        0.28826769462671
O           -4.45919842092258       -0.27494334154327       -0.86320855001157
C           -3.59203701276816       -0.62390301828082       -1.94087767181255
C           -2.78628172026844        0.60395844214736        0.68236001920067
N           -1.75748018831746        0.39208475253623       -0.23268445730266
C           -0.55611628607204        0.72448579503476        0.05179169069335
C            0.56527722268299        0.55803925977361       -0.95217441943854
C            0.17847624692933       -0.43292597521927       -2.05177852767016
C            0.87861676965871        1.94100996648105       -1.54352791714247
N            1.72822969794727        0.04607390876226       -0.21672522968025
C            2.93863232791173       -0.14924172422337       -0.78839574687434
O            3.25761919106900        0.18502295433971       -1.91407488980997
C            3.86401301153167       -0.82092027729906        0.16017271904628
N            3.56569966228460       -1.25338965943212        1.34843866420459
N            4.70192010780496       -1.80027634004370        1.86399681826337
C            5.62120861630089       -1.66723530616293        0.95595981307513
C            7.03489171654117       -2.09702337261935        1.03021418119641
O            5.15287691674266       -1.05802138138723       -0.14295046602270
N           -0.20965255794990        1.31106644145946        1.24940045243520
C           -1.09194643286865        1.56471538861567        2.26618344458717
O           -0.71802065887275        2.07540768830461        3.30567768497975
C           -2.53523365705358        1.17383239521857        1.98636158750799
O           -3.37957700829818        1.36386073086724        2.85418362063704
H           -6.69201575294984        0.70713446150678       -0.16474409724874
H           -6.48597872242974       -0.93601530442925        0.49638734716198
H           -7.05303332374190        0.38800839872533        1.55865333190106
H           -2.85846899699614       -1.36464029641387       -1.61961732116273
H           -4.23744904791809       -1.04464959870468       -2.71223297831164
H           -3.07851474497375        0.25972801824479       -2.32254516172080
H           -0.07082178832503       -1.39860024865955       -1.61536224424210
H            1.00675239488639       -0.55570884857025       -2.74737416010139
H           -0.68531922695586       -0.05457456737054       -2.59427446272998
H            1.64583802033427        1.86122213553365       -2.31046525419247
H           -0.02644150194092        2.34968153859416       -1.98971328768169
H            1.22439050521304        2.61336689488799       -0.76048970092704
H            1.56148188299988       -0.40707879767512        0.66998724421370
H            7.20918473011440       -2.62343779619622        1.96540382185871
H            7.26904159742879       -2.75115283721681        0.19078463055199
H            7.69121976133639       -1.22832586628826        0.97374911828419
H            0.74987591645675        1.58132526165931        1.40350046570047

          :  Hamiltonian                  GFN1-xTB          :
         :: total energy             -82.993626444371 Eh    ::
         :: gradient norm              0.000515561028 Eh/a0 ::
         :: HOMO-LUMO gap              2.390100192209 eV    ::
         :: SCC energy               -83.773301608823 Eh    ::
         :: -> Gsolv                  -0.060758385401 Eh    ::
         :: repulsion energy           0.805500450842 Eh    ::

    * Orbital Energies and Occupations

         #    Occupation            Energy/Eh            Energy/eV
      -------------------------------------------------------------
         1        2.0000           -0.8634785             -23.4964
       ...           ...                  ...                  ...
        55        2.0000           -0.5057067             -13.7610
        56        2.0000           -0.5047985             -13.7363
        57        2.0000           -0.5007298             -13.6256
        58        2.0000           -0.4958310             -13.4922
        59        2.0000           -0.4825070             -13.1297
        60        2.0000           -0.4789290             -13.0323
        61        2.0000           -0.4658767             -12.6772
        62        2.0000           -0.4611376             -12.5482
        63        2.0000           -0.4537221             -12.3464
        64        2.0000           -0.4508510             -12.2683
        65        2.0000           -0.4474346             -12.1753
        66        2.0000           -0.4210148             -11.4564
        67        2.0000           -0.4150467             -11.2940 (HOMO)
        68                         -0.3272121              -8.9039 (LUMO)
        69                         -0.3111551              -8.4670
        70                         -0.2747363              -7.4760
        71                         -0.2566959              -6.9851
        72                         -0.2481956              -6.7537
        73                         -0.1993772              -5.4253
        74                         -0.1560026              -4.2450
        75                         -0.1522835              -4.1438
        76                         -0.1430855              -3.8936
        77                         -0.1417496              -3.8572
        78                         -0.1251154              -3.4046
       ...                                ...                  ...
       134                          0.7552797              20.5522
      -------------------------------------------------------------
                  HL-Gap            0.0878346 Eh            2.3901 eV

Wiberg/Mayer (AO) data.
largest (>0.10) Wiberg bond orders for each atom

     #   Z sym  total        # sym  WBO       # sym  WBO       # sym  WBO
 ---------------------------------------------------------------------------
     1   6 C    3.861 --    28 H    0.984    26 H    0.978    27 H    0.978
                             2 O    0.888
     2   8 O    2.239 --     3 C    1.154     1 C    0.888
     3   6 C    3.833 --     6 C    1.333     2 O    1.154     4 O    1.133
     4   8 O    2.224 --     3 C    1.133     5 C    0.882
     5   6 C    3.853 --    30 H    0.981    29 H    0.977    31 H    0.975
                             4 O    0.882
     6   6 C    3.922 --     3 C    1.333    24 C    1.164     7 N    1.107
     7   7 N    3.044 --     8 C    1.655     6 C    1.107
     8   6 C    3.932 --     7 N    1.655    21 N    1.104     9 C    0.980
     9   6 C    3.934 --    10 C    0.992     8 C    0.980    11 C    0.978
                            12 N    0.921
    10   6 C    3.990 --     9 C    0.992    32 H    0.985    34 H    0.982
                            33 H    0.981
    11   6 C    3.986 --    36 H    0.985    37 H    0.984     9 C    0.978
                            35 H    0.977
    12   7 N    3.331 --    13 C    1.241     9 C    0.921    38 H    0.894
                            14 O    0.174
    13   6 C    3.916 --    14 O    1.602    12 N    1.241    15 C    0.989
    14   8 O    1.918 --    13 C    1.602    12 N    0.174
    15   6 C    3.875 --    16 N    1.610    20 O    1.064    13 C    0.989
    16   7 N    3.017 --    15 C    1.610    17 N    1.200
    17   7 N    2.981 --    18 C    1.604    16 N    1.200
    18   6 C    3.871 --    17 N    1.604    20 O    1.083    19 C    1.031
    19   6 C    3.986 --    18 C    1.031    39 H    0.983    40 H    0.965
                            41 H    0.962
    20   8 O    2.331 --    18 C    1.083    15 C    1.064
    21   7 N    3.435 --    22 C    1.159     8 C    1.104    42 H    0.886
                            23 O    0.138
    22   6 C    3.882 --    23 O    1.637    21 N    1.159    24 C    0.940
    23   8 O    1.915 --    22 C    1.637    21 N    0.138
    24   6 C    3.920 --    25 O    1.633     6 C    1.164    22 C    0.940
    25   8 O    1.919 --    24 C    1.633
    26   1 H    1.005 --     1 C    0.978
    27   1 H    1.005 --     1 C    0.978
    28   1 H    1.008 --     1 C    0.984
    29   1 H    1.019 --     5 C    0.977
    30   1 H    1.008 --     5 C    0.981
    31   1 H    1.020 --     5 C    0.975
    32   1 H    1.004 --    10 C    0.985
    33   1 H    1.005 --    10 C    0.981
    34   1 H    1.007 --    10 C    0.982
    35   1 H    1.010 --    11 C    0.977
    36   1 H    1.002 --    11 C    0.985
    37   1 H    1.001 --    11 C    0.984
    38   1 H    0.952 --    12 N    0.894
    39   1 H    0.998 --    19 C    0.983
    40   1 H    0.997 --    19 C    0.965
    41   1 H    0.997 --    19 C    0.962
    42   1 H    0.934 --    21 N    0.886
 ---------------------------------------------------------------------------

           -------------------------------------------------
          | TOTAL ENERGY              -82.993626444371 Eh   |
          | GRADIENT NORM               0.000515561028 Eh/α |
          | HOMO-LUMO GAP               2.390100192209 eV   |
           -------------------------------------------------

 * finished run on 2023/06/21 at 17:20:19.360
