   * xtb version 6.5.1 (579679a) compiled by 'ehlert@majestix' on 2022-07-11
          program call               : /lustre/hpc/kemi/ree/PhD/git/ReactivityQM/dep/xtb-6.5.1/bin/xtb --gfn 1 /lustre/hpc/kemi/ree/PhD/git/ReactivityQM/calculations/R03/reac02prodE12/conf17/R03_reac02prodE12_conf17_gfn1.xyz --opt --vfukui --chrg -1 --uhf 0 --alpb DMSO

   ID    Z sym.   atoms
    1    6 C      1, 3, 5, 6, 8, 9, 12-16, 18, 20, 23, 24
    2    8 O      2, 4, 7, 10, 19, 25
    3    7 N      11, 17, 21, 22, 26
    4    1 H      27-46

      * Solvation model:               ALPB
        Solvent                        DMSO
        Solvent mass                       7.8130E+01 g/mol
          :  Hamiltonian                  GFN1-xTB          :
 * total energy  :   -87.0165184 Eh     change       -0.8128609E-10 Eh
 * total energy  :   -87.0308932 Eh     change       -0.1437485E-01 Eh
 * total energy  :   -87.0372694 Eh     change       -0.6376120E-02 Eh
 * total energy  :   -87.0384467 Eh     change       -0.1177315E-02 Eh
 * total energy  :   -87.0389563 Eh     change       -0.5096117E-03 Eh
 * total energy  :   -87.0391113 Eh     change       -0.1550415E-03 Eh
 * total energy  :   -87.0391960 Eh     change       -0.8470602E-04 Eh
 * total energy  :   -87.0392529 Eh     change       -0.5685023E-04 Eh
 * total energy  :   -87.0393014 Eh     change       -0.4852064E-04 Eh
 * total energy  :   -87.0393457 Eh     change       -0.4430546E-04 Eh
 * total energy  :   -87.0394743 Eh     change       -0.2223515E-04 Eh
 * total energy  :   -87.0394877 Eh     change       -0.1340672E-04 Eh
 * total energy  :   -87.0395003 Eh     change       -0.1260056E-04 Eh
 * total energy  :   -87.0395119 Eh     change       -0.1157889E-04 Eh
 * total energy  :   -87.0395301 Eh     change       -0.1815869E-04 Eh
 * total energy  :   -87.0395380 Eh     change       -0.7953806E-05 Eh
 * total energy  :   -87.0395613 Eh     change       -0.2331015E-04 Eh
 * total energy  :   -87.0395695 Eh     change       -0.8163407E-05 Eh
 * total energy  :   -87.0395740 Eh     change       -0.4482469E-05 Eh
   *** GEOMETRY OPTIMIZATION CONVERGED AFTER 22 ITERATIONS ***

 final structure:
================
46
 xtb: 6.5.1 (579679a)
C           -5.77662774955607       -2.11760147386893        2.03657811013076
O           -4.86834265229678       -1.64537917698709        1.04215836891053
C           -3.69156907094318       -1.14014978870583        1.51030440839559
O           -3.46240403717824       -1.11638893529410        2.70603287191957
C           -2.78841934444901       -0.65006232702509        0.46520162526231
C           -3.00847106150281       -0.66845545121023       -0.87486943699955
O           -4.11581803580870       -1.15866272857647       -1.46945259394044
C           -1.96703481055530       -0.18291500187515       -1.92732455947757
C           -2.70608609093758        0.90534191328084       -2.78355436858693
O           -1.39088329222938       -1.12218710486110       -2.59205068238417
N           -0.89950686360607        0.65415604109270       -1.08527469402398
C            0.10979258433130        1.22643071466333       -1.96911456559204
C           -0.73096981211441        0.44922739344287        0.23482976677205
C            0.49071646260385        0.99296742333319        0.99734122309310
C            0.54840554067184        2.52403728389682        0.90951859303578
C            0.40421809390973        0.58148352427582        2.47534387216928
N            1.69929370477004        0.37138882540578        0.43234915879428
C            2.95623354232618        0.70154800373712        0.76995611390699
O            3.29127602546140        1.60316523864066        1.52195584228726
C            3.93548362903137       -0.18122152021210        0.07376880834860
N            3.64692978835924       -1.14392991224982       -0.74885245924591
N            4.83077700950068       -1.68323053789252       -1.15653985515244
C            5.76681507868352       -1.01457220627575       -0.55487349172395
C            7.23100873300512       -1.21487699340347       -0.65728919455401
O            5.26613599340350       -0.05416742670056        0.23521540420613
N           -1.59904649974726       -0.13357149580364        0.99991293094200
H           -6.02973143130321       -1.31330008254251        2.73291748224051
H           -6.67092210141850       -2.45365903676496        1.51564971923705
H           -5.33392883194135       -2.94797664675211        2.59401333380948
H           -4.76571064914632       -1.49991978597380       -0.83328030683029
H           -3.55825892440869        0.43551977991638       -3.27176573856574
H           -3.05326758678450        1.72568221308590       -2.15817443308084
H           -2.03620168129113        1.28630663155299       -3.55085683311497
H            1.10112889612572        1.22855206949651       -1.52213862863095
H           -0.15517679524040        2.25436264375661       -2.23188731516208
H            0.15410856931639        0.62574066000121       -2.88327861486730
H            1.26682910256034        2.92120016993337        1.62456698979606
H            0.83290373425502        2.86128047721922       -0.08385491003217
H           -0.43606698358879        2.92588949823647        1.14706887563094
H            0.35039422000602       -0.50288277567101        2.56241505172041
H           -0.48928728472742        1.01194435318746        2.92448630763976
H            1.28210131405002        0.94061665720077        3.01034948122100
H            1.57523137688432       -0.46976183522999       -0.11606041569250
H            7.51076690818572       -2.16492877994390       -0.20185210132867
H            7.75082577601573       -0.40842615877162       -0.14610065375163
H            7.53235450731663       -1.23861633276950       -1.70348548673531

          :  Hamiltonian                  GFN1-xTB          :
         :: total energy             -87.039573965576 Eh    ::
         :: gradient norm              0.000416481893 Eh/a0 ::
         :: HOMO-LUMO gap              1.288421757385 eV    ::
         :: SCC energy               -87.836861312921 Eh    ::
         :: -> Gsolv                  -0.120708641808 Eh    ::
         :: repulsion energy           0.826601562897 Eh    ::

    * Orbital Energies and Occupations

         #    Occupation            Energy/Eh            Energy/eV
      -------------------------------------------------------------
         1        2.0000           -0.8583618             -23.3572
       ...           ...                  ...                  ...
        59        2.0000           -0.4689362             -12.7604
        60        2.0000           -0.4624589             -12.5841
        61        2.0000           -0.4583985             -12.4737
        62        2.0000           -0.4530916             -12.3293
        63        2.0000           -0.4514222             -12.2838
        64        2.0000           -0.4442380             -12.0883
        65        2.0000           -0.4398958             -11.9702
        66        2.0000           -0.4318546             -11.7514
        67        2.0000           -0.4163645             -11.3299
        68        2.0000           -0.3904825             -10.6256
        69        2.0000           -0.3677932             -10.0082
        70        2.0000           -0.3515585              -9.5664
        71        2.0000           -0.3484311              -9.4813 (HOMO)
        72                         -0.3010825              -8.1929 (LUMO)
        73                         -0.2644941              -7.1973
        74                         -0.2523644              -6.8672
        75                         -0.2185773              -5.9478
        76                         -0.1897268              -5.1627
        77                         -0.1406752              -3.8280
        78                         -0.1344347              -3.6582
        79                         -0.1261969              -3.4340
        80                         -0.1172589              -3.1908
        81                         -0.1063693              -2.8945
        82                         -0.1000480              -2.7224
       ...                                ...                  ...
       144                          0.7325642              19.9341
      -------------------------------------------------------------
                  HL-Gap            0.0473486 Eh            1.2884 eV

Wiberg/Mayer (AO) data.
largest (>0.10) Wiberg bond orders for each atom

     #   Z sym  total        # sym  WBO       # sym  WBO       # sym  WBO
 ---------------------------------------------------------------------------
     1   6 C    3.884 --    28 H    0.987    29 H    0.981    27 H    0.981
                             2 O    0.907
     2   8 O    2.167 --     3 C    1.031     1 C    0.907     4 O    0.111
     3   6 C    3.835 --     4 O    1.621     5 C    1.072     2 O    1.031
     4   8 O    1.890 --     3 C    1.621     2 O    0.111
     5   6 C    3.947 --     6 C    1.571    26 N    1.074     3 C    1.072
     6   6 C    3.871 --     5 C    1.571     7 O    1.083     8 C    0.904
     7   8 O    2.073 --     6 C    1.083    30 H    0.816
     8   6 C    3.921 --    10 O    1.267     9 C    0.933     6 C    0.904
                            11 N    0.735
     9   6 C    3.991 --    32 H    0.991    33 H    0.985    31 H    0.984
                             8 C    0.933
    10   8 O    1.567 --     8 C    1.267
    11   7 N    3.340 --    13 C    1.269    12 C    0.965     8 C    0.735
                            26 N    0.179
    12   6 C    3.964 --    35 H    0.983    34 H    0.976    36 H    0.975
                            11 N    0.965
    13   6 C    3.951 --    26 N    1.553    11 N    1.269    14 C    0.957
    14   6 C    3.922 --    16 C    0.992    15 C    0.991    13 C    0.957
                            17 N    0.907
    15   6 C    3.993 --    14 C    0.991    39 H    0.986    38 H    0.981
                            37 H    0.981
    16   6 C    3.994 --    14 C    0.992    40 H    0.985    42 H    0.985
                            41 H    0.984
    17   7 N    3.375 --    18 C    1.277    14 C    0.907    43 H    0.899
                            19 O    0.182
    18   6 C    3.921 --    19 O    1.578    17 N    1.277    20 C    0.982
    19   8 O    1.897 --    18 C    1.578    17 N    0.182
    20   6 C    3.870 --    21 N    1.614    25 O    1.062    18 C    0.982
    21   7 N    3.015 --    20 C    1.614    22 N    1.197
    22   7 N    2.979 --    23 C    1.608    21 N    1.197
    23   6 C    3.873 --    22 N    1.608    25 O    1.084    24 C    1.029
    24   6 C    3.987 --    23 C    1.029    45 H    0.983    46 H    0.968
                            44 H    0.962
    25   8 O    2.329 --    23 C    1.084    20 C    1.062
    26   7 N    2.974 --    13 C    1.553     5 C    1.074    11 N    0.179
    27   1 H    1.012 --     1 C    0.981
    28   1 H    1.013 --     1 C    0.987
    29   1 H    1.012 --     1 C    0.981
    30   1 H    0.874 --     7 O    0.816
    31   1 H    1.016 --     9 C    0.984
    32   1 H    1.012 --     9 C    0.991
    33   1 H    1.012 --     9 C    0.985
    34   1 H    1.012 --    12 C    0.976
    35   1 H    1.015 --    12 C    0.983
    36   1 H    1.024 --    12 C    0.975
    37   1 H    1.015 --    15 C    0.981
    38   1 H    1.005 --    15 C    0.981
    39   1 H    1.005 --    15 C    0.986
    40   1 H    1.019 --    16 C    0.985
    41   1 H    1.019 --    16 C    0.984
    42   1 H    1.009 --    16 C    0.985
    43   1 H    0.960 --    17 N    0.899
    44   1 H    0.998 --    24 C    0.962
    45   1 H    0.997 --    24 C    0.983
    46   1 H    0.998 --    24 C    0.968
 ---------------------------------------------------------------------------

           -------------------------------------------------
          | TOTAL ENERGY              -87.039573965576 Eh   |
          | GRADIENT NORM               0.000416481893 Eh/α |
          | HOMO-LUMO GAP               1.288421757385 eV   |
           -------------------------------------------------

 * finished run on 2023/06/20 at 15:32:35.265
