   * xtb version 6.5.1 (579679a) compiled by 'ehlert@majestix' on 2022-07-11
          program call               : /lustre/hpc/kemi/ree/PhD/git/ReactivityQM/dep/xtb-6.5.1/bin/xtb --gfn 1 /lustre/hpc/kemi/ree/PhD/git/ReactivityQM/calculations/RaltegravirCLI/reac02prodN08/conf09/RaltegravirCLI_reac02prodN08_conf09_gfn1.xyz --opt --vfukui --chrg 1 --uhf 0 --alpb DMSO

   ID    Z sym.   atoms
    1    6 C      1, 3-6, 9, 10, 13-18, 20-22, 24
    2    7 N      2, 7, 8, 12
    3    8 O      11, 23, 25
    4    9 F      19
    5    1 H      26-47

      * Solvation model:               ALPB
        Solvent                        DMSO
        Solvent mass                       7.8130E+01 g/mol
          :  Hamiltonian                  GFN1-xTB          :
 * total energy  :   -79.4709886 Eh     change       -0.7450751E-10 Eh
 * total energy  :   -79.4801729 Eh     change       -0.9184350E-02 Eh
 * total energy  :   -79.4828159 Eh     change       -0.2642971E-02 Eh
 * total energy  :   -79.4831429 Eh     change       -0.3269582E-03 Eh
 * total energy  :   -79.4834243 Eh     change       -0.2814399E-03 Eh
 * total energy  :   -79.4835482 Eh     change       -0.1239054E-03 Eh
 * total energy  :   -79.4837142 Eh     change       -0.1659432E-03 Eh
 * total energy  :   -79.4838664 Eh     change       -0.1522189E-03 Eh
 * total energy  :   -79.4839984 Eh     change       -0.1320696E-03 Eh
 * total energy  :   -79.4841079 Eh     change       -0.1094397E-03 Eh
 * total energy  :   -79.4841736 Eh     change       -0.6572180E-04 Eh
 * total energy  :   -79.4842093 Eh     change       -0.3569816E-04 Eh
 * total energy  :   -79.4842309 Eh     change       -0.2164861E-04 Eh
 * total energy  :   -79.4842450 Eh     change       -0.1408740E-04 Eh
 * total energy  :   -79.4842554 Eh     change       -0.1036830E-04 Eh
 * total energy  :   -79.4842613 Eh     change       -0.5927443E-05 Eh
 * total energy  :   -79.4842681 Eh     change       -0.6796072E-05 Eh
 * total energy  :   -79.4842730 Eh     change       -0.4846957E-05 Eh
   *** GEOMETRY OPTIMIZATION CONVERGED AFTER 18 ITERATIONS ***

 final structure:
================
47
 xtb: 6.5.1 (579679a)
C            4.14978741098921       -1.97230954567325        1.49822171873002
N            2.94628978904001       -1.26021165259219        1.05605580155539
C            2.89430308741978       -0.48903666081593       -0.07845779948046
C            4.10258270002159       -0.28508582814310       -0.98379679353861
C            4.98180687939836        0.82456298447355       -0.38716068283741
C            3.61719944218791        0.14393198866648       -2.37962906908626
N            4.87757760461504       -1.51370887600484       -1.09462173385686
N            1.82039797083196        0.15257355529283       -0.42012196917652
C            0.67169737226597        0.08079191226693        0.31367570423268
C           -0.45529504522094        0.87377532852545       -0.24443226338134
O           -0.42439359766265        1.40106350809834       -1.33998677811161
N           -1.55377323598416        1.00035933981554        0.57789242095786
C           -2.70774166525227        1.67992062998879        0.13675090374010
C           -3.81247919592839        0.63977811589941       -0.47593861559164
C           -3.10363002481196       -0.14874632060193       -1.59387001549142
C           -4.21605214549174       -0.20631161358707        0.65288912539812
C           -5.42910129749717       -0.08136426105036        1.26472524923568
C           -6.34814246431262        0.84015537942169        0.74752028884831
F           -7.51175249901743        0.95744183251821        1.33325047204184
C           -6.08684593551710        1.62726575989892       -0.38084024058253
C           -4.87569341249810        1.50567417681620       -0.99783167065081
C            0.64087416328881       -0.71264071252749        1.42495953208159
O           -0.44273794702406       -0.89992753413536        2.20048708192501
C            1.82774980912543       -1.43990893108101        1.84393420076158
O            1.81554889912456       -2.14985541708622        2.84552381947409
H            4.02721289941538       -2.21977799320766        2.55234696276500
H            5.02489428786175       -1.34458591896198        1.36561942171458
H            4.26769693564499       -2.88525038069716        0.91719021896047
H            4.39400484007491        1.73284756887667       -0.25924415386928
H            5.38454275627245        0.52816324770617        0.57972773095361
H            5.81209587816337        1.03257323375959       -1.06056530928329
H            4.47433237657055        0.24139120775750       -3.04345042746620
H            2.93737133818134       -0.60402877462475       -2.78462112512240
H            3.09601830486227        1.09873526245198       -2.32567696627732
H            5.75862958669254       -1.31670812625606       -1.54846373176075
H            4.37644654023752       -2.18438598156971       -1.66152143730786
H           -1.58116575063475        0.53630583093303        1.47204147618589
H           -2.44693490871701        2.36164249416070       -0.67491715870931
H           -3.18707619138152        2.20468328189088        0.96025040943660
H           -2.31226383670255       -0.75897267471033       -1.16418014916719
H           -2.67647694500334        0.53704096382507       -2.32346595495427
H           -3.82788005191090       -0.79589795912120       -2.08446236703674
H           -3.48729450234305       -0.91745244137297        1.02486492372302
H           -5.70273510876807       -0.68571167526734        2.12067378560078
H           -6.85426756329403        2.29408888663975       -0.75407270634241
H           -4.65561044521323        2.08838254340290       -1.88517354623239
H           -0.19971510210718       -1.51127075399878        2.92617141699363

          :  Hamiltonian                  GFN1-xTB          :
         :: total energy             -79.484272974419 Eh    ::
         :: gradient norm              0.000601652766 Eh/a0 ::
         :: HOMO-LUMO gap              0.224292614373 eV    ::
         :: SCC energy               -80.368258864181 Eh    ::
         :: -> Gsolv                  -0.103157567452 Eh    ::
         :: repulsion energy           0.915021740075 Eh    ::

    * Orbital Energies and Occupations

         #    Occupation            Energy/Eh            Energy/eV
      -------------------------------------------------------------
         1        2.0000           -0.9365706             -25.4854
       ...           ...                  ...                  ...
        55        2.0000           -0.5183697             -14.1056
        56        2.0000           -0.5152887             -14.0217
        57        2.0000           -0.5137892             -13.9809
        58        2.0000           -0.5069807             -13.7956
        59        2.0000           -0.4999731             -13.6050
        60        2.0000           -0.4927019             -13.4071
        61        2.0000           -0.4878003             -13.2737
        62        2.0000           -0.4774119             -12.9910
        63        2.0000           -0.4718642             -12.8401
        64        2.0000           -0.4625189             -12.5858
        65        2.0000           -0.4495478             -12.2328
        66        2.0000           -0.4336722             -11.8008
        67        1.9742           -0.4191853             -11.4066 (HOMO)
        68        0.0258           -0.4109427             -11.1823 (LUMO)
        69                         -0.3296847              -8.9712
        70                         -0.3287734              -8.9464
        71                         -0.2858880              -7.7794
        72                         -0.2505848              -6.8188
        73                         -0.2424314              -6.5969
        74                         -0.1641381              -4.4664
        75                         -0.1534086              -4.1745
        76                         -0.1469580              -3.9989
        77                         -0.1381921              -3.7604
        78                         -0.1364123              -3.7120
       ...                                ...                  ...
       144                          0.7070480              19.2398
      -------------------------------------------------------------
                  HL-Gap            0.0082426 Eh            0.2243 eV

Wiberg/Mayer (AO) data.
largest (>0.10) Wiberg bond orders for each atom

     #   Z sym  total        # sym  WBO       # sym  WBO       # sym  WBO
 ---------------------------------------------------------------------------
     1   6 C    3.916 --    27 H    0.978    26 H    0.976    28 H    0.974
                             2 N    0.923
     2   7 N    3.521 --     3 C    1.174    24 C    1.142     1 C    0.923
                            25 O    0.135
     3   6 C    3.916 --     8 N    1.560     2 N    1.174     4 C    0.976
     4   6 C    3.962 --     7 N    0.986     6 C    0.986     5 C    0.980
                             3 C    0.976
     5   6 C    3.992 --    29 H    0.985    31 H    0.982     4 C    0.980
                            30 H    0.980
     6   6 C    3.989 --     4 C    0.986    32 H    0.986    33 H    0.985
                            34 H    0.982
     7   7 N    2.966 --     4 C    0.986    36 H    0.938    35 H    0.935
     8   7 N    3.029 --     3 C    1.560     9 C    1.196
     9   6 C    3.964 --    22 C    1.491     8 N    1.196    10 C    1.014
    10   6 C    3.887 --    11 O    1.629    12 N    1.146     9 C    1.014
    11   8 O    1.921 --    10 C    1.629    12 N    0.131
    12   7 N    3.373 --    10 C    1.146    13 C    1.051    37 H    0.874
                            11 O    0.131
    13   6 C    3.928 --    12 N    1.051    39 H    0.976    38 H    0.963
                            14 C    0.754
    14   6 C    3.980 --    16 C    1.105    21 C    1.104    15 C    0.940
                            13 C    0.754
    15   6 C    3.970 --    42 H    0.981    40 H    0.980    41 H    0.980
                            14 C    0.940
    16   6 C    3.943 --    17 C    1.592    14 C    1.105    43 H    0.963
    17   6 C    3.984 --    16 C    1.592    18 C    1.298    44 H    0.957
    18   6 C    3.818 --    20 C    1.299    17 C    1.298    19 F    1.023
    19   9 F    1.174 --    18 C    1.023
    20   6 C    3.983 --    21 C    1.591    18 C    1.299    45 H    0.957
    21   6 C    3.938 --    20 C    1.591    14 C    1.104    46 H    0.964
    22   6 C    3.908 --     9 C    1.491    23 O    1.082    24 C    1.080
    23   8 O    2.074 --    22 C    1.082    47 H    0.790
    24   6 C    3.918 --    25 O    1.548     2 N    1.142    22 C    1.080
    25   8 O    1.895 --    24 C    1.548     2 N    0.135
    26   1 H    1.007 --     1 C    0.976
    27   1 H    1.020 --     1 C    0.978
    28   1 H    1.016 --     1 C    0.974
    29   1 H    1.003 --     5 C    0.985
    30   1 H    1.004 --     5 C    0.980
    31   1 H    0.999 --     5 C    0.982
    32   1 H    1.003 --     6 C    0.986
    33   1 H    1.006 --     6 C    0.985
    34   1 H    1.013 --     6 C    0.982
    35   1 H    0.950 --     7 N    0.935
    36   1 H    0.953 --     7 N    0.938
    37   1 H    0.934 --    12 N    0.874
    38   1 H    1.003 --    13 C    0.963
    39   1 H    0.998 --    13 C    0.976
    40   1 H    0.999 --    15 C    0.980
    41   1 H    1.002 --    15 C    0.980
    42   1 H    0.997 --    15 C    0.981
    43   1 H    0.994 --    16 C    0.963
    44   1 H    0.986 --    17 C    0.957
    45   1 H    0.986 --    20 C    0.957
    46   1 H    0.990 --    21 C    0.964
    47   1 H    0.836 --    23 O    0.790
 ---------------------------------------------------------------------------

           -------------------------------------------------
          | TOTAL ENERGY              -79.484272974419 Eh   |
          | GRADIENT NORM               0.000601652766 Eh/α |
          | HOMO-LUMO GAP               0.224292614373 eV   |
           -------------------------------------------------

 * finished run on 2023/06/20 at 15:27:11.532
