   * xtb version 6.5.1 (579679a) compiled by 'ehlert@majestix' on 2022-07-11
          program call               : /lustre/hpc/kemi/ree/PhD/git/ReactivityQM/dep/xtb-6.5.1/bin/xtb --gfn 1 /lustre/hpc/kemi/ree/PhD/git/ReactivityQM/calculations/R02oxygendeprot/reac01prodN12/conf08/R02oxygendeprot_reac01prodN12_conf08_gfn1.xyz --opt --vfukui --chrg 0 --uhf 0 --alpb DMSO

   ID    Z sym.   atoms
    1    6 C      1, 3, 5, 7-10, 12, 14, 15, 18, 19, 22, 24
    2    8 O      2, 4, 13, 20, 23, 25
    3    7 N      6, 11, 16, 17, 21
    4    1 H      26-42

      * Solvation model:               ALPB
        Solvent                        DMSO
        Solvent mass                       7.8130E+01 g/mol
          :  Hamiltonian                  GFN1-xTB          :
 * total energy  :   -82.9331601 Eh     change       -0.8928680E-10 Eh
 * total energy  :   -82.9426703 Eh     change       -0.9510179E-02 Eh
 * total energy  :   -82.9458583 Eh     change       -0.3188032E-02 Eh
 * total energy  :   -82.9464837 Eh     change       -0.6254179E-03 Eh
 * total energy  :   -82.9470580 Eh     change       -0.5742739E-03 Eh
 * total energy  :   -82.9473865 Eh     change       -0.3285040E-03 Eh
 * total energy  :   -82.9476134 Eh     change       -0.2269040E-03 Eh
 * total energy  :   -82.9477534 Eh     change       -0.1400277E-03 Eh
 * total energy  :   -82.9478455 Eh     change       -0.9204545E-04 Eh
 * total energy  :   -82.9479276 Eh     change       -0.8212947E-04 Eh
 * total energy  :   -82.9485403 Eh     change       -0.1100028E-04 Eh
 * total energy  :   -82.9485530 Eh     change       -0.1270459E-04 Eh
 * total energy  :   -82.9485648 Eh     change       -0.1181344E-04 Eh
 * total energy  :   -82.9485748 Eh     change       -0.9923235E-05 Eh
 * total energy  :   -82.9485840 Eh     change       -0.9228050E-05 Eh
 * total energy  :   -82.9485930 Eh     change       -0.9040609E-05 Eh
 * total energy  :   -82.9486007 Eh     change       -0.7657790E-05 Eh
 * total energy  :   -82.9486059 Eh     change       -0.5242252E-05 Eh
 * total energy  :   -82.9486095 Eh     change       -0.3562642E-05 Eh
   *** GEOMETRY OPTIMIZATION CONVERGED AFTER 37 ITERATIONS ***

 final structure:
================
42
 xtb: 6.5.1 (579679a)
C            5.26311013376311        2.99330306739594       -0.14723432151589
O            4.21057241486816        2.02993405682090       -0.16224978536196
C            4.31730827147168        1.05203033300396       -1.08387438927240
O            5.24924532952766        0.99828653707300       -1.85799406506006
C            3.19180999383673        0.09831982729680       -1.01354611146780
N            2.26391724052704        0.35379237986714       -0.05686408047611
C            1.26243468812726       -0.44560971489437        0.12926134901634
C            0.27852455159042       -0.16254609773316        1.23884205820893
C            0.45760673126976       -1.19773237707951        2.35832195459197
C            0.47469282900511        1.26382714276068        1.75547379961271
N           -1.08003476975546       -0.30449109610465        0.66427616700021
C           -2.18056021092825       -0.11426911305389        1.38172693567395
O           -2.26395712540203        0.23113364168518        2.53712403802320
C           -3.51677693336747       -0.40704967238449        0.58893274471740
C           -4.26005609750008       -1.51405378051208        1.33890330594906
N           -4.25727825043069        0.80537676806094        0.50911027769099
N           -4.41578327035386        1.11584055951553       -0.73559565926507
C           -3.83731559967669        0.17310750949275       -1.48320813942172
C           -3.79945881856485        0.14036480544741       -2.95167026845917
O           -3.27315419847161       -0.76469072335286       -0.75528031121822
N            1.09032699534526       -1.57671996037860       -0.61803831774692
C            1.93300362328242       -1.95692935642666       -1.64829148852847
O            1.70543105965884       -2.97480372999724       -2.27512256778551
C            3.10933527336402       -1.03332929922323       -1.89324720507815
O            3.90429786248085       -1.29762529348141       -2.79520292220342
H            5.01289842724487        3.71901394228527        0.62426594882691
H            5.33999364056545        3.48906376406406       -1.11893648450594
H            6.21626560895695        2.51053760245224        0.08594999199752
H           -0.22824426611417       -0.98811558966521        3.17667312565011
H            1.47984210755152       -1.15422038277961        2.73122703227201
H            0.25914542501287       -2.19705265669393        1.97642845147743
H            0.28783922372125        1.97762039285778        0.95468620770178
H            1.50210183090662        1.37974587117662        2.09734532976621
H           -0.20146801944325        1.46442113182107        2.58345637200398
H           -1.16603940483489       -0.64092112405700       -0.28027655117932
H           -4.40516627878143       -1.19758313711042        2.36969252890621
H           -3.66867358105871       -2.42550986895949        1.30990530962543
H           -5.22120622201416       -1.68550730341728        0.86035820251665
H           -4.76306902639256        0.45398811766703       -3.35144133591145
H           -3.54635226290427       -0.85775142664513       -3.30117006785020
H           -3.04603061234101        0.84392526760687       -3.31288023812088
H            0.32091768625846       -2.19712001439792       -0.42984082080375

          :  Hamiltonian                  GFN1-xTB          :
         :: total energy             -82.948609492044 Eh    ::
         :: gradient norm              0.000247871379 Eh/a0 ::
         :: HOMO-LUMO gap              0.093676424216 eV    ::
         :: SCC energy               -83.719403462807 Eh    ::
         :: -> Gsolv                  -0.080416726555 Eh    ::
         :: repulsion energy           0.797109876975 Eh    ::

    * Orbital Energies and Occupations

         #    Occupation            Energy/Eh            Energy/eV
      -------------------------------------------------------------
         1        2.0000           -0.8913043             -24.2536
       ...           ...                  ...                  ...
        55        2.0000           -0.5101937             -13.8831
        56        2.0000           -0.5090068             -13.8508
        57        2.0000           -0.5057541             -13.7623
        58        2.0000           -0.4949541             -13.4684
        59        2.0000           -0.4869169             -13.2497
        60        2.0000           -0.4863785             -13.2350
        61        2.0000           -0.4776070             -12.9963
        62        2.0000           -0.4756540             -12.9432
        63        2.0000           -0.4710161             -12.8170
        64        2.0000           -0.4674124             -12.7189
        65        2.0000           -0.4534363             -12.3386
        66        2.0000           -0.4137082             -11.2576
        67        1.7192           -0.4001739             -10.8893 (HOMO)
        68        0.2808           -0.3967314             -10.7956 (LUMO)
        69                         -0.3021823              -8.2228
        70                         -0.2920666              -7.9475
        71                         -0.2777108              -7.5569
        72                         -0.2766662              -7.5285
        73                         -0.2274626              -6.1896
        74                         -0.1590964              -4.3292
        75                         -0.1474942              -4.0135
        76                         -0.1412119              -3.8426
        77                         -0.1362101              -3.7065
        78                         -0.1327201              -3.6115
       ...                                ...                  ...
       134                          0.7562885              20.5797
      -------------------------------------------------------------
                  HL-Gap            0.0034425 Eh            0.0937 eV

Wiberg/Mayer (AO) data.
largest (>0.10) Wiberg bond orders for each atom

     #   Z sym  total        # sym  WBO       # sym  WBO       # sym  WBO
 ---------------------------------------------------------------------------
     1   6 C    3.881 --    26 H    0.987    27 H    0.980    28 H    0.979
                             2 O    0.908
     2   8 O    2.167 --     3 C    1.076     1 C    0.908     4 O    0.126
     3   6 C    3.840 --     4 O    1.638     2 O    1.076     5 C    1.043
     4   8 O    1.883 --     3 C    1.638     2 O    0.126
     5   6 C    3.739 --     6 N    1.259    24 C    1.184     3 C    1.043
     6   7 N    3.000 --     7 C    1.520     5 C    1.259
     7   6 C    3.821 --     6 N    1.520    21 N    1.156     8 C    0.986
     8   6 C    3.918 --    10 C    0.996     7 C    0.986     9 C    0.977
                            11 N    0.890
     9   6 C    3.981 --    31 H    0.984    30 H    0.984    29 H    0.979
                             8 C    0.977
    10   6 C    3.988 --     8 C    0.996    32 H    0.985    33 H    0.982
                            34 H    0.981
    11   7 N    3.359 --    12 C    1.326     8 C    0.890    35 H    0.887
                            13 O    0.175
    12   6 C    3.875 --    13 O    1.631    11 N    1.326    14 C    0.813
    13   8 O    1.971 --    12 C    1.631    11 N    0.175
    14   6 C    3.845 --    16 N    1.062    15 C    0.930    20 O    0.904
                            12 C    0.813
    15   6 C    3.935 --    37 H    0.981    38 H    0.980    36 H    0.978
                            14 C    0.930
    16   7 N    2.699 --    17 N    1.480    14 C    1.062
    17   7 N    2.967 --    16 N    1.480    18 C    1.341
    18   6 C    3.689 --    17 N    1.341    20 O    1.169    19 C    1.054
    19   6 C    3.971 --    18 C    1.054    40 H    0.974    39 H    0.958
                            41 H    0.933
    20   8 O    2.246 --    18 C    1.169    14 C    0.904
    21   7 N    3.416 --     7 C    1.156    22 C    1.115    42 H    0.886
                            23 O    0.119
    22   6 C    3.846 --    23 O    1.642    21 N    1.115    24 C    0.951
    23   8 O    1.874 --    22 C    1.642    21 N    0.119
    24   6 C    3.883 --    25 O    1.599     5 C    1.184    22 C    0.951
    25   8 O    1.797 --    24 C    1.599
    26   1 H    1.013 --     1 C    0.987
    27   1 H    1.009 --     1 C    0.980
    28   1 H    1.008 --     1 C    0.979
    29   1 H    1.003 --     9 C    0.979
    30   1 H    0.999 --     9 C    0.984
    31   1 H    1.000 --     9 C    0.984
    32   1 H    1.005 --    10 C    0.985
    33   1 H    1.011 --    10 C    0.982
    34   1 H    1.007 --    10 C    0.981
    35   1 H    0.936 --    11 N    0.887
    36   1 H    1.000 --    15 C    0.978
    37   1 H    0.995 --    15 C    0.981
    38   1 H    0.994 --    15 C    0.980
    39   1 H    0.987 --    19 C    0.958
    40   1 H    0.990 --    19 C    0.974
    41   1 H    0.977 --    19 C    0.933
    42   1 H    0.930 --    21 N    0.886
 ---------------------------------------------------------------------------

           -------------------------------------------------
          | TOTAL ENERGY              -82.948609492044 Eh   |
          | GRADIENT NORM               0.000247871379 Eh/α |
          | HOMO-LUMO GAP               0.093676424216 eV   |
           -------------------------------------------------

 * finished run on 2023/06/21 at 17:27:25.611
