   * xtb version 6.5.1 (579679a) compiled by 'ehlert@majestix' on 2022-07-11
          program call               : /lustre/hpc/kemi/ree/PhD/git/ReactivityQM/dep/xtb-6.5.1/bin/xtb --gfn 1 /lustre/hpc/kemi/ree/PhD/git/ReactivityQM/calculations/R02deprot/reac01prodE10/conf17/R02deprot_reac01prodE10_conf17_gfn1.xyz --opt --vfukui --chrg -2 --uhf 0 --alpb DMSO

   ID    Z sym.   atoms
    1    6 C      1, 3, 5, 7-10, 12, 14, 17-19, 22, 24
    2    8 O      2, 4, 13, 20, 23, 25
    3    7 N      6, 11, 15, 16, 21
    4    1 H      26-42

      * Solvation model:               ALPB
        Solvent                        DMSO
        Solvent mass                       7.8130E+01 g/mol
          :  Hamiltonian                  GFN1-xTB          :
 * total energy  :   -83.5526053 Eh     change       -0.5073275E-11 Eh
 * total energy  :   -83.5671109 Eh     change       -0.1450558E-01 Eh
 * total energy  :   -83.5725363 Eh     change       -0.5425456E-02 Eh
 * total energy  :   -83.5732426 Eh     change       -0.7062890E-03 Eh
 * total energy  :   -83.5738375 Eh     change       -0.5948911E-03 Eh
 * total energy  :   -83.5739688 Eh     change       -0.1313034E-03 Eh
 * total energy  :   -83.5740797 Eh     change       -0.1109369E-03 Eh
 * total energy  :   -83.5741266 Eh     change       -0.4686503E-04 Eh
 * total energy  :   -83.5741642 Eh     change       -0.3762308E-04 Eh
 * total energy  :   -83.5741879 Eh     change       -0.2364505E-04 Eh
 * total energy  :   -83.5742810 Eh     change       -0.3753096E-04 Eh
 * total energy  :   -83.5743085 Eh     change       -0.2747178E-04 Eh
 * total energy  :   -83.5743260 Eh     change       -0.1746154E-04 Eh
 * total energy  :   -83.5743491 Eh     change       -0.2313935E-04 Eh
 * total energy  :   -83.5743657 Eh     change       -0.1658157E-04 Eh
 * total energy  :   -83.5743782 Eh     change       -0.1254714E-04 Eh
 * total energy  :   -83.5743870 Eh     change       -0.8737780E-05 Eh
 * total energy  :   -83.5743930 Eh     change       -0.6008574E-05 Eh
 * total energy  :   -83.5743953 Eh     change       -0.2260995E-05 Eh
   *** GEOMETRY OPTIMIZATION CONVERGED AFTER 22 ITERATIONS ***

 final structure:
================
42
 xtb: 6.5.1 (579679a)
C           -5.15243675867762       -2.60558675853565        0.16877416831964
O           -4.17705822190959       -1.58480109520781        0.30209544027077
C           -4.40237861768173       -0.45766096240482       -0.43573866333926
O           -5.40080065569912       -0.37954038452681       -1.16706724472579
C           -3.40131083189612        0.57793030013239       -0.27627568020504
N           -2.35451799743842        0.33797929402924        0.57716226790276
C           -1.45966371706976        1.29901919005892        0.70808439001526
C           -0.29119270674226        1.00790174966994        1.65728943438948
C            0.48916001293534        2.30274388406020        1.94174206412428
C           -0.85823177530883        0.42750514225635        2.96281915512206
N            0.54024793963992       -0.00419808671252        0.98577204642653
C            1.87053366318333       -0.24392923503102        1.50687428145146
O            2.09415302996585       -0.21233566282614        2.76244485222479
C            2.76962567625273       -0.55508510268347        0.51536858217087
N            2.54041774579301       -0.59462992250954       -0.87026034215809
N            3.71502539288635       -0.94910396937723       -1.37640962662077
C            3.84004181400019       -1.09213933876155       -2.80769524533901
C            4.65598785919927       -1.14223067099216       -0.47705602594807
C            6.06902868524524       -1.54235651415455       -0.68412616084548
O            4.15952761206558       -0.91722472464611        0.77265391876392
N           -1.46233455881485        2.48175351460390        0.09817842028331
C           -2.46804768602249        2.80501677694257       -0.77052045196185
O           -2.49465095029050        3.91185821859035       -1.35593954930156
C           -3.48883913415322        1.78430533044101       -0.96194134544457
O           -4.51254497840755        2.06498185351306       -1.82430689975442
H           -4.82242873128791       -3.44881386688944        0.77494779294006
H           -5.24979107656433       -2.91822195909122       -0.87589723750159
H           -6.12889487156014       -2.25844349278526        0.52183130262017
H           -0.18990411553726        3.05987965299272        2.33567709243550
H            1.27843042634051        2.12522892988056        2.67185907681051
H            0.93259716912223        2.68528169890531        1.02146873445292
H           -1.53356300570018        1.14731258227966        3.42745590703127
H           -1.41671132986704       -0.48366216541289        2.74293600005229
H           -0.05812353687146        0.19236940613356        3.66398542877701
H            0.59541800579611        0.19501162002154       -0.01165153961377
H            4.61528529523105       -0.42527873605241       -3.18151696322725
H            4.09914468431934       -2.12027332827245       -3.05625003959404
H            2.88288906606843       -0.83472115096327       -3.25616701214258
H            6.28086444711334       -2.48511009530344       -0.17518936629471
H            6.27501322188129       -1.66335950927475       -1.74412824089348
H            6.74514416937614       -0.78706004622077       -0.27806513035430
H           -5.12511165888231        1.29968763409964       -1.85418059132227

          :  Hamiltonian                  GFN1-xTB          :
         :: total energy             -83.574395251418 Eh    ::
         :: gradient norm              0.000347042803 Eh/a0 ::
         :: HOMO-LUMO gap              0.094652079581 eV    ::
         :: SCC energy               -84.300219280329 Eh    ::
         :: -> Gsolv                  -0.293555516356 Eh    ::
         :: repulsion energy           0.750728636279 Eh    ::

    * Orbital Energies and Occupations

         #    Occupation            Energy/Eh            Energy/eV
      -------------------------------------------------------------
         1        2.0000           -0.8105388             -22.0559
       ...           ...                  ...                  ...
        56        2.0000           -0.4402785             -11.9806
        57        2.0000           -0.4344480             -11.8219
        58        2.0000           -0.4243874             -11.5482
        59        2.0000           -0.4132805             -11.2459
        60        2.0000           -0.4027603             -10.9597
        61        2.0000           -0.3912776             -10.6472
        62        2.0000           -0.3826434             -10.4123
        63        2.0000           -0.3742101             -10.1828
        64        2.0000           -0.3660593              -9.9610
        65        2.0000           -0.3515868              -9.5672
        66        2.0000           -0.3426912              -9.3251
        67        2.0000           -0.3419594              -9.3052
        68        1.7237           -0.2621045              -7.1322 (HOMO)
        69        0.2763           -0.2586261              -7.0376 (LUMO)
        70                         -0.2320542              -6.3145
        71                         -0.1980712              -5.3898
        72                         -0.1647600              -4.4833
        73                         -0.1430246              -3.8919
        74                         -0.1280543              -3.4845
        75                         -0.1184692              -3.2237
        76                         -0.1108257              -3.0157
        77                         -0.0828112              -2.2534
        78                         -0.0790966              -2.1523
        79                         -0.0772414              -2.1018
       ...                                ...                  ...
       134                          0.7188973              19.5622
      -------------------------------------------------------------
                  HL-Gap            0.0034784 Eh            0.0947 eV

Wiberg/Mayer (AO) data.
largest (>0.10) Wiberg bond orders for each atom

     #   Z sym  total        # sym  WBO       # sym  WBO       # sym  WBO
 ---------------------------------------------------------------------------
     1   6 C    3.902 --    26 H    0.987    28 H    0.980    27 H    0.980
                             2 O    0.929
     2   8 O    2.124 --     3 C    1.029     1 C    0.929
     3   6 C    3.718 --     4 O    1.504     5 C    1.110     2 O    1.029
     4   8 O    1.811 --     3 C    1.504
     5   6 C    3.927 --    24 C    1.391     6 N    1.194     3 C    1.110
     6   7 N    2.953 --     7 C    1.452     5 C    1.194
     7   6 C    3.952 --     6 N    1.452    21 N    1.376     8 C    0.966
     8   6 C    3.960 --    10 C    0.992     9 C    0.992     7 C    0.966
                            11 N    0.950
     9   6 C    3.995 --     8 C    0.992    29 H    0.987    31 H    0.986
                            30 H    0.984
    10   6 C    3.996 --     8 C    0.992    32 H    0.989    33 H    0.985
                            34 H    0.981
    11   7 N    3.058 --    12 C    0.970     8 C    0.950    35 H    0.941
    12   6 C    3.870 --    14 C    1.431    13 O    1.331    11 N    0.970
    13   8 O    1.630 --    12 C    1.331    14 C    0.122
    14   6 C    3.615 --    12 C    1.431    15 N    1.108    20 O    0.846
                            13 O    0.122
    15   7 N    2.732 --    16 N    1.177    14 C    1.108    18 C    0.276
    16   7 N    3.635 --    18 C    1.378    15 N    1.177    17 C    0.947
    17   6 C    3.950 --    38 H    0.984    36 H    0.981    37 H    0.981
                            16 N    0.947
    18   6 C    3.817 --    16 N    1.378    20 O    1.044    19 C    1.027
                            15 N    0.276
    19   6 C    3.993 --    18 C    1.027    40 H    0.985    41 H    0.969
                            39 H    0.969
    20   8 O    2.077 --    18 C    1.044    14 C    0.846
    21   7 N    2.932 --     7 C    1.376    22 C    1.213    23 O    0.116
    22   6 C    3.914 --    23 O    1.455    21 N    1.213    24 C    1.119
    23   8 O    1.728 --    22 C    1.455    21 N    0.116
    24   6 C    3.806 --     5 C    1.391    22 C    1.119    25 O    1.041
    25   8 O    2.000 --    24 C    1.041    42 H    0.811
    26   1 H    1.017 --     1 C    0.987
    27   1 H    1.014 --     1 C    0.980
    28   1 H    1.013 --     1 C    0.980
    29   1 H    1.018 --     9 C    0.987
    30   1 H    1.022 --     9 C    0.984
    31   1 H    1.022 --     9 C    0.986
    32   1 H    1.010 --    10 C    0.989
    33   1 H    1.030 --    10 C    0.985
    34   1 H    1.033 --    10 C    0.981
    35   1 H    0.995 --    11 N    0.941
    36   1 H    1.002 --    17 C    0.981
    37   1 H    1.003 --    17 C    0.981
    38   1 H    1.011 --    17 C    0.984
    39   1 H    1.001 --    19 C    0.969
    40   1 H    1.001 --    19 C    0.985
    41   1 H    1.001 --    19 C    0.969
    42   1 H    0.889 --    25 O    0.811
 ---------------------------------------------------------------------------

           -------------------------------------------------
          | TOTAL ENERGY              -83.574395251418 Eh   |
          | GRADIENT NORM               0.000347042803 Eh/α |
          | HOMO-LUMO GAP               0.094652079581 eV   |
           -------------------------------------------------

 * finished run on 2023/06/20 at 17:54:57.381
