   * xtb version 6.5.1 (579679a) compiled by 'ehlert@majestix' on 2022-07-11
          program call               : /lustre/hpc/kemi/ree/PhD/git/ReactivityQM/dep/xtb-6.5.1/bin/xtb --gfn 1 /lustre/hpc/kemi/ree/PhD/git/ReactivityQM/calculations/R01/reac01prodE05/conf13/R01_reac01prodE05_conf13_gfn1.xyz --opt --vfukui --chrg -1 --uhf 0 --alpb DMSO

   ID    Z sym.   atoms
    1    6 C      1, 3, 5, 8-10
    2    8 O      2, 4, 11
    3    7 N      6, 7
    4    1 H      12-20

      * Solvation model:               ALPB
        Solvent                        DMSO
        Solvent mass                       7.8130E+01 g/mol
          :  Hamiltonian                  GFN1-xTB          :
 * total energy  :   -38.2551478 Eh     change       -0.9265477E-11 Eh
 * total energy  :   -38.2714793 Eh     change       -0.1633149E-01 Eh
 * total energy  :   -38.2766369 Eh     change       -0.5157590E-02 Eh
 * total energy  :   -38.2772202 Eh     change       -0.5833615E-03 Eh
 * total energy  :   -38.2776412 Eh     change       -0.4209325E-03 Eh
 * total energy  :   -38.2777842 Eh     change       -0.1430169E-03 Eh
 * total energy  :   -38.2778577 Eh     change       -0.7345995E-04 Eh
 * total energy  :   -38.2778985 Eh     change       -0.4083595E-04 Eh
 * total energy  :   -38.2779207 Eh     change       -0.2223598E-04 Eh
 * total energy  :   -38.2779372 Eh     change       -0.1651414E-04 Eh
 * total energy  :   -38.2779511 Eh     change       -0.1381708E-04 Eh
 * total energy  :   -38.2779554 Eh     change       -0.4318157E-05 Eh
   *** GEOMETRY OPTIMIZATION CONVERGED AFTER 12 ITERATIONS ***

 final structure:
================
20
 xtb: 6.5.1 (579679a)
C            4.05206005497379        0.76956636066879        0.10982646594109
O            2.64835145045252        0.82824074099330        0.06232394844510
C            2.02557097729817       -0.41729979294743       -0.34648693417025
O            2.78246411385727       -1.40612200330450       -0.63030607717195
C            0.67189608378781       -0.35476676077985       -0.38021400582139
N           -0.24040097849985       -1.39013651387085       -0.72951128833436
N           -1.42431368876802       -0.81279670116997       -0.58359685750234
C           -2.61037416843315       -1.59176579306779       -0.84585953387539
C           -1.39206334233703        0.43787143354934       -0.17643195912856
C           -2.53597030380006        1.35818183005971        0.04929880543700
O           -0.09353272486412        0.84953256448842       -0.02202491561888
H            4.41371036180614        1.75702103527258        0.40976336819691
H            4.40883262145241        0.02739012396808        0.84027862143683
H            4.48738744789599        0.51776180002052       -0.86912912464251
H           -3.34085814947815       -0.98452882933569       -1.37698703858751
H           -3.04470906026053       -1.93719142815726        0.09289153335538
H           -2.32617760770728       -2.44891725053164       -1.45309487525724
H           -3.02847786836066        1.62745921623437       -0.88905410045427
H           -2.16892978166823        2.26841257854212        0.52006138489203
H           -3.28446643734706        0.90208538936788        0.69906358286046

          :  Hamiltonian                  GFN1-xTB          :
         :: total energy             -38.277955379970 Eh    ::
         :: gradient norm              0.000899336983 Eh/a0 ::
         :: HOMO-LUMO gap              0.969644481241 eV    ::
         :: SCC energy               -38.591335174267 Eh    ::
         :: -> Gsolv                  -0.121844569492 Eh    ::
         :: repulsion energy           0.321518854981 Eh    ::

    * Orbital Energies and Occupations

         #    Occupation            Energy/Eh            Energy/eV
      -------------------------------------------------------------
         1        2.0000           -0.8003358             -21.7782
       ...           ...                  ...                  ...
        19        2.0000           -0.5142129             -13.9924
        20        2.0000           -0.5111197             -13.9083
        21        2.0000           -0.5036162             -13.7041
        22        2.0000           -0.4852331             -13.2039
        23        2.0000           -0.4659130             -12.6781
        24        2.0000           -0.4595375             -12.5047
        25        2.0000           -0.4551787             -12.3860
        26        2.0000           -0.4370166             -11.8918
        27        2.0000           -0.4067822             -11.0691
        28        2.0000           -0.4026622             -10.9570
        29        2.0000           -0.3698671             -10.0646
        30        2.0000           -0.3653203              -9.9409
        31        2.0000           -0.2578596              -7.0167 (HOMO)
        32                         -0.2222258              -6.0471 (LUMO)
        33                         -0.1397413              -3.8026
        34                         -0.1246508              -3.3919
        35                         -0.0996919              -2.7128
        36                         -0.0987308              -2.6866
        37                         -0.0797956              -2.1714
        38                         -0.0703269              -1.9137
        39                         -0.0548635              -1.4929
        40                         -0.0476736              -1.2973
        41                         -0.0382593              -1.0411
        42                         -0.0350692              -0.9543
       ...                                ...                  ...
        62                          0.7123269              19.3834
      -------------------------------------------------------------
                  HL-Gap            0.0356338 Eh            0.9696 eV

Wiberg/Mayer (AO) data.
largest (>0.10) Wiberg bond orders for each atom

     #   Z sym  total        # sym  WBO       # sym  WBO       # sym  WBO
 ---------------------------------------------------------------------------
     1   6 C    3.933 --    12 H    0.986    13 H    0.980    14 H    0.979
                             2 O    0.970
     2   8 O    2.001 --     1 C    0.970     3 C    0.856
     3   6 C    3.877 --     5 C    1.545     4 O    1.309     2 O    0.856
     4   8 O    1.639 --     3 C    1.309     5 C    0.168
     5   6 C    3.711 --     3 C    1.545     6 N    1.059    11 O    0.836
                             4 O    0.168
     6   7 N    2.756 --     7 N    1.185     5 C    1.059     9 C    0.328
     7   7 N    3.635 --     9 C    1.374     6 N    1.185     8 C    0.952
     8   6 C    3.956 --    15 H    0.985    17 H    0.984    16 H    0.979
                             7 N    0.952
     9   6 C    3.867 --     7 N    1.374    11 O    1.029    10 C    1.024
                             6 N    0.328
    10   6 C    3.994 --     9 C    1.024    19 H    0.983    20 H    0.977
                            18 H    0.970
    11   8 O    2.086 --     9 C    1.029     5 C    0.836
    12   1 H    1.023 --     1 C    0.986
    13   1 H    1.027 --     1 C    0.980
    14   1 H    1.028 --     1 C    0.979
    15   1 H    1.003 --     8 C    0.985
    16   1 H    1.004 --     8 C    0.979
    17   1 H    1.014 --     8 C    0.984
    18   1 H    1.004 --    10 C    0.970
    19   1 H    1.003 --    10 C    0.983
    20   1 H    1.004 --    10 C    0.977
 ---------------------------------------------------------------------------

           -------------------------------------------------
          | TOTAL ENERGY              -38.277955379970 Eh   |
          | GRADIENT NORM               0.000899336983 Eh/α |
          | HOMO-LUMO GAP               0.969644481241 eV   |
           -------------------------------------------------

 * finished run on 2023/06/20 at 14:53:58.492
