   * xtb version 6.5.1 (579679a) compiled by 'ehlert@majestix' on 2022-07-11
          program call               : /lustre/hpc/kemi/ree/PhD/git/ReactivityQM/dep/xtb-6.5.1/bin/xtb --gfn 1 /lustre/hpc/kemi/ree/PhD/git/ReactivityQM/calculations/R02deprot/reac01prodN14/conf09/R02deprot_reac01prodN14_conf09_gfn1.xyz --opt --vfukui --chrg 0 --uhf 0 --alpb DMSO

   ID    Z sym.   atoms
    1    6 C      1, 3, 5, 7-10, 12, 14, 17-19, 22, 24
    2    8 O      2, 4, 13, 20, 23, 25
    3    7 N      6, 11, 15, 16, 21
    4    1 H      26-42

      * Solvation model:               ALPB
        Solvent                        DMSO
        Solvent mass                       7.8130E+01 g/mol
          :  Hamiltonian                  GFN1-xTB          :
 * total energy  :   -82.9108794 Eh     change       -0.1150937E-09 Eh
 * total energy  :   -82.9222307 Eh     change       -0.1135129E-01 Eh
 * total energy  :   -82.9261840 Eh     change       -0.3953246E-02 Eh
 * total energy  :   -82.9266858 Eh     change       -0.5018665E-03 Eh
 * total energy  :   -82.9270313 Eh     change       -0.3454618E-03 Eh
 * total energy  :   -82.9272053 Eh     change       -0.1740207E-03 Eh
 * total energy  :   -82.9273895 Eh     change       -0.1842226E-03 Eh
 * total energy  :   -82.9275682 Eh     change       -0.1786105E-03 Eh
 * total energy  :   -82.9277333 Eh     change       -0.1651218E-03 Eh
 * total energy  :   -82.9278784 Eh     change       -0.1450995E-03 Eh
 * total energy  :   -82.9295182 Eh     change       -0.2058428E-04 Eh
 * total energy  :   -82.9295474 Eh     change       -0.2917965E-04 Eh
 * total energy  :   -82.9295823 Eh     change       -0.3490568E-04 Eh
 * total energy  :   -82.9296096 Eh     change       -0.2727780E-04 Eh
 * total energy  :   -82.9296262 Eh     change       -0.1663901E-04 Eh
 * total energy  :   -82.9296380 Eh     change       -0.1181130E-04 Eh
 * total energy  :   -82.9296481 Eh     change       -0.1003816E-04 Eh
 * total energy  :   -82.9296555 Eh     change       -0.7429401E-05 Eh
 * total energy  :   -82.9296597 Eh     change       -0.4224212E-05 Eh
   *** GEOMETRY OPTIMIZATION CONVERGED AFTER 57 ITERATIONS ***

 final structure:
================
42
 xtb: 6.5.1 (579679a)
C            6.96421237898317        0.79674788010203        0.46678313676586
O            5.60016761246196        1.10540181098029        0.14232252239390
C            4.75481414986417        0.06526085180500        0.11392945965334
O            5.10513641180871       -1.06901209071875        0.33292329768646
C            3.34886906700400        0.45802432489649       -0.19765347579127
N            2.47558794709635       -0.56290781577360       -0.13959262117157
C            1.18314108568183       -0.30458087875875       -0.35027371529760
C            0.25936878626876       -1.50491279098967       -0.26505529289655
C            0.54260432766148       -2.29540032313590        1.01835764576031
C            0.47772273896669       -2.38126932733810       -1.50857975782355
N           -1.10830952109711       -0.99335763832785       -0.24812316583963
C           -2.19938715229532       -1.76448118361971       -0.17471880330641
O           -2.22762141939334       -2.98409027408071       -0.12231006377718
C           -3.45855883148521       -0.96406090261480       -0.15049846225590
N           -4.70026860411410       -1.48560155954815       -0.09831716566303
N           -5.54337576039442       -0.52403638549186       -0.07085785858458
C           -4.83951103258971        0.72939941985027       -0.10190883027543
C           -5.20967755435387        1.52273879304865       -1.35654079524428
C           -5.09732170212387        1.51541219105453        1.18617928364104
O           -3.46371541443949        0.34266474867479       -0.16096124893057
N            0.65471623546505        0.86347896426712       -0.62652970946628
C            1.46197458167035        1.97019380524447       -0.74826345561534
O            1.01732594652558        3.07502520754086       -1.03875767302208
C            2.90829532414951        1.74014845031338       -0.50571347109725
O            3.67929756709310        2.81470818015877       -0.62150907193527
H            7.40178133473555        0.18099019758032       -0.32153236077768
H            7.48968193172243        1.74512649992511        0.54383538307826
H            7.00566603280862        0.25885317057728        1.41628010963228
H            0.31441400408915       -1.68310856574712        1.88927896153730
H            1.59762477829895       -2.56482208749231        1.03951549222184
H           -0.06061205347226       -3.20072524402579        1.04872046136346
H           -0.13659783907854       -3.27792580337622       -1.45052642596914
H            0.21563880807921       -1.82459266584998       -2.40683054815725
H            1.52704089153062       -2.66778596768334       -1.55970774878656
H           -1.19935736158411        0.01589954107683       -0.32236180985037
H           -4.98871149002485        0.92674092625993       -2.23930203791894
H           -6.27084110252697        1.75598185105059       -1.32826536013630
H           -4.63101987530846        2.44272544841115       -1.38248220587345
H           -6.15517120742974        1.75662059510112        1.24950211122970
H           -4.51075708203271        2.43056356165138        1.17063148122484
H           -4.80749234313889        0.91074327965764        2.04278369576878
H            4.62322440492248        2.62922080535092       -0.47194190649172

          :  Hamiltonian                  GFN1-xTB          :
         :: total energy             -82.929659740454 Eh    ::
         :: gradient norm              0.000261971418 Eh/a0 ::
         :: HOMO-LUMO gap              0.057905444877 eV    ::
         :: SCC energy               -83.688577757535 Eh    ::
         :: -> Gsolv                  -0.058112033847 Eh    ::
         :: repulsion energy           0.784284533466 Eh    ::

    * Orbital Energies and Occupations

         #    Occupation            Energy/Eh            Energy/eV
      -------------------------------------------------------------
         1        2.0000           -0.8865217             -24.1235
       ...           ...                  ...                  ...
        55        2.0000           -0.5105317             -13.8923
        56        2.0000           -0.5018458             -13.6559
        57        2.0000           -0.5003614             -13.6155
        58        2.0000           -0.4978984             -13.5485
        59        2.0000           -0.4845155             -13.1843
        60        2.0000           -0.4790788             -13.0364
        61        2.0000           -0.4759332             -12.9508
        62        2.0000           -0.4670826             -12.7100
        63        2.0000           -0.4660756             -12.6826
        64        2.0000           -0.4562928             -12.4164
        65        2.0000           -0.4450016             -12.1091
        66        1.9993           -0.4159008             -11.3172
        67        1.5083           -0.4093639             -11.1394 (HOMO)
        68        0.4924           -0.4072359             -11.0815 (LUMO)
        69                         -0.3217524              -8.7553
        70                         -0.3105989              -8.4518
        71                         -0.2703715              -7.3572
        72                         -0.2261052              -6.1526
        73                         -0.2204324              -5.9983
        74                         -0.1491650              -4.0590
        75                         -0.1457522              -3.9661
        76                         -0.1403249              -3.8184
        77                         -0.1356171              -3.6903
        78                         -0.1215621              -3.3079
       ...                                ...                  ...
       134                          0.7315217              19.9057
      -------------------------------------------------------------
                  HL-Gap            0.0021280 Eh            0.0579 eV

Wiberg/Mayer (AO) data.
largest (>0.10) Wiberg bond orders for each atom

     #   Z sym  total        # sym  WBO       # sym  WBO       # sym  WBO
 ---------------------------------------------------------------------------
     1   6 C    3.861 --    27 H    0.986    28 H    0.980    26 H    0.980
                             2 O    0.884
     2   8 O    2.202 --     3 C    1.089     1 C    0.884     4 O    0.130
     3   6 C    3.841 --     4 O    1.675     2 O    1.089     5 C    0.997
     4   8 O    1.932 --     3 C    1.675     2 O    0.130
     5   6 C    3.919 --    24 C    1.371     6 N    1.315     3 C    0.997
     6   7 N    2.845 --     7 C    1.326     5 C    1.315
     7   6 C    3.915 --    21 N    1.469     6 N    1.326     8 C    0.980
     8   6 C    3.923 --     7 C    0.980     9 C    0.979    10 C    0.969
                            11 N    0.924
     9   6 C    3.984 --    29 H    0.986    31 H    0.982    30 H    0.982
                             8 C    0.979
    10   6 C    3.981 --    33 H    0.986    34 H    0.984    32 H    0.981
                             8 C    0.969
    11   7 N    3.380 --    12 C    1.291     8 C    0.924    35 H    0.868
                            13 O    0.201
    12   6 C    3.921 --    13 O    1.565    11 N    1.291    14 C    0.981
    13   8 O    1.883 --    12 C    1.565    11 N    0.201
    14   6 C    3.634 --    15 N    1.295    20 O    1.198    12 C    0.981
    15   7 N    2.992 --    16 N    1.560    14 C    1.295
    16   7 N    2.712 --    15 N    1.560    17 C    1.025
    17   6 C    3.834 --    16 N    1.025    18 C    0.938    19 C    0.935
                            20 O    0.870
    18   6 C    3.941 --    36 H    0.982    37 H    0.981    38 H    0.980
                            17 C    0.938
    19   6 C    3.940 --    41 H    0.982    39 H    0.981    40 H    0.980
                            17 C    0.935
    20   8 O    2.225 --    14 C    1.198    17 C    0.870
    21   7 N    2.954 --     7 C    1.469    22 C    1.156
    22   6 C    3.874 --    23 O    1.588    21 N    1.156    24 C    1.024
    23   8 O    1.772 --    22 C    1.588
    24   6 C    3.725 --     5 C    1.371    25 O    1.146    22 C    1.024
    25   8 O    2.062 --    24 C    1.146    42 H    0.795
    26   1 H    1.006 --     1 C    0.980
    27   1 H    1.009 --     1 C    0.986
    28   1 H    1.007 --     1 C    0.980
    29   1 H    1.002 --     9 C    0.986
    30   1 H    1.012 --     9 C    0.982
    31   1 H    1.008 --     9 C    0.982
    32   1 H    1.007 --    10 C    0.981
    33   1 H    1.002 --    10 C    0.986
    34   1 H    1.004 --    10 C    0.984
    35   1 H    0.956 --    11 N    0.868
    36   1 H    0.996 --    18 C    0.982
    37   1 H    0.997 --    18 C    0.981
    38   1 H    0.995 --    18 C    0.980
    39   1 H    0.997 --    19 C    0.981
    40   1 H    0.996 --    19 C    0.980
    41   1 H    0.996 --    19 C    0.982
    42   1 H    0.850 --    25 O    0.795
 ---------------------------------------------------------------------------

           -------------------------------------------------
          | TOTAL ENERGY              -82.929659740454 Eh   |
          | GRADIENT NORM               0.000261971418 Eh/α |
          | HOMO-LUMO GAP               0.057905444877 eV   |
           -------------------------------------------------

 * finished run on 2023/06/20 at 18:23:50.920
