   * xtb version 6.5.1 (579679a) compiled by 'ehlert@majestix' on 2022-07-11
          program call               : /lustre/hpc/kemi/ree/PhD/git/ReactivityQM/dep/xtb-6.5.1/bin/xtb --gfn 1 /lustre/hpc/kemi/ree/PhD/git/ReactivityQM/calculations/R03/reac02prodE05/conf02/R03_reac02prodE05_conf02_gfn1.xyz --opt --vfukui --chrg -1 --uhf 0 --alpb DMSO

   ID    Z sym.   atoms
    1    6 C      1, 3, 5, 6, 8, 11-15, 17, 19, 22, 23, 26
    2    8 O      2, 4, 7, 9, 18, 24
    3    7 N      10, 16, 20, 21, 25
    4    1 H      27-46

      * Solvation model:               ALPB
        Solvent                        DMSO
        Solvent mass                       7.8130E+01 g/mol
          :  Hamiltonian                  GFN1-xTB          :
 * total energy  :   -86.9708560 Eh     change       -0.3804246E-10 Eh
 * total energy  :   -86.9848028 Eh     change       -0.1394679E-01 Eh
 * total energy  :   -86.9914865 Eh     change       -0.6683695E-02 Eh
 * total energy  :   -86.9932098 Eh     change       -0.1723275E-02 Eh
 * total energy  :   -86.9948212 Eh     change       -0.1611388E-02 Eh
 * total energy  :   -86.9957782 Eh     change       -0.9570392E-03 Eh
 * total energy  :   -86.9967324 Eh     change       -0.9541672E-03 Eh
 * total energy  :   -86.9977369 Eh     change       -0.1004559E-02 Eh
 * total energy  :   -86.9986377 Eh     change       -0.9007828E-03 Eh
 * total energy  :   -86.9992809 Eh     change       -0.6431956E-03 Eh
 * total energy  :   -87.0105629 Eh     change       -0.5711054E-04 Eh
 * total energy  :   -87.0105988 Eh     change       -0.3591367E-04 Eh
 * total energy  :   -87.0106365 Eh     change       -0.3774185E-04 Eh
 * total energy  :   -87.0106674 Eh     change       -0.3084650E-04 Eh
 * total energy  :   -87.0106877 Eh     change       -0.2031342E-04 Eh
 * total energy  :   -87.0106989 Eh     change       -0.1121960E-04 Eh
 * total energy  :   -87.0107122 Eh     change       -0.1327647E-04 Eh
 * total energy  :   -87.0107168 Eh     change       -0.4641208E-05 Eh
 * total energy  :   -87.0107207 Eh     change       -0.3838767E-05 Eh
   *** GEOMETRY OPTIMIZATION CONVERGED AFTER 65 ITERATIONS ***

 final structure:
================
46
 xtb: 6.5.1 (579679a)
C            5.87787999584464        1.24390575923153       -1.49158398711233
O            4.97759266057972        0.83786805885789       -0.46492137078583
C            3.76761998795918        0.35024121838653       -0.90215090057444
O            3.51927138306527        0.30602597533486       -2.10300999637390
C            2.90819365249043       -0.11341277813455        0.15448207978425
C            3.04378504210105        0.09814461067214        1.51423285944868
O            4.07133714802744        0.78651408127628        2.08708768136932
C            1.96471643125986       -0.26010059096793        2.41872289353692
O            2.06200200954160       -0.36028007845668        3.66729651799997
N            0.74995248548683       -0.37887811571125        1.79721629826759
C           -0.39260232503703       -0.50951032570961        2.69926790597787
C            0.57023538369451       -0.54843971589686        0.41194315944789
C           -0.27020147670371        0.51174510811421       -0.30744834558931
C           -0.15635086154365        1.90825912428911        0.32589823381444
C            0.09677942842734        0.57243397359606       -1.79648564485142
N           -1.68127130390392        0.04225485952816       -0.22246837352655
C           -2.75521773221190        0.70167922742678       -0.67633080719263
O           -2.78567888451572        1.85270631974887       -1.08841258128779
C           -3.97682299712033       -0.15520133179387       -0.60322983605892
N           -4.03500773794482       -1.37877486794367       -0.17068004193620
N           -5.33322209871350       -1.78104794511342       -0.29689375991523
C           -5.98231277753928       -0.77707786385418       -0.79979664276556
C           -7.42348020460876       -0.70997377155870       -1.12959351174462
O           -5.18379507884117        0.27931758549619       -1.01553793991195
N            1.78430576871894       -0.91616221781687       -0.27554640686868
C            2.06635358595917       -2.35807416594216       -0.14059174531360
H            6.79551601148057        1.56547532162531       -1.00242377319510
H            6.08993030181531        0.40992729132922       -2.16714630652186
H            5.45556001976024        2.07159625420833       -2.06963605257383
H            4.74952999114125        1.01071407712409        1.43003722440054
H           -0.35280877901536        0.27267492057693        3.46050170462011
H           -1.31932779410853       -0.42829039096685        2.13674197621411
H           -0.35738464679157       -1.48185535184842        3.19870522712019
H            0.89735364209905        2.17834533561378        0.39713453263150
H           -0.66808262435413        2.65585713947698       -0.27818166760747
H           -0.58905124068820        1.91176507610576        1.32517559470151
H            0.01675231102399       -0.41954760979891       -2.23946622230382
H            1.12044969407011        0.92329415193392       -1.91743275927441
H           -0.57387435450789        1.25148469355082       -2.32202044034451
H           -1.79330611811484       -0.94239048140967       -0.02287073664148
H           -7.90113369170322        0.08687378457200       -0.56015984318329
H           -7.89638619664367       -1.65956384604304       -0.89249311854395
H           -7.55438603497651       -0.49236500596000       -2.18923907692147
H            1.19340588389477       -2.90653442127313       -0.49552481665358
H            2.93102035062645       -2.60976760256055       -0.75657967709028
H            2.27216279052106       -2.64185646934909        0.90031049334272

          :  Hamiltonian                  GFN1-xTB          :
         :: total energy             -87.010720675549 Eh    ::
         :: gradient norm              0.000884880468 Eh/a0 ::
         :: HOMO-LUMO gap              0.354465681987 eV    ::
         :: SCC energy               -87.793096190324 Eh    ::
         :: -> Gsolv                  -0.109329416689 Eh    ::
         :: repulsion energy           0.813114029486 Eh    ::

    * Orbital Energies and Occupations

         #    Occupation            Energy/Eh            Energy/eV
      -------------------------------------------------------------
         1        2.0000           -0.8548143             -23.2607
       ...           ...                  ...                  ...
        59        2.0000           -0.4704140             -12.8006
        60        2.0000           -0.4669428             -12.7062
        61        2.0000           -0.4629922             -12.5987
        62        2.0000           -0.4501718             -12.2498
        63        2.0000           -0.4493121             -12.2264
        64        2.0000           -0.4386605             -11.9366
        65        2.0000           -0.4362202             -11.8702
        66        2.0000           -0.4259100             -11.5896
        67        2.0000           -0.4109886             -11.1836
        68        2.0000           -0.3991395             -10.8611
        69        2.0000           -0.3868270             -10.5261
        70        2.0000           -0.3652453              -9.9388
        71        1.9979           -0.3093479              -8.4178 (HOMO)
        72        0.0021           -0.2963215              -8.0633 (LUMO)
        73                         -0.2724681              -7.4142
        74                         -0.2494081              -6.7867
        75                         -0.1929051              -5.2492
        76                         -0.1850923              -5.0366
        77                         -0.1395844              -3.7983
        78                         -0.1360228              -3.7014
        79                         -0.1214154              -3.3039
        80                         -0.1154612              -3.1419
        81                         -0.1032893              -2.8106
        82                         -0.1001010              -2.7239
       ...                                ...                  ...
       144                          0.7349660              19.9994
      -------------------------------------------------------------
                  HL-Gap            0.0130264 Eh            0.3545 eV

Wiberg/Mayer (AO) data.
largest (>0.10) Wiberg bond orders for each atom

     #   Z sym  total        # sym  WBO       # sym  WBO       # sym  WBO
 ---------------------------------------------------------------------------
     1   6 C    3.891 --    27 H    0.987    29 H    0.981    28 H    0.981
                             2 O    0.915
     2   8 O    2.144 --     3 C    1.000     1 C    0.915
     3   6 C    3.853 --     4 O    1.558     5 C    1.150     2 O    1.000
     4   8 O    1.870 --     3 C    1.558
     5   6 C    3.933 --     6 C    1.453     3 C    1.150    25 N    0.974
     6   6 C    3.902 --     5 C    1.453     8 C    1.108     7 O    1.044
                            12 C    0.120
     7   8 O    2.031 --     6 C    1.044    30 H    0.826
     8   6 C    3.930 --     9 O    1.415    10 N    1.189     6 C    1.108
                            12 C    0.112
     9   8 O    1.745 --     8 C    1.415    10 N    0.150
    10   7 N    3.465 --     8 C    1.189    12 C    1.051    11 C    0.952
                             9 O    0.150
    11   6 C    3.961 --    32 H    0.985    31 H    0.983    33 H    0.978
                            10 N    0.952
    12   6 C    3.618 --    10 N    1.051    25 N    0.973    13 C    0.968
                             6 C    0.120     8 C    0.112
    13   6 C    3.910 --    15 C    0.993    14 C    0.989    12 C    0.968
                            16 N    0.882
    14   6 C    3.995 --    13 C    0.989    34 H    0.986    36 H    0.985
                            35 H    0.982
    15   6 C    3.994 --    13 C    0.993    37 H    0.986    39 H    0.986
                            38 H    0.980
    16   7 N    3.372 --    17 C    1.294    40 H    0.902    13 C    0.882
                            18 O    0.185
    17   6 C    3.923 --    18 O    1.567    16 N    1.294    19 C    0.979
    18   8 O    1.886 --    17 C    1.567    16 N    0.185
    19   6 C    3.866 --    20 N    1.616    24 O    1.060    17 C    0.979
    20   7 N    3.009 --    19 C    1.616    21 N    1.191
    21   7 N    2.980 --    22 C    1.614    20 N    1.191
    22   6 C    3.874 --    21 N    1.614    24 O    1.081    23 C    1.030
    23   6 C    3.988 --    22 C    1.030    42 H    0.983    43 H    0.965
                            41 H    0.965
    24   8 O    2.323 --    22 C    1.081    19 C    1.060
    25   7 N    3.059 --     5 C    0.974    12 C    0.973    26 C    0.962
    26   6 C    3.983 --    44 H    0.988    45 H    0.988    46 H    0.983
                            25 N    0.962
    27   1 H    1.014 --     1 C    0.987
    28   1 H    1.013 --     1 C    0.981
    29   1 H    1.013 --     1 C    0.981
    30   1 H    0.880 --     7 O    0.826
    31   1 H    1.017 --    11 C    0.983
    32   1 H    1.017 --    11 C    0.985
    33   1 H    1.012 --    11 C    0.978
    34   1 H    1.011 --    14 C    0.986
    35   1 H    1.016 --    14 C    0.982
    36   1 H    1.007 --    14 C    0.985
    37   1 H    1.016 --    15 C    0.986
    38   1 H    1.025 --    15 C    0.980
    39   1 H    1.009 --    15 C    0.986
    40   1 H    0.986 --    16 N    0.902
    41   1 H    0.998 --    23 C    0.965
    42   1 H    0.999 --    23 C    0.983
    43   1 H    0.998 --    23 C    0.965
    44   1 H    1.030 --    26 C    0.988
    45   1 H    1.017 --    26 C    0.988
    46   1 H    1.008 --    26 C    0.983
 ---------------------------------------------------------------------------

           -------------------------------------------------
          | TOTAL ENERGY              -87.010720675549 Eh   |
          | GRADIENT NORM               0.000884880468 Eh/α |
          | HOMO-LUMO GAP               0.354465681987 eV   |
           -------------------------------------------------

 * finished run on 2023/06/20 at 15:20:06.318
