   * xtb version 6.5.1 (579679a) compiled by 'ehlert@majestix' on 2022-07-11
          program call               : /lustre/hpc/kemi/ree/PhD/git/ReactivityQM/dep/xtb-6.5.1/bin/xtb --gfn 1 /lustre/hpc/kemi/ree/PhD/git/ReactivityQM/calculations/R03/reac02prodN16/conf14/R03_reac02prodN16_conf14_gfn1.xyz --opt --vfukui --chrg 1 --uhf 0 --alpb DMSO

   ID    Z sym.   atoms
    1    6 C      1, 2, 5, 6, 9-12, 14, 15, 18-20, 22, 25
    2    7 N      3, 4, 8, 13, 24
    3    8 O      7, 16, 17, 21, 23, 26
    4    1 H      27-46

      * Solvation model:               ALPB
        Solvent                        DMSO
        Solvent mass                       7.8130E+01 g/mol
          :  Hamiltonian                  GFN1-xTB          :
 * total energy  :   -86.2793317 Eh     change       -0.3089440E-10 Eh
 * total energy  :   -86.2937292 Eh     change       -0.1439749E-01 Eh
 * total energy  :   -86.2989919 Eh     change       -0.5262699E-02 Eh
 * total energy  :   -86.3005503 Eh     change       -0.1558424E-02 Eh
 * total energy  :   -86.3016007 Eh     change       -0.1050419E-02 Eh
 * total energy  :   -86.3023837 Eh     change       -0.7829976E-03 Eh
 * total energy  :   -86.3030488 Eh     change       -0.6650718E-03 Eh
 * total energy  :   -86.3036613 Eh     change       -0.6125469E-03 Eh
 * total energy  :   -86.3041653 Eh     change       -0.5039570E-03 Eh
 * total energy  :   -86.3044279 Eh     change       -0.2626216E-03 Eh
 * total energy  :   -86.3089798 Eh     change       -0.1733665E-04 Eh
 * total energy  :   -86.3089926 Eh     change       -0.1272254E-04 Eh
 * total energy  :   -86.3090016 Eh     change       -0.9064508E-05 Eh
 * total energy  :   -86.3090196 Eh     change       -0.1797288E-04 Eh
 * total energy  :   -86.3090262 Eh     change       -0.6569844E-05 Eh
 * total energy  :   -86.3090378 Eh     change       -0.1160704E-04 Eh
 * total energy  :   -86.3090425 Eh     change       -0.4709964E-05 Eh
 * total energy  :   -86.3090506 Eh     change       -0.8114663E-05 Eh
 * total energy  :   -86.3090554 Eh     change       -0.4821940E-05 Eh
   *** GEOMETRY OPTIMIZATION CONVERGED AFTER 41 ITERATIONS ***

 final structure:
================
46
 xtb: 6.5.1 (579679a)
C            5.51179857839546        2.59444106392961       -0.06631315706877
C            5.32130165969711        1.15684806690682        0.22297658951054
N            6.21839226437461        0.29035759254338        0.57752249301187
N            5.57473156248870       -0.89862657244822        0.73915927935042
C            4.32423582449557       -0.68741659872849        0.47218988834169
C            3.20529753040858       -1.65855375414787        0.52519682084125
O            3.36830800279565       -2.82563992888314        0.82665106167172
N            2.02140014759735       -1.09062192661414        0.17663771610275
C            0.73223447491951       -1.76675394839722        0.35636418635774
C            0.70101633196849       -3.14205902679952       -0.32640575433304
C            0.48112712719880       -1.92673981011526        1.86263603222444
C           -0.34810345735511       -0.87879279492003       -0.24748124188448
N           -1.35032162560811       -0.60774856805395        0.52468046264901
C           -2.39697264955592        0.17091798046417        0.10295206074704
C           -3.43070587672421        0.29391524702558        1.10552369553770
O           -3.59462676091045       -0.28718858260117        2.12059337171213
O           -4.49804657852750        1.28443712274488        0.72125390996976
C           -5.76457982172670        1.03402614660658        1.39885424657340
C           -4.09186272525112        2.68602141151650        0.75399955849710
C           -2.40585038966410        0.66280941022116       -1.17954880964585
O           -3.36207224193992        1.41594577110162       -1.69810239142890
C           -1.30165097871683        0.33428895444584       -2.08257657382196
O           -1.29982202759539        0.72839345392119       -3.23785009624716
N           -0.28943642824517       -0.43014601429634       -1.54437611086039
C            0.78921910968755       -0.71747559683780       -2.49799886754491
O            4.10007162310670        0.60301280766081        0.13741366346321
H            6.56671414796191        2.84819136218574        0.00981346164843
H            4.93928116891616        3.19314950154319        0.64205420551803
H            5.14860059351349        2.82291528407823       -1.06771505483572
H            1.99221688496225       -0.08535388320031        0.12891792398633
H            1.31635796428965       -3.84819280791019        0.22832739759110
H           -0.32575510490508       -3.50457385557143       -0.33940094753096
H            1.06852580770225       -3.08594545429654       -1.34780111931271
H            0.47318436564306       -0.95069750236521        2.34385196516682
H           -0.47890981646709       -2.41116143311674        2.02935096563581
H            1.27216968489529       -2.53614914505708        2.29711089605721
H           -6.02399768611226       -0.00360070192173        1.20216102285745
H           -6.48906828553056        1.71042792488933        0.95363370500578
H           -5.65048044343512        1.21779273193206        2.46706086915849
H           -4.77589799883769        3.22029872212712        0.09877920233241
H           -4.14801482240291        3.05156781234314        1.77915734313838
H           -3.07626702171511        2.74011678227900        0.37469487921857
H           -3.14592676120689        1.61162176417348       -2.63520205058834
H            1.67991335372492       -1.04927356134214       -1.97767673765259
H            0.99831898616396        0.20104264273474       -3.04589249503365
H            0.44395430756330       -1.47982508973087       -3.19689546603493

          :  Hamiltonian                  GFN1-xTB          :
         :: total energy             -86.309055420634 Eh    ::
         :: gradient norm              0.000824296074 Eh/a0 ::
         :: HOMO-LUMO gap              2.025365983733 eV    ::
         :: SCC energy               -87.149476894472 Eh    ::
         :: -> Gsolv                  -0.121961764564 Eh    ::
         :: repulsion energy           0.869694080876 Eh    ::

    * Orbital Energies and Occupations

         #    Occupation            Energy/Eh            Energy/eV
      -------------------------------------------------------------
         1        2.0000           -0.9295090             -25.2932
       ...           ...                  ...                  ...
        58        2.0000           -0.5242251             -14.2649
        59        2.0000           -0.5169541             -14.0670
        60        2.0000           -0.5113361             -13.9142
        61        2.0000           -0.5091004             -13.8533
        62        2.0000           -0.5016286             -13.6500
        63        2.0000           -0.4901743             -13.3383
        64        2.0000           -0.4838936             -13.1674
        65        2.0000           -0.4786215             -13.0240
        66        2.0000           -0.4721310             -12.8473
        67        2.0000           -0.4655591             -12.6685
        68        2.0000           -0.4598963             -12.5144
        69        2.0000           -0.4565279             -12.4228
        70        2.0000           -0.4527552             -12.3201 (HOMO)
        71                         -0.3783244             -10.2947 (LUMO)
        72                         -0.3175708              -8.6415
        73                         -0.3136516              -8.5349
        74                         -0.2884502              -7.8491
        75                         -0.2601460              -7.0789
        76                         -0.2051329              -5.5820
        77                         -0.1964142              -5.3447
        78                         -0.1804574              -4.9105
        79                         -0.1717204              -4.6728
        80                         -0.1498418              -4.0774
        81                         -0.1436912              -3.9100
       ...                                ...                  ...
       144                          0.7494956              20.3948
      -------------------------------------------------------------
                  HL-Gap            0.0744308 Eh            2.0254 eV

Wiberg/Mayer (AO) data.
largest (>0.10) Wiberg bond orders for each atom

     #   Z sym  total        # sym  WBO       # sym  WBO       # sym  WBO
 ---------------------------------------------------------------------------
     1   6 C    3.986 --     2 C    1.032    27 H    0.982    29 H    0.963
                            28 H    0.961
     2   6 C    3.867 --     3 N    1.609    26 O    1.071     1 C    1.032
     3   7 N    2.982 --     2 C    1.609     4 N    1.201
     4   7 N    3.002 --     5 C    1.621     3 N    1.201
     5   6 C    3.873 --     4 N    1.621    26 O    1.045     6 C    0.996
     6   6 C    3.913 --     7 O    1.606     8 N    1.222     5 C    0.996
     7   8 O    1.918 --     6 C    1.606     8 N    0.168
     8   7 N    3.329 --     6 C    1.222     9 C    0.925    30 H    0.894
                             7 O    0.168
     9   6 C    3.933 --    11 C    0.989    10 C    0.980    12 C    0.976
                             8 N    0.925
    10   6 C    3.985 --    32 H    0.985    33 H    0.981     9 C    0.980
                            31 H    0.976
    11   6 C    3.987 --     9 C    0.989    34 H    0.984    35 H    0.984
                            36 H    0.982
    12   6 C    3.921 --    13 N    1.577    24 N    1.168     9 C    0.976
    13   7 N    3.027 --    12 C    1.577    14 C    1.163
    14   6 C    3.959 --    20 C    1.432    13 N    1.163    15 C    1.099
    15   6 C    3.799 --    16 O    1.823    14 C    1.099    17 O    0.739
    16   8 O    2.085 --    15 C    1.823
    17   8 O    2.483 --    18 C    0.815    19 C    0.808    15 C    0.739
    18   6 C    3.786 --    39 H    0.979    38 H    0.977    37 H    0.976
                            17 O    0.815
    19   6 C    3.784 --    41 H    0.980    40 H    0.976    42 H    0.976
                            17 O    0.808
    20   6 C    3.914 --    14 C    1.432    21 O    1.151    22 C    1.047
    21   8 O    2.128 --    20 C    1.151    43 H    0.778
    22   6 C    3.920 --    23 O    1.585    24 N    1.147    20 C    1.047
    23   8 O    1.929 --    22 C    1.585    24 N    0.143
    24   7 N    3.524 --    12 C    1.168    22 C    1.147    25 C    0.917
                            23 O    0.143
    25   6 C    3.904 --    44 H    0.975    45 H    0.972    46 H    0.972
                            24 N    0.917
    26   8 O    2.315 --     2 C    1.071     5 C    1.045
    27   1 H    0.998 --     1 C    0.982
    28   1 H    0.996 --     1 C    0.961
    29   1 H    0.996 --     1 C    0.963
    30   1 H    0.938 --     8 N    0.894
    31   1 H    1.011 --    10 C    0.976
    32   1 H    1.000 --    10 C    0.985
    33   1 H    1.000 --    10 C    0.981
    34   1 H    1.006 --    11 C    0.984
    35   1 H    1.008 --    11 C    0.984
    36   1 H    1.004 --    11 C    0.982
    37   1 H    0.995 --    18 C    0.976
    38   1 H    0.994 --    18 C    0.977
    39   1 H    0.996 --    18 C    0.979
    40   1 H    0.996 --    19 C    0.976
    41   1 H    0.991 --    19 C    0.980
    42   1 H    1.000 --    19 C    0.976
    43   1 H    0.822 --    21 O    0.778
    44   1 H    1.008 --    25 C    0.975
    45   1 H    1.000 --    25 C    0.972
    46   1 H    0.997 --    25 C    0.972
 ---------------------------------------------------------------------------

           -------------------------------------------------
          | TOTAL ENERGY              -86.309055420634 Eh   |
          | GRADIENT NORM               0.000824296074 Eh/α |
          | HOMO-LUMO GAP               2.025365983733 eV   |
           -------------------------------------------------

 * finished run on 2023/06/20 at 15:52:57.594
