                         Program Version 5.0.1 -  RELEASE  -
|  1> # ORCA input file
|  2> ! SP r2SCAN-3c CPCM
|  3>
|  4> %maxcore 1875.0
|  5> %pal nprocs 4 end
|  6> %cpcm smd true SMDsolvent "DMSO" end
|  7>
|  8> *xyz 0 1
|  9> C      -6.549389    0.922104   -1.847275
| 10> O      -5.267804    1.301892   -1.350490
| 11> C      -4.310165    0.361607   -1.403584
| 12> O      -4.520872   -0.751090   -1.853240
| 13> C      -3.014699    0.795720   -0.866575
| 14> C      -2.735442    2.094764   -0.396134
| 15> O      -3.493865    3.066052   -0.328655
| 16> C      -1.301343    2.328455    0.050439
| 17> O      -0.787143    3.371676    0.313729
| 18> N      -0.454105    1.103695    0.273938
| 19> C      -0.417215    0.887336    1.745578
| 20> C      -0.891061   -0.104227   -0.448208
| 21> C       0.101012   -1.225859   -0.681227
| 22> C       0.490568   -1.228231   -2.170128
| 23> C      -0.569866   -2.550315   -0.301663
| 24> N       1.320750   -1.115270    0.129095
| 25> C       2.243039   -0.138132    0.013642
| 26> O       2.049203    0.940658   -0.541905
| 27> C       3.500724   -0.483973    0.698351
| 28> N       3.768392   -1.614509    1.283157
| 29> N       5.025774   -1.507833    1.784165
| 30> C       5.450893   -0.317830    1.473381
| 31> C       6.763994    0.283761    1.789754
| 32> O       4.532165    0.374141    0.786701
| 33> N      -2.051961   -0.188420   -0.937011
| 34> H      -6.478370    0.617954   -2.895177
| 35> H      -7.194599    1.794193   -1.753883
| 36> H      -6.953661    0.091812   -1.261688
| 37> H       0.521074    1.323050   -0.046306
| 38> H      -1.426009    0.688997    2.099966
| 39> H      -0.016755    1.788798    2.203994
| 40> H       0.226481    0.037833    1.949379
| 41> H       1.183272   -2.044422   -2.365329
| 42> H       0.963492   -0.285204   -2.438416
| 43> H      -0.406003   -1.362262   -2.773526
| 44> H      -0.773353   -2.571178    0.767619
| 45> H       0.077067   -3.386547   -0.559278
| 46> H      -1.510966   -2.644361   -0.842822
| 47> H       1.632188   -1.970992    0.567443
| 48> H       7.318943   -0.375190    2.451941
| 49> H       7.332127    0.438294    0.872680
| 50> H       6.623489    1.253053    2.265824
| 51> **                         ****END OF INPUT****

CARTESIAN COORDINATES (ANGSTROEM)
---------------------------------
  C     -6.549389    0.922104   -1.847275
  O     -5.267804    1.301892   -1.350490
  C     -4.310165    0.361607   -1.403584
  O     -4.520872   -0.751090   -1.853240
  C     -3.014699    0.795720   -0.866575
  C     -2.735442    2.094764   -0.396134
  O     -3.493865    3.066052   -0.328655
  C     -1.301343    2.328455    0.050439
  O     -0.787143    3.371676    0.313729
  N     -0.454105    1.103695    0.273938
  C     -0.417215    0.887336    1.745578
  C     -0.891061   -0.104227   -0.448208
  C      0.101012   -1.225859   -0.681227
  C      0.490568   -1.228231   -2.170128
  C     -0.569866   -2.550315   -0.301663
  N      1.320750   -1.115270    0.129095
  C      2.243039   -0.138132    0.013642
  O      2.049203    0.940658   -0.541905
  C      3.500724   -0.483973    0.698351
  N      3.768392   -1.614509    1.283157
  N      5.025774   -1.507833    1.784165
  C      5.450893   -0.317830    1.473381
  C      6.763994    0.283761    1.789754
  O      4.532165    0.374141    0.786701
  N     -2.051961   -0.188420   -0.937011
  H     -6.478370    0.617954   -2.895177
  H     -7.194599    1.794193   -1.753883
  H     -6.953661    0.091812   -1.261688
  H      0.521074    1.323050   -0.046306
  H     -1.426009    0.688997    2.099966
  H     -0.016755    1.788798    2.203994
  H      0.226481    0.037833    1.949379
  H      1.183272   -2.044422   -2.365329
  H      0.963492   -0.285204   -2.438416
  H     -0.406003   -1.362262   -2.773526
  H     -0.773353   -2.571178    0.767619
  H      0.077067   -3.386547   -0.559278
  H     -1.510966   -2.644361   -0.842822
  H      1.632188   -1.970992    0.567443
  H      7.318943   -0.375190    2.451941
  H      7.332127    0.438294    0.872680
  H      6.623489    1.253053    2.265824

 Total Charge           Charge          ....    0
 Multiplicity           Mult            ....    1
 Number of Electrons    NEL             ....  184
 Basis Dimension        Dim             ....  615

ORBITAL ENERGIES
----------------

  NO   OCC          E(Eh)            E(eV)
   0   2.0000     -19.071896      -518.9727
   1   2.0000     -18.984416      -516.5922
   2   2.0000     -18.981475      -516.5122
   3   2.0000     -18.965524      -516.0781
   4   2.0000     -18.915025      -514.7040
   5   2.0000     -18.908801      -514.5346
   6   2.0000     -14.278595      -388.5403
   7   2.0000     -14.215388      -386.8204
   8   2.0000     -14.214642      -386.8001
   9   2.0000     -14.203583      -386.4991
  10   2.0000     -14.174279      -385.7017
  11   2.0000     -10.178874      -276.9812
  12   2.0000     -10.174147      -276.8526
  13   2.0000     -10.153169      -276.2818
  14   2.0000     -10.152449      -276.2622
  15   2.0000     -10.139327      -275.9051
  16   2.0000     -10.116793      -275.2919
  17   2.0000     -10.112863      -275.1850
  18   2.0000     -10.105624      -274.9880
  19   2.0000     -10.084180      -274.4045
  20   2.0000     -10.068037      -273.9652
  21   2.0000     -10.060225      -273.7526
  22   2.0000     -10.047342      -273.4021
  23   2.0000     -10.026528      -272.8357
  24   2.0000     -10.024988      -272.7938
  25   2.0000      -1.162909       -31.6444
  26   2.0000      -1.072118       -29.1738
  27   2.0000      -1.055314       -28.7166
  28   2.0000      -1.052367       -28.6364
  29   2.0000      -0.986869       -26.8541
  30   2.0000      -0.983879       -26.7727
  31   2.0000      -0.975323       -26.5399
  32   2.0000      -0.961528       -26.1645
  33   2.0000      -0.930303       -25.3148
  34   2.0000      -0.901476       -24.5304
  35   2.0000      -0.839705       -22.8495
  36   2.0000      -0.784246       -21.3404
  37   2.0000      -0.731606       -19.9080
  38   2.0000      -0.715628       -19.4732
  39   2.0000      -0.702005       -19.1025
  40   2.0000      -0.685235       -18.6462
  41   2.0000      -0.675635       -18.3850
  42   2.0000      -0.667427       -18.1616
  43   2.0000      -0.640399       -17.4261
  44   2.0000      -0.629920       -17.1410
  45   2.0000      -0.613880       -16.7045
  46   2.0000      -0.586998       -15.9730
  47   2.0000      -0.562448       -15.3050
  48   2.0000      -0.553280       -15.0555
  49   2.0000      -0.540534       -14.7087
  50   2.0000      -0.533270       -14.5110
  51   2.0000      -0.511281       -13.9127
  52   2.0000      -0.501156       -13.6371
  53   2.0000      -0.489751       -13.3268
  54   2.0000      -0.483775       -13.1642
  55   2.0000      -0.467830       -12.7303
  56   2.0000      -0.452309       -12.3080
  57   2.0000      -0.443391       -12.0653
  58   2.0000      -0.437619       -11.9082
  59   2.0000      -0.436813       -11.8863
  60   2.0000      -0.426911       -11.6168
  61   2.0000      -0.424524       -11.5519
  62   2.0000      -0.418001       -11.3744
  63   2.0000      -0.413594       -11.2545
  64   2.0000      -0.408863       -11.1257
  65   2.0000      -0.397628       -10.8200
  66   2.0000      -0.392532       -10.6813
  67   2.0000      -0.388280       -10.5656
  68   2.0000      -0.383288       -10.4298
  69   2.0000      -0.382524       -10.4090
  70   2.0000      -0.381027       -10.3683
  71   2.0000      -0.372742       -10.1428
  72   2.0000      -0.368201       -10.0193
  73   2.0000      -0.360787        -9.8175
  74   2.0000      -0.358011        -9.7420
  75   2.0000      -0.351069        -9.5531
  76   2.0000      -0.344562        -9.3760
  77   2.0000      -0.336420        -9.1545
  78   2.0000      -0.330929        -9.0050
  79   2.0000      -0.326486        -8.8841
  80   2.0000      -0.313757        -8.5378
  81   2.0000      -0.310115        -8.4387
  82   2.0000      -0.288379        -7.8472
  83   2.0000      -0.278810        -7.5868
  84   2.0000      -0.277551        -7.5526
  85   2.0000      -0.268993        -7.3197
  86   2.0000      -0.266590        -7.2543
  87   2.0000      -0.259078        -7.0499
  88   2.0000      -0.251834        -6.8527
  89   2.0000      -0.228611        -6.2208
  90   2.0000      -0.202793        -5.5183
  91   2.0000      -0.184924        -5.0320
  92   0.0000      -0.114235        -3.1085
  93   0.0000      -0.102924        -2.8007
  94   0.0000      -0.044462        -1.2099
  95   0.0000      -0.026879        -0.7314
  96   0.0000       0.004038         0.1099

MULLIKEN ATOMIC CHARGES
-----------------------
   0 C :   -0.323416
   1 O :   -0.152567
   2 C :    0.172230
   3 O :   -0.431093
   4 C :   -0.025002
   5 C :   -0.055545
   6 O :   -0.350841
   7 C :    0.262214
   8 O :   -0.313124
   9 N :   -0.157442
  10 C :   -0.328414
  11 C :    0.192331
  12 C :    0.120235
  13 C :   -0.589622
  14 C :   -0.582702
  15 N :   -0.121222
  16 C :   -0.058746
  17 O :   -0.523756
  18 C :    0.360622
  19 N :   -0.136122
  20 N :   -0.299497
  21 C :    0.420673
  22 C :   -0.633239
  23 O :   -0.023366
  24 N :   -0.162489
  25 H :    0.167984
  26 H :    0.169031
  27 H :    0.167897
  28 H :    0.461225
  29 H :    0.222069
  30 H :    0.213395
  31 H :    0.218699
  32 H :    0.194696
  33 H :    0.198514
  34 H :    0.190695
  35 H :    0.190948
  36 H :    0.191120
  37 H :    0.199341
  38 H :    0.340673
  39 H :    0.206474
  40 H :    0.206133
  41 H :    0.201006
Sum of atomic charges:   -0.0000000

LOEWDIN ATOMIC CHARGES
----------------------
   0 C :   -0.048639
   1 O :   -0.591372
   2 C :    0.389424
   3 O :   -0.457693
   4 C :    0.133851
   5 C :    0.234909
   6 O :   -0.514708
   7 C :    0.436887
   8 O :   -0.323248
   9 N :   -0.646921
  10 C :   -0.057860
  11 C :    0.326629
  12 C :    0.107931
  13 C :   -0.336099
  14 C :   -0.335521
  15 N :   -0.570687
  16 C :    0.394912
  17 O :   -0.484411
  18 C :    0.416763
  19 N :   -0.346483
  20 N :   -0.348485
  21 C :    0.386089
  22 C :   -0.314829
  23 O :   -0.354699
  24 N :   -0.543717
  25 H :    0.177052
  26 H :    0.180710
  27 H :    0.176660
  28 H :    0.332013
  29 H :    0.209730
  30 H :    0.208756
  31 H :    0.212790
  32 H :    0.173406
  33 H :    0.179104
  34 H :    0.176890
  35 H :    0.175969
  36 H :    0.171717
  37 H :    0.184614
  38 H :    0.309351
  39 H :    0.192276
  40 H :    0.194547
  41 H :    0.192389

  Mayer bond orders larger than 0.100000
B(  0-C ,  1-O ) :   0.8408 B(  0-C , 25-H ) :   0.9599 B(  0-C , 26-H ) :   0.9675
B(  0-C , 27-H ) :   0.9589 B(  1-O ,  2-C ) :   1.1465 B(  1-O ,  4-C ) :  -0.1019
B(  2-C ,  3-O ) :   1.8998 B(  2-C ,  4-C ) :   1.1160 B(  4-C ,  5-C ) :   1.0408
B(  4-C , 24-N ) :   0.9433 B(  5-C ,  6-O ) :   1.9238 B(  5-C ,  7-C ) :   0.8937
B(  7-C ,  8-O ) :   2.1106 B(  7-C ,  9-N ) :   0.6682 B(  9-N , 10-C ) :   0.8402
B(  9-N , 11-C ) :   0.9753 B(  9-N , 28-H ) :   0.6597 B( 10-C , 29-H ) :   0.9315
B( 10-C , 30-H ) :   0.9323 B( 10-C , 31-H ) :   0.9196 B( 11-C , 12-C ) :   0.8592
B( 11-C , 24-N ) :   1.7210 B( 12-C , 13-C ) :   0.9082 B( 12-C , 14-C ) :   0.9050
B( 12-C , 15-N ) :   0.8892 B( 13-C , 32-H ) :   0.9646 B( 13-C , 33-H ) :   0.9540
B( 13-C , 34-H ) :   0.9572 B( 14-C , 35-H ) :   0.9626 B( 14-C , 36-H ) :   0.9656
B( 14-C , 37-H ) :   0.9629 B( 15-N , 16-C ) :   1.1244 B( 15-N , 38-H ) :   0.8785
B( 16-C , 17-O ) :   1.6912 B( 16-C , 18-C ) :   0.9219 B( 17-O , 28-H ) :   0.1187
B( 18-C , 19-N ) :   1.6569 B( 18-C , 21-C ) :   0.1237 B( 18-C , 23-O ) :   1.1321
B( 19-N , 20-N ) :   1.1865 B( 20-N , 21-C ) :   1.5664 B( 21-C , 22-C ) :   0.8280
B( 21-C , 23-O ) :   1.0714 B( 22-C , 39-H ) :   0.9871 B( 22-C , 40-H ) :   0.9355
B( 22-C , 41-H ) :   0.9479

Dispersion correction           -0.019680760
FINAL SINGLE POINT ENERGY     -1268.591395506313

DIPOLE MOMENT
-------------
                                X             Y             Z
Electronic contribution:      2.75267       8.78566       1.74483
Nuclear contribution   :      2.21427     -10.62814       0.24235
                        -----------------------------------------
Total Dipole Moment    :      4.96694      -1.84248       1.98718
                        -----------------------------------------
Magnitude (a.u.)       :      5.65810
Magnitude (Debye)      :     14.38175

Rotational constants in cm-1:     0.019599     0.003402     0.003057
Rotational constants in MHz :   587.549323   101.997876    91.659393

                             ****ORCA TERMINATED NORMALLY****
TOTAL RUN TIME: 0 days 0 hours 2 minutes 26 seconds 287 msec
