   * xtb version 6.5.1 (579679a) compiled by 'ehlert@majestix' on 2022-07-11
          program call               : /lustre/hpc/kemi/ree/PhD/git/ReactivityQM/dep/xtb-6.5.1/bin/xtb --gfn 1 /lustre/hpc/kemi/ree/PhD/git/ReactivityQM/calculations/R02methylcation/reac01prodN18/conf10/R02methylcation_reac01prodN18_conf10_gfn1.xyz --opt --vfukui --chrg 0 --uhf 0 --alpb DMSO

   ID    Z sym.   atoms
    1    6 C      1, 3, 5, 6, 8, 11-15, 17, 19, 22, 23
    2    8 O      2, 4, 7, 9, 18, 24
    3    7 N      10, 16, 20, 21, 25
    4    1 H      26-42

      * Solvation model:               ALPB
        Solvent                        DMSO
        Solvent mass                       7.8130E+01 g/mol
          :  Hamiltonian                  GFN1-xTB          :
 * total energy  :   -82.9276761 Eh     change       -0.5684342E-11 Eh
 * total energy  :   -82.9439143 Eh     change       -0.1623823E-01 Eh
 * total energy  :   -82.9513254 Eh     change       -0.7411099E-02 Eh
 * total energy  :   -82.9528384 Eh     change       -0.1512928E-02 Eh
 * total energy  :   -82.9534936 Eh     change       -0.6552193E-03 Eh
 * total energy  :   -82.9537412 Eh     change       -0.2476306E-03 Eh
 * total energy  :   -82.9538886 Eh     change       -0.1474050E-03 Eh
 * total energy  :   -82.9539911 Eh     change       -0.1024796E-03 Eh
 * total energy  :   -82.9540560 Eh     change       -0.6489650E-04 Eh
 * total energy  :   -82.9541007 Eh     change       -0.4475346E-04 Eh
 * total energy  :   -82.9546320 Eh     change       -0.7881822E-05 Eh
 * total energy  :   -82.9546445 Eh     change       -0.1241926E-04 Eh
 * total energy  :   -82.9546545 Eh     change       -0.1005878E-04 Eh
 * total energy  :   -82.9546659 Eh     change       -0.1142490E-04 Eh
 * total energy  :   -82.9546796 Eh     change       -0.1367043E-04 Eh
 * total energy  :   -82.9546873 Eh     change       -0.7637755E-05 Eh
 * total energy  :   -82.9547033 Eh     change       -0.1600825E-04 Eh
 * total energy  :   -82.9547106 Eh     change       -0.7292089E-05 Eh
 * total energy  :   -82.9547141 Eh     change       -0.3535973E-05 Eh
   *** GEOMETRY OPTIMIZATION CONVERGED AFTER 45 ITERATIONS ***

 final structure:
================
42
 xtb: 6.5.1 (579679a)
C           -6.54938859532584        0.92210381643717       -1.84727522049911
O           -5.26780442449864        1.30189160871055       -1.35048955521542
C           -4.31016496204550        0.36160720444709       -1.40358356689258
O           -4.52087175765766       -0.75108952829911       -1.85324005347155
C           -3.01469878806006        0.79572009438425       -0.86657503387198
C           -2.73544169200127        2.09476371078049       -0.39613389515326
O           -3.49386505952271        3.06605224547222       -0.32865493631049
C           -1.30134282835153        2.32845490471881        0.05043943951236
O           -0.78714283969957        3.37167598513910        0.31372901600473
N           -0.45410489619063        1.10369458279806        0.27393764686262
C           -0.41721467643822        0.88733552223543        1.74557796751818
C           -0.89106132817037       -0.10422683098695       -0.44820830001203
C            0.10101165161125       -1.22585934094298       -0.68122749829737
C            0.49056804286047       -1.22823072712271       -2.17012802584805
C           -0.56986635099627       -2.55031470830038       -0.30166347560622
N            1.32074990892738       -1.11527021714817        0.12909512357470
C            2.24303868317288       -0.13813182207458        0.01364166741405
O            2.04920302984630        0.94065820456497       -0.54190496871585
C            3.50072374514730       -0.48397262618182        0.69835074096776
N            3.76839244259304       -1.61450863014995        1.28315694731287
N            5.02577435984434       -1.50783276371536        1.78416467170019
C            5.45089325618736       -0.31782991273647        1.47338076843558
C            6.76399403952744        0.28376139125645        1.78975356061435
O            4.53216524525104        0.37414070030161        0.78670066082855
N           -2.05196083918094       -0.18842021406203       -0.93701075583005
H           -6.47836999373119        0.61795380683468       -2.89517684126165
H           -7.19459881074301        1.79419264896867       -1.75388266316182
H           -6.95366113619010        0.09181223989289       -1.26168836965378
H            0.52107363416504        1.32305028036631       -0.04630580138950
H           -1.42600896451414        0.68899697213363        2.09996600900236
H           -0.01675497200657        1.78879807668618        2.20399407086324
H            0.22648052732234        0.03783265798754        1.94937880533502
H            1.18327150489995       -2.04442188748796       -2.36532854738540
H            0.96349161620363       -0.28520435208170       -2.43841613561627
H           -0.40600307990605       -1.36226217770746       -2.77352615856103
H           -0.77335274143992       -2.57117829883233        0.76761926645541
H            0.07706704958411       -3.38654689960642       -0.55927848476727
H           -1.51096641529040       -2.64436079339940       -0.84282176968823
H            1.63218753808168       -1.97099156763619        0.56744281342163
H            7.31894282018113       -0.37518998089815        2.45194119800858
H            7.33212719205327        0.43829416419739        0.87268040319643
H            6.62348886448629        1.25305346106083        2.26582428017633

          :  Hamiltonian                  GFN1-xTB          :
         :: total energy             -82.954714089970 Eh    ::
         :: gradient norm              0.000842179185 Eh/a0 ::
         :: HOMO-LUMO gap              1.755514760037 eV    ::
         :: SCC energy               -83.729453226142 Eh    ::
         :: -> Gsolv                  -0.067492578155 Eh    ::
         :: repulsion energy           0.802062321800 Eh    ::

    * Orbital Energies and Occupations

         #    Occupation            Energy/Eh            Energy/eV
      -------------------------------------------------------------
         1        2.0000           -0.8719445             -23.7268
       ...           ...                  ...                  ...
        55        2.0000           -0.5114876             -13.9183
        56        2.0000           -0.5035484             -13.7022
        57        2.0000           -0.5021279             -13.6636
        58        2.0000           -0.4923579             -13.3977
        59        2.0000           -0.4824655             -13.1286
        60        2.0000           -0.4810924             -13.0912
        61        2.0000           -0.4762877             -12.9604
        62        2.0000           -0.4650140             -12.6537
        63        2.0000           -0.4624839             -12.5848
        64        2.0000           -0.4618329             -12.5671
        65        2.0000           -0.4552092             -12.3869
        66        2.0000           -0.4246150             -11.5544
        67        2.0000           -0.4088095             -11.1243 (HOMO)
        68                         -0.3442955              -9.3688 (LUMO)
        69                         -0.3275964              -8.9144
        70                         -0.2858278              -7.7778
        71                         -0.2638597              -7.1800
        72                         -0.2450786              -6.6689
        73                         -0.2143151              -5.8318
        74                         -0.1626448              -4.4258
        75                         -0.1476953              -4.0190
        76                         -0.1445884              -3.9344
        77                         -0.1364745              -3.7137
        78                         -0.1303957              -3.5482
       ...                                ...                  ...
       134                          0.7668193              20.8662
      -------------------------------------------------------------
                  HL-Gap            0.0645140 Eh            1.7555 eV

Wiberg/Mayer (AO) data.
largest (>0.10) Wiberg bond orders for each atom

     #   Z sym  total        # sym  WBO       # sym  WBO       # sym  WBO
 ---------------------------------------------------------------------------
     1   6 C    3.884 --    27 H    0.986    28 H    0.980    26 H    0.980
                             2 O    0.910
     2   8 O    2.182 --     3 C    1.082     1 C    0.910     4 O    0.121
     3   6 C    3.858 --     4 O    1.608     2 O    1.082     5 C    1.071
     4   8 O    1.881 --     3 C    1.608     2 O    0.121
     5   6 C    3.912 --     6 C    1.288    25 N    1.137     3 C    1.071
                             7 O    0.148
     6   6 C    3.943 --     7 O    1.547     5 C    1.288     8 C    0.934
     7   8 O    1.884 --     6 C    1.547     5 C    0.148
     8   6 C    3.796 --     9 O    1.824     6 C    0.934    10 N    0.850
     9   8 O    2.046 --     8 C    1.824
    10   7 N    3.591 --    11 C    0.891    12 C    0.880     8 C    0.850
                            29 H    0.781
    11   6 C    3.899 --    30 H    0.986    31 H    0.980    32 H    0.980
                            10 N    0.891
    12   6 C    3.903 --    25 N    1.755    13 C    0.982    10 N    0.880
    13   6 C    3.930 --    15 C    0.990    12 C    0.982    14 C    0.971
                            16 N    0.921
    14   6 C    3.984 --    33 H    0.983    35 H    0.983    34 H    0.982
                            13 C    0.971
    15   6 C    3.987 --    13 C    0.990    36 H    0.984    37 H    0.983
                            38 H    0.980
    16   7 N    3.350 --    17 C    1.266    13 C    0.921    39 H    0.890
                            18 O    0.164
    17   6 C    3.911 --    18 O    1.532    16 N    1.266    19 C    1.012
    18   8 O    1.941 --    17 C    1.532    16 N    0.164
    19   6 C    3.882 --    20 N    1.595    24 O    1.064    17 C    1.012
    20   7 N    3.022 --    19 C    1.595    21 N    1.214
    21   7 N    2.982 --    22 C    1.590    20 N    1.214
    22   6 C    3.867 --    21 N    1.590    24 O    1.088    23 C    1.033
    23   6 C    3.985 --    22 C    1.033    40 H    0.982    42 H    0.965
                            41 H    0.959
    24   8 O    2.336 --    22 C    1.088    19 C    1.064
    25   7 N    3.079 --    12 C    1.755     5 C    1.137
    26   1 H    1.010 --     1 C    0.980
    27   1 H    1.013 --     1 C    0.986
    28   1 H    1.010 --     1 C    0.980
    29   1 H    0.920 --    10 N    0.781
    30   1 H    0.994 --    11 C    0.986
    31   1 H    0.996 --    11 C    0.980
    32   1 H    1.003 --    11 C    0.980
    33   1 H    0.999 --    14 C    0.983
    34   1 H    1.006 --    14 C    0.982
    35   1 H    1.004 --    14 C    0.983
    36   1 H    1.000 --    15 C    0.984
    37   1 H    0.997 --    15 C    0.983
    38   1 H    1.008 --    15 C    0.980
    39   1 H    0.945 --    16 N    0.890
    40   1 H    0.998 --    23 C    0.982
    41   1 H    0.995 --    23 C    0.959
    42   1 H    0.995 --    23 C    0.965
 ---------------------------------------------------------------------------

           -------------------------------------------------
          | TOTAL ENERGY              -82.954714089970 Eh   |
          | GRADIENT NORM               0.000842179185 Eh/α |
          | HOMO-LUMO GAP               1.755514760037 eV   |
           -------------------------------------------------

 * finished run on 2023/06/21 at 18:01:06.069
