   * xtb version 6.5.1 (579679a) compiled by 'ehlert@majestix' on 2022-07-11
          program call               : /lustre/hpc/kemi/ree/PhD/git/ReactivityQM/dep/xtb-6.5.1/bin/xtb --gfn 1 /lustre/hpc/kemi/ree/PhD/git/ReactivityQM/calculations/R02methylcation/reac01prodE13/conf07/R02methylcation_reac01prodE13_conf07_gfn1.xyz --opt --vfukui --chrg -2 --uhf 0 --alpb DMSO

   ID    Z sym.   atoms
    1    6 C      1, 3, 5, 6, 8, 10, 12-15, 17, 19, 22, 23
    2    8 O      2, 4, 7, 9, 18, 24
    3    7 N      11, 16, 20, 21, 25
    4    1 H      26-42

      * Solvation model:               ALPB
        Solvent                        DMSO
        Solvent mass                       7.8130E+01 g/mol
          :  Hamiltonian                  GFN1-xTB          :
 * total energy  :   -83.5662141 Eh     change       -0.5778134E-10 Eh
 * total energy  :   -83.5797494 Eh     change       -0.1353529E-01 Eh
 * total energy  :   -83.5847518 Eh     change       -0.5002335E-02 Eh
 * total energy  :   -83.5856684 Eh     change       -0.9166989E-03 Eh
 * total energy  :   -83.5862983 Eh     change       -0.6298248E-03 Eh
 * total energy  :   -83.5865316 Eh     change       -0.2333665E-03 Eh
 * total energy  :   -83.5866942 Eh     change       -0.1625964E-03 Eh
 * total energy  :   -83.5867851 Eh     change       -0.9081609E-04 Eh
 * total energy  :   -83.5868268 Eh     change       -0.4176109E-04 Eh
 * total energy  :   -83.5868482 Eh     change       -0.2135520E-04 Eh
 * total energy  :   -83.5932872 Eh     change       -0.2848365E-04 Eh
 * total energy  :   -83.5932962 Eh     change       -0.8972183E-05 Eh
 * total energy  :   -83.5933056 Eh     change       -0.9389586E-05 Eh
 * total energy  :   -83.5933144 Eh     change       -0.8853348E-05 Eh
 * total energy  :   -83.5933197 Eh     change       -0.5283418E-05 Eh
 * total energy  :   -83.5933257 Eh     change       -0.5920739E-05 Eh
 * total energy  :   -83.5933332 Eh     change       -0.7550723E-05 Eh
 * total energy  :   -83.5933396 Eh     change       -0.6406205E-05 Eh
 * total energy  :   -83.5933442 Eh     change       -0.4588320E-05 Eh
   *** GEOMETRY OPTIMIZATION CONVERGED AFTER 87 ITERATIONS ***

 final structure:
================
42
 xtb: 6.5.1 (579679a)
C           -4.42792644769078        3.58604522543401        1.53365655804133
O           -3.49895701954656        2.57551140945483        1.21199836585864
C           -3.96821252449179        1.61824854724446        0.27922061857319
O           -5.11891944071746        1.76312666259291       -0.17082847821315
C           -3.01893809322601        0.61203741136196        0.00630644012284
C           -3.26937106553255       -0.49541551940686       -0.94051084645054
O           -4.34317098095996       -0.61382679520379       -1.60730276376922
C           -2.21124558993613       -1.40775478470721       -1.04561753844466
O           -2.17225220276543       -2.51624648330788       -1.89010650896557
C           -3.24687440768126       -3.43699592108317       -1.75986618239453
N           -1.04361831205736       -1.27031596221608       -0.28058643507520
C           -0.87300077057408       -0.16596857847801        0.51357936663023
C            0.44741926442526       -0.06756846394374        1.25965889886407
C            0.42904405140305       -1.08246062778381        2.41449570335860
C            0.63438379666433        1.35888972763211        1.79564484838590
N            1.50310002284635       -0.41758886771576        0.30271308082833
C            2.85827979727551       -0.30391922704703        0.65003363231127
O            3.26970455420564       -0.34524847908219        1.82912269216704
C            3.68086985776094       -0.19713434373505       -0.51233198784246
N            3.25123082092244       -0.12102364485928       -1.77770288309772
N            4.36723915226639        0.01130272751578       -2.55827230501157
C            5.39174743081475        0.01248323844348       -1.77032854198356
C            6.81799056305644        0.14075493513780       -2.16051284177097
O            5.05922015560945       -0.11418493688244       -0.46301468877831
N           -1.79099836196415        0.71869132206718        0.67276336191297
H           -3.94712194261712        4.25870200728603        2.24597538014857
H           -4.72581804811152        4.15888710287965        0.64559256416069
H           -5.33443048830405        3.16879001380682        1.99200075726532
H           -3.33384468817892       -3.80586537389048       -0.72987680518185
H           -3.02780675770537       -4.27811381616705       -2.42085528412788
H           -4.20015298891357       -2.98273563203410       -2.05851109012385
H           -0.29069506375297       -1.91938782295524       -0.43236569658883
H            1.33937447888699       -1.01244119150778        3.00721362352902
H            0.34488837841475       -2.09357494075951        2.01726857976841
H           -0.42688851779707       -0.88520759867094        3.05990439535659
H            0.70246976129898        2.06375934604254        0.96686970405118
H           -0.22392463521181        1.62887032596240        2.41104881712561
H            1.54014722509095        1.42590978525527        2.39599383411747
H            1.32067967979588       -0.08757866121032       -0.64034166559977
H            7.36412975355849       -0.77315254255865       -1.92533754422343
H            6.88567580591916        0.33066885052619       -3.22911624671156
H            7.28657379750800        0.96103057658273       -1.61689788821490

          :  Hamiltonian                  GFN1-xTB          :
         :: total energy             -83.593344197945 Eh    ::
         :: gradient norm              0.000765769492 Eh/a0 ::
         :: HOMO-LUMO gap              0.037070078210 eV    ::
         :: SCC energy               -84.319642871962 Eh    ::
         :: -> Gsolv                  -0.271349090419 Eh    ::
         :: repulsion energy           0.751106634999 Eh    ::

    * Orbital Energies and Occupations

         #    Occupation            Energy/Eh            Energy/eV
      -------------------------------------------------------------
         1        2.0000           -0.8017299             -21.8162
       ...           ...                  ...                  ...
        56        2.0000           -0.4364734             -11.8770
        57        2.0000           -0.4301720             -11.7056
        58        2.0000           -0.4286793             -11.6650
        59        2.0000           -0.4091008             -11.1322
        60        2.0000           -0.4084377             -11.1142
        61        2.0000           -0.4051320             -11.0242
        62        2.0000           -0.3982727             -10.8376
        63        2.0000           -0.3938929             -10.7184
        64        2.0000           -0.3902713             -10.6198
        65        2.0000           -0.3843205             -10.4579
        66        2.0000           -0.3430375              -9.3345
        67        2.0000           -0.3373065              -9.1786
        68        1.3439           -0.2690930              -7.3224 (HOMO)
        69        0.6561           -0.2677307              -7.2853 (LUMO)
        70                         -0.2106711              -5.7327
        71                         -0.2019992              -5.4967
        72                         -0.1645886              -4.4787
        73                         -0.1410528              -3.8382
        74                         -0.1247526              -3.3947
        75                         -0.1071011              -2.9144
        76                         -0.1061184              -2.8876
        77                         -0.0978017              -2.6613
        78                         -0.0932869              -2.5385
        79                         -0.0735244              -2.0007
       ...                                ...                  ...
       134                          0.7324489              19.9310
      -------------------------------------------------------------
                  HL-Gap            0.0013623 Eh            0.0371 eV

Wiberg/Mayer (AO) data.
largest (>0.10) Wiberg bond orders for each atom

     #   Z sym  total        # sym  WBO       # sym  WBO       # sym  WBO
 ---------------------------------------------------------------------------
     1   6 C    3.923 --    26 H    0.987    28 H    0.980    27 H    0.980
                             2 O    0.956
     2   8 O    2.048 --     1 C    0.956     3 C    0.924
     3   6 C    3.779 --     4 O    1.468     5 C    1.289     2 O    0.924
     4   8 O    1.720 --     3 C    1.468
     5   6 C    3.755 --     3 C    1.289    25 N    1.111     6 C    1.074
     6   6 C    3.920 --     7 O    1.393     8 C    1.327     5 C    1.074
     7   8 O    1.690 --     6 C    1.393     8 C    0.114
     8   6 C    3.526 --     6 C    1.327    11 N    1.025     9 O    0.951
                             7 O    0.114
     9   8 O    2.011 --     8 C    0.951    10 C    0.934
    10   6 C    3.908 --    30 H    0.987    29 H    0.983    31 H    0.978
                             9 O    0.934
    11   7 N    3.254 --    12 C    1.128     8 C    1.025    32 H    0.907
                            25 N    0.103
    12   6 C    3.928 --    25 N    1.610    11 N    1.128    13 C    0.974
    13   6 C    3.949 --    15 C    0.991    14 C    0.985    12 C    0.974
                            16 N    0.939
    14   6 C    3.992 --    35 H    0.988    34 H    0.986    13 C    0.985
                            33 H    0.980
    15   6 C    3.993 --    13 C    0.991    36 H    0.986    38 H    0.985
                            37 H    0.984
    16   7 N    3.142 --    17 C    1.077    13 C    0.939    39 H    0.919
                            18 O    0.108
    17   6 C    3.749 --    18 O    1.449    19 C    1.155    16 N    1.077
    18   8 O    1.690 --    17 C    1.449    16 N    0.108
    19   6 C    3.693 --    20 N    1.390    17 C    1.155    24 O    0.977
    20   7 N    2.742 --    19 C    1.390    21 N    1.184
    21   7 N    2.980 --    22 C    1.629    20 N    1.184
    22   6 C    3.820 --    21 N    1.629    24 O    1.049    23 C    1.024
    23   6 C    3.994 --    22 C    1.024    41 H    0.986    42 H    0.973
                            40 H    0.970
    24   8 O    2.183 --    22 C    1.049    19 C    0.977
    25   7 N    2.952 --    12 C    1.610     5 C    1.111    11 N    0.103
    26   1 H    1.021 --     1 C    0.987
    27   1 H    1.022 --     1 C    0.980
    28   1 H    1.021 --     1 C    0.980
    29   1 H    1.013 --    10 C    0.983
    30   1 H    1.020 --    10 C    0.987
    31   1 H    1.038 --    10 C    0.978
    32   1 H    0.962 --    11 N    0.907
    33   1 H    1.023 --    14 C    0.980
    34   1 H    1.010 --    14 C    0.986
    35   1 H    1.008 --    14 C    0.988
    36   1 H    1.011 --    15 C    0.986
    37   1 H    1.021 --    15 C    0.984
    38   1 H    1.014 --    15 C    0.985
    39   1 H    0.981 --    16 N    0.919
    40   1 H    1.001 --    23 C    0.970
    41   1 H    1.004 --    23 C    0.986
    42   1 H    1.001 --    23 C    0.973
 ---------------------------------------------------------------------------

           -------------------------------------------------
          | TOTAL ENERGY              -83.593344197945 Eh   |
          | GRADIENT NORM               0.000765769492 Eh/α |
          | HOMO-LUMO GAP               0.037070078210 eV   |
           -------------------------------------------------

 * finished run on 2023/06/21 at 17:26:01.260
