   * xtb version 6.5.1 (579679a) compiled by 'ehlert@majestix' on 2022-07-11
          program call               : /lustre/hpc/kemi/ree/PhD/git/ReactivityQM/dep/xtb-6.5.1/bin/xtb --gfn 1 /lustre/hpc/kemi/ree/PhD/git/ReactivityQM/calculations/R02oxygendeprot/reac01prodN15/conf13/R02oxygendeprot_reac01prodN15_conf13_gfn1.xyz --opt --vfukui --chrg 0 --uhf 0 --alpb DMSO

   ID    Z sym.   atoms
    1    6 C      1, 3, 5, 7-10, 12, 14, 17, 18, 21, 23, 24
    2    8 O      2, 4, 13, 19, 22, 25
    3    7 N      6, 11, 15, 16, 20
    4    1 H      26-42

      * Solvation model:               ALPB
        Solvent                        DMSO
        Solvent mass                       7.8130E+01 g/mol
          :  Hamiltonian                  GFN1-xTB          :
 * total energy  :   -82.8939470 Eh     change       -0.5115908E-12 Eh
 * total energy  :   -82.9130190 Eh     change       -0.1907201E-01 Eh
 * total energy  :   -82.9312636 Eh     change       -0.1824459E-01 Eh
 * total energy  :   -82.9496523 Eh     change       -0.1838870E-01 Eh
 * total energy  :   -82.9732503 Eh     change       -0.2359805E-01 Eh
 * total energy  :   -82.8657404 Eh     change        0.1075100E+00 Eh
 * total energy  :   -82.9944875 Eh     change       -0.1287472E+00 Eh
 * total energy  :   -82.9941903 Eh     change        0.2972086E-03 Eh
 * total energy  :   -83.0010879 Eh     change       -0.6897606E-02 Eh
 * total energy  :   -83.0023732 Eh     change       -0.1285296E-02 Eh
 * total energy  :   -83.0058182 Eh     change       -0.1392831E-04 Eh
 * total energy  :   -83.0058264 Eh     change       -0.8294001E-05 Eh
 * total energy  :   -83.0058345 Eh     change       -0.8043149E-05 Eh
 * total energy  :   -83.0058428 Eh     change       -0.8340447E-05 Eh
 * total energy  :   -83.0058493 Eh     change       -0.6507147E-05 Eh
 * total energy  :   -83.0058551 Eh     change       -0.5760269E-05 Eh
 * total energy  :   -83.0058605 Eh     change       -0.5427250E-05 Eh
 * total energy  :   -83.0058665 Eh     change       -0.5969472E-05 Eh
 * total energy  :   -83.0058695 Eh     change       -0.3026973E-05 Eh
   *** GEOMETRY OPTIMIZATION CONVERGED AFTER 44 ITERATIONS ***

 final structure:
================
42
 xtb: 6.5.1 (579679a)
C           -5.34326803282203        0.86324168042402        1.93489107996731
O           -4.06644053432767        0.57045501912456        1.35090403294955
C           -3.92522635465903        0.84389980058742        0.06483071132386
O           -4.78956966948038        1.31122388991694       -0.63268255876770
C           -2.54563240835947        0.44723177498871       -0.43430226836355
N           -1.56892302553307        0.32044760271695        0.57949095798280
C           -0.47314997863390       -0.27188898020358        0.31174637503407
C            0.61322126652408       -0.35676359209647        1.36384845115244
C            0.54343384312809       -1.75177170648710        2.00350915685950
C            0.42257475779699        0.74313009035640        2.41225753123477
N            1.89576364947308       -0.17580530140868        0.67660245156258
C            3.08844211493960       -0.24545130192946        1.31049520997323
O            3.25482316240088       -0.56873258709660        2.47352202458327
C            4.22054496457855        0.10814265820058        0.41859785812914
N            5.48433181643663        0.13390234874138        0.70904706347979
N            6.14020925119518        0.52565398137826       -0.41754911460605
C            5.23673266851168        0.71704702390254       -1.32956773021658
C            5.43577305842271        1.15347393778063       -2.73040935252946
O            4.00172205431391        0.47181512907284       -0.86462353632188
N           -0.23545560821779       -0.95221788658232       -0.86514221555035
C           -1.21029377100427       -1.21851841481021       -1.79906115857906
O           -1.09435700640301       -2.11996619126335       -2.60059221018693
C           -2.41528932921416       -0.33077815772454       -1.71467379311348
C           -3.59270546298344       -0.74420051251981       -2.56486633364670
O           -2.12634716013139        1.04096940091760       -1.62547139583625
H           -5.55814255382142        1.92999119127042        1.84516728859457
H           -6.12174319200424        0.29060762817632        1.42713115678773
H           -5.27767218933287        0.57332553280075        2.98081263948590
H            0.74521744246939       -2.51644558542931        1.25585665411196
H            1.27418069393602       -1.83501743574211        2.80546370575193
H           -0.45315033849610       -1.90914108285157        2.41297677928680
H            0.48039589652097        1.72188096551897        1.93865803410585
H            1.19417366554185        0.66563375391195        3.17588682834337
H           -0.55561619776941        0.63289052867782        2.87722993688841
H            1.88133804808500        0.21647953981874       -0.25083229096318
H            4.48577286400821        1.13961543437484       -3.25836389544936
H            6.14088714216058        0.49082184067680       -3.23121288688357
H            5.84455066687541        2.16391262890535       -2.75176113060672
H            0.58975021069658       -1.52999507643319       -0.92614652504430
H           -4.31179122262631        0.06856760521966       -2.63267412226509
H           -4.07228622900494       -1.62193961382589       -2.13530969219223
H           -3.23678297318885       -0.99572756105135       -3.56368371647063

          :  Hamiltonian                  GFN1-xTB          :
         :: total energy             -83.005869523230 Eh    ::
         :: gradient norm              0.000315323806 Eh/a0 ::
         :: HOMO-LUMO gap              3.710028144227 eV    ::
         :: SCC energy               -83.777533685092 Eh    ::
         :: -> Gsolv                  -0.053467896524 Eh    ::
         :: repulsion energy           0.797071173245 Eh    ::

    * Orbital Energies and Occupations

         #    Occupation            Energy/Eh            Energy/eV
      -------------------------------------------------------------
         1        2.0000           -0.8672243             -23.5984
       ...           ...                  ...                  ...
        55        2.0000           -0.5078578             -13.8195
        56        2.0000           -0.5061165             -13.7721
        57        2.0000           -0.5047618             -13.7353
        58        2.0000           -0.5028860             -13.6842
        59        2.0000           -0.4818012             -13.1105
        60        2.0000           -0.4779508             -13.0057
        61        2.0000           -0.4690773             -12.7642
        62        2.0000           -0.4665024             -12.6942
        63        2.0000           -0.4648570             -12.6494
        64        2.0000           -0.4612476             -12.5512
        65        2.0000           -0.4528326             -12.3222
        66        2.0000           -0.4498814             -12.2419
        67        2.0000           -0.4491308             -12.2215 (HOMO)
        68                         -0.3127897              -8.5114 (LUMO)
        69                         -0.3034606              -8.2576
        70                         -0.2888665              -7.8605
        71                         -0.2592465              -7.0545
        72                         -0.2582765              -7.0281
        73                         -0.2005597              -5.4575
        74                         -0.1428833              -3.8881
        75                         -0.1428703              -3.8877
        76                         -0.1307965              -3.5592
        77                         -0.1284458              -3.4952
        78                         -0.1248610              -3.3976
       ...                                ...                  ...
       134                          0.7288781              19.8338
      -------------------------------------------------------------
                  HL-Gap            0.1363410 Eh            3.7100 eV

Wiberg/Mayer (AO) data.
largest (>0.10) Wiberg bond orders for each atom

     #   Z sym  total        # sym  WBO       # sym  WBO       # sym  WBO
 ---------------------------------------------------------------------------
     1   6 C    3.861 --    28 H    0.986    27 H    0.979    26 H    0.979
                             2 O    0.885
     2   8 O    2.218 --     3 C    1.143     1 C    0.885     4 O    0.141
     3   6 C    3.850 --     4 O    1.683     2 O    1.143     5 C    0.938
     4   8 O    1.951 --     3 C    1.683     2 O    0.141
     5   6 C    3.869 --     6 N    1.028     3 C    0.938    25 O    0.906
                            23 C    0.830
     6   7 N    3.025 --     7 C    1.709     5 C    1.028
     7   6 C    3.929 --     6 N    1.709    20 N    1.110     8 C    0.979
     8   6 C    3.934 --    10 C    0.990     7 C    0.979     9 C    0.975
                            11 N    0.925
     9   6 C    3.987 --    31 H    0.985    29 H    0.984    30 H    0.977
                             8 C    0.975
    10   6 C    3.988 --     8 C    0.990    32 H    0.985    34 H    0.983
                            33 H    0.982
    11   7 N    3.336 --    12 C    1.244     8 C    0.925    35 H    0.893
                            13 O    0.173
    12   6 C    3.915 --    13 O    1.593    11 N    1.244    14 C    0.994
    13   8 O    1.909 --    12 C    1.593    11 N    0.173
    14   6 C    3.872 --    15 N    1.620    19 O    1.045    12 C    0.994
    15   7 N    3.001 --    14 C    1.620    16 N    1.203
    16   7 N    2.980 --    17 C    1.606    15 N    1.203
    17   6 C    3.867 --    16 N    1.606    19 O    1.076    18 C    1.030
    18   6 C    3.986 --    17 C    1.030    36 H    0.982    37 H    0.965
                            38 H    0.961
    19   8 O    2.319 --    17 C    1.076    14 C    1.045
    20   7 N    3.417 --    21 C    1.139     7 C    1.110    39 H    0.884
                            22 O    0.125
    21   6 C    3.892 --    22 O    1.658    20 N    1.139    23 C    0.980
    22   8 O    1.936 --    21 C    1.658    20 N    0.125
    23   6 C    3.861 --    24 C    1.002    21 C    0.980    25 O    0.896
                             5 C    0.830
    24   6 C    3.984 --    23 C    1.002    41 H    0.980    40 H    0.979
                            42 H    0.975
    25   8 O    1.968 --     5 C    0.906    23 C    0.896
    26   1 H    1.005 --     1 C    0.979
    27   1 H    1.005 --     1 C    0.979
    28   1 H    1.009 --     1 C    0.986
    29   1 H    1.000 --     9 C    0.984
    30   1 H    1.010 --     9 C    0.977
    31   1 H    1.001 --     9 C    0.985
    32   1 H    1.003 --    10 C    0.985
    33   1 H    1.006 --    10 C    0.982
    34   1 H    1.009 --    10 C    0.983
    35   1 H    0.938 --    11 N    0.893
    36   1 H    0.997 --    18 C    0.982
    37   1 H    0.997 --    18 C    0.965
    38   1 H    0.997 --    18 C    0.961
    39   1 H    0.929 --    20 N    0.884
    40   1 H    1.009 --    24 C    0.979
    41   1 H    1.000 --    24 C    0.980
    42   1 H    1.002 --    24 C    0.975
 ---------------------------------------------------------------------------

           -------------------------------------------------
          | TOTAL ENERGY              -83.005869523230 Eh   |
          | GRADIENT NORM               0.000315323806 Eh/α |
          | HOMO-LUMO GAP               3.710028144227 eV   |
           -------------------------------------------------

 * finished run on 2023/06/21 at 17:35:38.514
