   * xtb version 6.5.1 (579679a) compiled by 'ehlert@majestix' on 2022-07-11
          program call               : /lustre/hpc/kemi/ree/PhD/git/ReactivityQM/dep/xtb-6.5.1/bin/xtb --gfn 1 /lustre/hpc/kemi/ree/PhD/git/ReactivityQM/calculations/R02oxygendeprot/reac01prodE07/conf18/R02oxygendeprot_reac01prodE07_conf18_gfn1.xyz --opt --vfukui --chrg -2 --uhf 0 --alpb DMSO

   ID    Z sym.   atoms
    1    6 C      1, 3, 5, 7-10, 12, 14, 15, 18, 19, 22, 24
    2    8 O      2, 4, 13, 20, 23, 25
    3    7 N      6, 11, 16, 17, 21
    4    1 H      26-42

      * Solvation model:               ALPB
        Solvent                        DMSO
        Solvent mass                       7.8130E+01 g/mol
          :  Hamiltonian                  GFN1-xTB          :
 * total energy  :   -83.5811058 Eh     change       -0.3252154E-09 Eh
 * total energy  :   -83.5960662 Eh     change       -0.1496034E-01 Eh
 * total energy  :   -83.6028885 Eh     change       -0.6822327E-02 Eh
 * total energy  :   -83.6043634 Eh     change       -0.1474905E-02 Eh
 * total energy  :   -83.6054679 Eh     change       -0.1104526E-02 Eh
 * total energy  :   -83.6059470 Eh     change       -0.4790217E-03 Eh
 * total energy  :   -83.6062748 Eh     change       -0.3278574E-03 Eh
 * total energy  :   -83.6064619 Eh     change       -0.1870681E-03 Eh
 * total energy  :   -83.6066165 Eh     change       -0.1545963E-03 Eh
 * total energy  :   -83.6067832 Eh     change       -0.1667672E-03 Eh
 * total energy  :   -83.6156715 Eh     change       -0.1623779E-04 Eh
 * total energy  :   -83.6156809 Eh     change       -0.9455690E-05 Eh
 * total energy  :   -83.6156870 Eh     change       -0.6065839E-05 Eh
 * total energy  :   -83.6156925 Eh     change       -0.5511580E-05 Eh
 * total energy  :   -83.6157000 Eh     change       -0.7465875E-05 Eh
 * total energy  :   -83.6157104 Eh     change       -0.1039996E-04 Eh
 * total energy  :   -83.6157211 Eh     change       -0.1075227E-04 Eh
 * total energy  :   -83.6157282 Eh     change       -0.7061178E-05 Eh
 * total energy  :   -83.6157328 Eh     change       -0.4589977E-05 Eh
   *** GEOMETRY OPTIMIZATION CONVERGED AFTER 90 ITERATIONS ***

 final structure:
================
42
 xtb: 6.5.1 (579679a)
C            6.54649477941446        1.74893340714996        1.16752332137591
O            5.58709428455797        1.29908768917582        0.22496114422442
C            4.36807929089471        0.96790894945407        0.73491742952125
O            4.15512939373192        1.07459171916838        1.93933191282416
C            3.40487456966785        0.49506789605043       -0.24310163949365
N            2.18930338161993        0.15038908201641        0.32770508272136
C            1.23208702933961       -0.29168249354587       -0.40202197509219
C           -0.08082176712088       -0.74253602649628        0.20821438720024
C           -0.40733385068185        0.11887362134143        1.43733367280187
C            0.07763939733722       -2.21536258729424        0.61557954843066
N           -1.12189187705444       -0.62685714831176       -0.83083938268368
C           -2.43295533627086       -1.08939389323590       -0.42422265527257
O           -2.69862116668661       -2.43641791356502       -0.81631478210098
C           -3.42861788176238       -3.18324952787430        0.13363914948131
C           -3.46581109194378       -0.20612888468541       -0.24867271327422
N           -4.78688247263588       -0.46965657325144       -0.08672770698993
N           -5.38112641258219        0.74243293741014        0.21157564954842
C           -4.46604265905612        1.64377485923768        0.22743901652843
C           -4.63564316346110        3.09991638737421        0.48357647452513
O           -3.21058887372463        1.14702079985058       -0.04725898702959
N            1.37235141151826       -0.45372889024597       -1.76336400340252
C            2.50709530375074       -0.15155214847657       -2.45813714392384
O            2.54645669539228       -0.31788473083648       -3.67954734269844
C            3.66009007516320        0.37622051772954       -1.63398802437952
O            4.72639599873969        0.66315618008381       -2.21741863521920
H            6.20549756875632        2.66115747747462        1.66771163262882
H            7.46477490961021        1.95405139371496        0.61859710995799
H            6.73560936390323        0.98360892718255        1.92725424586649
H            0.42289161703923        0.08907817383853        2.14312388003379
H           -0.57784930199806        1.15187200623742        1.13507863503583
H           -1.30668597548583       -0.25683522347454        1.92427731098708
H            0.96133718102753       -2.33558403338100        1.24208782429034
H           -0.79468139296252       -2.54774384985483        1.17641611693003
H            0.18233092481617       -2.83803764613106       -0.27308015457514
H           -1.20439019349900        0.36288964415015       -1.06605970911320
H           -2.95081591583680       -3.16202535947795        1.12470868575096
H           -3.46628630495653       -4.21802743298880       -0.21768634939643
H           -4.45694300743967       -2.80378302708513        0.23954870570018
H           -5.68951858142266        3.31236603596093        0.65281078621636
H           -4.28817235142381        3.68497017005587       -0.36996747897820
H           -4.06602923332387        3.41372535071819        1.36019988009798
H            0.57217263504009       -0.79460483516036       -2.28207391906902

          :  Hamiltonian                  GFN1-xTB          :
         :: total energy             -83.615732772517 Eh    ::
         :: gradient norm              0.000272347558 Eh/a0 ::
         :: HOMO-LUMO gap              0.467582633524 eV    ::
         :: SCC energy               -84.346982095331 Eh    ::
         :: -> Gsolv                  -0.255822961245 Eh    ::
         :: repulsion energy           0.757165676615 Eh    ::

    * Orbital Energies and Occupations

         #    Occupation            Energy/Eh            Energy/eV
      -------------------------------------------------------------
         1        2.0000           -0.7902273             -21.5032
       ...           ...                  ...                  ...
        56        2.0000           -0.4421734             -12.0322
        57        2.0000           -0.4272289             -11.6255
        58        2.0000           -0.4249615             -11.5638
        59        2.0000           -0.4236856             -11.5291
        60        2.0000           -0.4132373             -11.2448
        61        2.0000           -0.4007785             -10.9057
        62        2.0000           -0.3943315             -10.7303
        63        2.0000           -0.3792230             -10.3192
        64        2.0000           -0.3715144             -10.1094
        65        2.0000           -0.3659467              -9.9579
        66        2.0000           -0.3621229              -9.8539
        67        2.0000           -0.3522254              -9.5845
        68        1.9998           -0.2762930              -7.5183 (HOMO)
        69        0.0002           -0.2591096              -7.0507 (LUMO)
        70                         -0.2207200              -6.0061
        71                         -0.1860508              -5.0627
        72                         -0.1798814              -4.8948
        73                         -0.1373013              -3.7362
        74                         -0.1179081              -3.2084
        75                         -0.1119614              -3.0466
        76                         -0.1040280              -2.8307
        77                         -0.0967512              -2.6327
        78                         -0.0925070              -2.5172
        79                         -0.0904727              -2.4619
       ...                                ...                  ...
       134                          0.7573077              20.6074
      -------------------------------------------------------------
                  HL-Gap            0.0171833 Eh            0.4676 eV

Wiberg/Mayer (AO) data.
largest (>0.10) Wiberg bond orders for each atom

     #   Z sym  total        # sym  WBO       # sym  WBO       # sym  WBO
 ---------------------------------------------------------------------------
     1   6 C    3.903 --    27 H    0.987    28 H    0.980    26 H    0.980
                             2 O    0.930
     2   8 O    2.153 --     3 C    1.036     1 C    0.930     4 O    0.107
     3   6 C    3.848 --     4 O    1.567     5 C    1.126     2 O    1.036
     4   8 O    1.845 --     3 C    1.567     2 O    0.107
     5   6 C    3.919 --    24 C    1.279     6 N    1.145     3 C    1.126
                            25 O    0.130
     6   7 N    3.020 --     7 C    1.631     5 C    1.145
     7   6 C    3.926 --     6 N    1.631    21 N    1.099     8 C    0.978
     8   6 C    3.972 --     9 C    0.987    10 C    0.982     7 C    0.978
                            11 N    0.962
     9   6 C    3.996 --     8 C    0.987    31 H    0.985    30 H    0.985
                            29 H    0.985
    10   6 C    3.994 --    32 H    0.988    34 H    0.986     8 C    0.982
                            33 H    0.979
    11   7 N    3.039 --     8 C    0.962    12 C    0.962    35 H    0.943
    12   6 C    3.680 --    15 C    1.478    11 N    0.962    13 O    0.902
                            16 N    0.151
    13   8 O    2.000 --    14 C    0.962    12 C    0.902
    14   6 C    3.932 --    37 H    0.985    36 H    0.976    38 H    0.975
                            13 O    0.962
    15   6 C    3.862 --    12 C    1.478    16 N    1.283    20 O    0.955
    16   7 N    2.825 --    15 C    1.283    17 N    1.147    12 C    0.151
                            18 C    0.119
    17   7 N    2.987 --    18 C    1.678    16 N    1.147
    18   6 C    3.885 --    17 N    1.678    19 C    1.018    20 O    0.990
                            16 N    0.119
    19   6 C    3.996 --    18 C    1.018    39 H    0.987    40 H    0.976
                            41 H    0.975
    20   8 O    2.180 --    18 C    0.990    15 C    0.955
    21   7 N    3.440 --    22 C    1.180     7 C    1.099    42 H    0.888
                            23 O    0.136
    22   6 C    3.884 --    23 O    1.556    21 N    1.180    24 C    0.973
    23   8 O    1.837 --    22 C    1.556    21 N    0.136
    24   6 C    3.944 --    25 O    1.503     5 C    1.279    22 C    0.973
    25   8 O    1.808 --    24 C    1.503     5 C    0.130
    26   1 H    1.015 --     1 C    0.980
    27   1 H    1.016 --     1 C    0.987
    28   1 H    1.015 --     1 C    0.980
    29   1 H    1.018 --     9 C    0.985
    30   1 H    1.012 --     9 C    0.985
    31   1 H    1.016 --     9 C    0.985
    32   1 H    1.010 --    10 C    0.988
    33   1 H    1.014 --    10 C    0.979
    34   1 H    1.013 --    10 C    0.986
    35   1 H    0.980 --    11 N    0.943
    36   1 H    1.026 --    14 C    0.976
    37   1 H    1.023 --    14 C    0.985
    38   1 H    1.048 --    14 C    0.975
    39   1 H    1.008 --    19 C    0.987
    40   1 H    1.007 --    19 C    0.976
    41   1 H    1.007 --    19 C    0.975
    42   1 H    0.968 --    21 N    0.888
 ---------------------------------------------------------------------------

           -------------------------------------------------
          | TOTAL ENERGY              -83.615732772517 Eh   |
          | GRADIENT NORM               0.000272347558 Eh/α |
          | HOMO-LUMO GAP               0.467582633524 eV   |
           -------------------------------------------------

 * finished run on 2023/06/21 at 17:08:53.575
