   * xtb version 6.5.1 (579679a) compiled by 'ehlert@majestix' on 2022-07-11
          program call               : /lustre/hpc/kemi/ree/PhD/git/ReactivityQM/dep/xtb-6.5.1/bin/xtb --gfn 1 /lustre/hpc/kemi/ree/PhD/git/ReactivityQM/calculations/R02methylcation/reac01prodE04/conf12/R02methylcation_reac01prodE04_conf12_gfn1.xyz --opt --vfukui --chrg -2 --uhf 0 --alpb DMSO

   ID    Z sym.   atoms
    1    6 C      1, 3, 5, 6, 8-11, 13, 15, 18, 19, 22, 24
    2    8 O      2, 4, 14, 20, 23, 25
    3    7 N      7, 12, 16, 17, 21
    4    1 H      26-42

      * Solvation model:               ALPB
        Solvent                        DMSO
        Solvent mass                       7.8130E+01 g/mol
          :  Hamiltonian                  GFN1-xTB          :
 * total energy  :   -83.5801844 Eh     change       -0.1033143E-08 Eh
 * total energy  :   -83.6015910 Eh     change       -0.2140659E-01 Eh
 * total energy  :   -83.6090963 Eh     change       -0.7505363E-02 Eh
 * total energy  :   -83.6109384 Eh     change       -0.1842078E-02 Eh
 * total energy  :   -83.6121317 Eh     change       -0.1193330E-02 Eh
 * total energy  :   -83.6127491 Eh     change       -0.6173184E-03 Eh
 * total energy  :   -83.6131200 Eh     change       -0.3709091E-03 Eh
 * total energy  :   -83.6134481 Eh     change       -0.3281151E-03 Eh
 * total energy  :   -83.6137501 Eh     change       -0.3020010E-03 Eh
 * total energy  :   -83.6140457 Eh     change       -0.2956137E-03 Eh
 * total energy  :   -83.6155070 Eh     change       -0.3042177E-04 Eh
 * total energy  :   -83.6155324 Eh     change       -0.2545521E-04 Eh
 * total energy  :   -83.6155567 Eh     change       -0.2429456E-04 Eh
 * total energy  :   -83.6155767 Eh     change       -0.1994394E-04 Eh
 * total energy  :   -83.6155912 Eh     change       -0.1453723E-04 Eh
 * total energy  :   -83.6156011 Eh     change       -0.9888844E-05 Eh
 * total energy  :   -83.6156084 Eh     change       -0.7253338E-05 Eh
 * total energy  :   -83.6156135 Eh     change       -0.5162691E-05 Eh
 * total energy  :   -83.6156183 Eh     change       -0.4815659E-05 Eh
   *** GEOMETRY OPTIMIZATION CONVERGED AFTER 39 ITERATIONS ***

 final structure:
================
42
 xtb: 6.5.1 (579679a)
C           -4.44728477082662       -1.92019732494677        2.13341584484630
O           -3.82366235459268       -0.66837773153710        1.88522316294038
C           -2.84218775004329       -0.66793777770057        0.94201452083988
O           -2.50964639745897       -1.69859718028539        0.37205145273796
C           -2.35067159764662        0.72949661441413        0.61222217135198
C           -2.32599873382387        1.64459044013247        1.83886474895904
N           -1.01885867408528        0.65660748258143        0.03502135309557
C           -0.92623845972365        0.31492206310208       -1.19856917387075
C            0.45176910794381        0.05923248118135       -1.80247173152530
C            0.69449635756610        0.99034461786190       -3.00004476544477
C            0.52907713461883       -1.41512758058226       -2.23858134426304
N            1.42932545850902        0.34338962586703       -0.76147805602715
C            2.76942584765041        0.02906133795706       -0.86634324736313
O            3.33124854636959       -0.23494755997615       -1.95047718050090
C            3.42972111043479        0.09255812814031        0.40791110827425
N            2.85669415149021        0.36324105396363        1.58161434841564
N            3.84490613002573        0.28197160329978        2.52421270488869
C            4.93935337783555       -0.02472245265739        1.90843490951718
C            6.27873483179390       -0.23474242117822        2.51167182807831
O            4.77499204146987       -0.16340433519583        0.57150852907689
N           -2.00238523016467        0.13497395364894       -2.00874968590679
C           -3.26980903463104        0.76360310788338       -1.72850027045491
O           -4.02928071103284        0.94612387875521       -2.72677142116119
C           -3.46341195383246        1.15685372430848       -0.39059313955431
O           -4.47883619319861        1.79013624866777        0.06663088893541
H           -3.73289298301957       -2.62711501752803        2.56737678928732
H           -5.25770005494555       -1.74142487032035        2.83855330677677
H           -4.84773694544591       -2.34859905567042        1.20897343082997
H           -3.33676996577513        1.79367030283497        2.21731859082810
H           -1.71022209491943        1.21212780781517        2.62679316783142
H           -1.90905009401740        2.61236346399576        1.55961350494114
H            0.62680026852441        2.03056801722795       -2.68254390189149
H            1.68585403697703        0.81154945664390       -3.41346290796529
H           -0.04410795723721        0.80882412468088       -3.77877934748708
H           -0.23393354119078       -1.62125407124494       -2.98729093163423
H            1.50479473578753       -1.63208097531868       -2.66982681287934
H            0.36486683348487       -2.06589393934053       -1.37968062657451
H            1.04411410567368        0.40184667248379        0.17984823321207
H            6.63582094807702       -1.24239587313041        2.29789544804689
H            6.99864452195137        0.47141279643000        2.09756792300746
H            6.21866553534705       -0.09634121654978        3.58844057796410
H           -1.84861658391545       -0.03630862070936       -2.98901400017265

          :  Hamiltonian                  GFN1-xTB          :
         :: total energy             -83.615618341413 Eh    ::
         :: gradient norm              0.000347574587 Eh/a0 ::
         :: HOMO-LUMO gap              0.044120218476 eV    ::
         :: SCC energy               -84.343518071864 Eh    ::
         :: -> Gsolv                  -0.273536062731 Eh    ::
         :: repulsion energy           0.754601653924 Eh    ::

    * Orbital Energies and Occupations

         #    Occupation            Energy/Eh            Energy/eV
      -------------------------------------------------------------
         1        2.0000           -0.8056173             -21.9220
       ...           ...                  ...                  ...
        56        2.0000           -0.4444604             -12.0944
        57        2.0000           -0.4402127             -11.9788
        58        2.0000           -0.4333241             -11.7913
        59        2.0000           -0.4230166             -11.5109
        60        2.0000           -0.4109641             -11.1829
        61        2.0000           -0.4077726             -11.0961
        62        2.0000           -0.4037504             -10.9866
        63        2.0000           -0.3995158             -10.8714
        64        2.0000           -0.3891733             -10.5899
        65        2.0000           -0.3799530             -10.3390
        66        2.0000           -0.3752519             -10.2111
        67        2.0000           -0.3438228              -9.3559
        68        1.4025           -0.2686100              -7.3092 (HOMO)
        69        0.5975           -0.2669886              -7.2651 (LUMO)
        70                         -0.2200040              -5.9866
        71                         -0.2134890              -5.8093
        72                         -0.2024724              -5.5096
        73                         -0.1421500              -3.8681
        74                         -0.1261841              -3.4336
        75                         -0.1220541              -3.3213
        76                         -0.1127744              -3.0687
        77                         -0.1043272              -2.8389
        78                         -0.0966948              -2.6312
        79                         -0.0889393              -2.4202
       ...                                ...                  ...
       134                          0.7150030              19.4562
      -------------------------------------------------------------
                  HL-Gap            0.0016214 Eh            0.0441 eV

Wiberg/Mayer (AO) data.
largest (>0.10) Wiberg bond orders for each atom

     #   Z sym  total        # sym  WBO       # sym  WBO       # sym  WBO
 ---------------------------------------------------------------------------
     1   6 C    3.898 --    27 H    0.987    26 H    0.981    28 H    0.980
                             2 O    0.923
     2   8 O    2.149 --     3 C    1.039     1 C    0.923     4 O    0.106
     3   6 C    3.780 --     4 O    1.592     2 O    1.039     5 C    0.948
     4   8 O    1.850 --     3 C    1.592     2 O    0.106
     5   6 C    3.957 --     6 C    0.992     7 N    0.978     3 C    0.948
                            24 C    0.872
     6   6 C    3.991 --     5 C    0.992    30 H    0.989    31 H    0.987
                            29 H    0.983
     7   7 N    2.966 --     8 C    1.652     5 C    0.978    21 N    0.148
     8   6 C    3.933 --     7 N    1.652    21 N    1.179     9 C    0.970
     9   6 C    3.951 --    10 C    0.986    11 C    0.980     8 C    0.970
                            12 N    0.949
    10   6 C    3.992 --    32 H    0.987     9 C    0.986    34 H    0.985
                            33 H    0.981
    11   6 C    3.991 --    37 H    0.986    35 H    0.986    36 H    0.981
                             9 C    0.980
    12   7 N    3.191 --    13 C    1.134     9 C    0.949    38 H    0.894
                            14 O    0.125
    13   6 C    3.776 --    14 O    1.447    12 N    1.134    15 C    1.126
    14   8 O    1.703 --    13 C    1.447    12 N    0.125
    15   6 C    3.692 --    16 N    1.413    13 C    1.126    20 O    0.983
    16   7 N    2.762 --    15 C    1.413    17 N    1.185
    17   7 N    2.980 --    18 C    1.628    16 N    1.185
    18   6 C    3.823 --    17 N    1.628    20 O    1.051    19 C    1.024
    19   6 C    3.994 --    18 C    1.024    41 H    0.986    39 H    0.971
                            40 H    0.971
    20   8 O    2.191 --    18 C    1.051    15 C    0.983
    21   7 N    3.316 --     8 C    1.179    22 C    0.945    42 H    0.915
                             7 N    0.148
    22   6 C    3.750 --    23 O    1.380    24 C    1.264    21 N    0.945
    23   8 O    1.599 --    22 C    1.380
    24   6 C    3.745 --    25 O    1.358    22 C    1.264     5 C    0.872
    25   8 O    1.572 --    24 C    1.358
    26   1 H    1.013 --     1 C    0.981
    27   1 H    1.015 --     1 C    0.987
    28   1 H    1.014 --     1 C    0.980
    29   1 H    1.028 --     6 C    0.983
    30   1 H    1.010 --     6 C    0.989
    31   1 H    1.013 --     6 C    0.987
    32   1 H    1.009 --    10 C    0.987
    33   1 H    1.019 --    10 C    0.981
    34   1 H    1.005 --    10 C    0.985
    35   1 H    1.006 --    11 C    0.986
    36   1 H    1.016 --    11 C    0.981
    37   1 H    1.008 --    11 C    0.986
    38   1 H    0.996 --    12 N    0.894
    39   1 H    1.001 --    19 C    0.971
    40   1 H    1.001 --    19 C    0.971
    41   1 H    1.004 --    19 C    0.986
    42   1 H    0.970 --    21 N    0.915
 ---------------------------------------------------------------------------

           -------------------------------------------------
          | TOTAL ENERGY              -83.615618341413 Eh   |
          | GRADIENT NORM               0.000347574587 Eh/α |
          | HOMO-LUMO GAP               0.044120218476 eV   |
           -------------------------------------------------

 * finished run on 2023/06/21 at 17:10:39.291
