   * xtb version 6.5.1 (579679a) compiled by 'ehlert@majestix' on 2022-07-11
          program call               : /lustre/hpc/kemi/ree/PhD/git/ReactivityQM/dep/xtb-6.5.1/bin/xtb --gfn 1 /lustre/hpc/kemi/ree/PhD/git/ReactivityQM/calculations/R02methylcation/reac01prodN17/conf03/R02methylcation_reac01prodN17_conf03_gfn1.xyz --opt --vfukui --chrg 0 --uhf 0 --alpb DMSO

   ID    Z sym.   atoms
    1    6 C      1, 3, 5, 7-10, 12, 13, 15, 18, 19, 22, 24
    2    8 O      2, 4, 14, 20, 23, 25
    3    7 N      6, 11, 16, 17, 21
    4    1 H      26-42

      * Solvation model:               ALPB
        Solvent                        DMSO
        Solvent mass                       7.8130E+01 g/mol
          :  Hamiltonian                  GFN1-xTB          :
 * total energy  :   -82.9300385 Eh     change       -0.1516383E-08 Eh
 * total energy  :   -82.9439250 Eh     change       -0.1388648E-01 Eh
 * total energy  :   -82.9487814 Eh     change       -0.4856406E-02 Eh
 * total energy  :   -82.9496694 Eh     change       -0.8880444E-03 Eh
 * total energy  :   -82.9502335 Eh     change       -0.5641078E-03 Eh
 * total energy  :   -82.9505736 Eh     change       -0.3400415E-03 Eh
 * total energy  :   -82.9508444 Eh     change       -0.2708347E-03 Eh
 * total energy  :   -82.9510679 Eh     change       -0.2235113E-03 Eh
 * total energy  :   -82.9512377 Eh     change       -0.1697315E-03 Eh
 * total energy  :   -82.9513760 Eh     change       -0.1383810E-03 Eh
 * total energy  :   -82.9804417 Eh     change       -0.2851289E-03 Eh
 * total energy  :   -82.9806791 Eh     change       -0.2374105E-03 Eh
 * total energy  :   -82.9809232 Eh     change       -0.2441318E-03 Eh
 * total energy  :   -82.9811545 Eh     change       -0.2312646E-03 Eh
 * total energy  :   -82.9813608 Eh     change       -0.2063289E-03 Eh
 * total energy  :   -82.9815369 Eh     change       -0.1761520E-03 Eh
 * total energy  :   -82.9817252 Eh     change       -0.1882462E-03 Eh
 * total energy  :   -82.9818729 Eh     change       -0.1477440E-03 Eh
 * total energy  :   -82.9819882 Eh     change       -0.1152758E-03 Eh
 * total energy  :   -82.9821184 Eh     change       -0.1302400E-03 Eh

 final structure:
================
42
 xtb: 6.5.1 (579679a)
C           -2.60761912878317        3.71736719831750       -2.29130809551744
O           -2.68724625541142        2.30560856109320       -2.08798376139308
C           -1.76980366994534        1.77661849990223       -1.27213130311381
O           -0.88230153900911        2.44605107295286       -0.77036627769021
C           -1.96664744097849        0.35081891543582       -1.00264019546297
N           -0.89889555784340       -0.34073012414544       -0.42813796094224
C           -1.04686514332082       -1.51221228767125        0.12640606882174
C            0.21269416293895       -2.19985763659651        0.56759757563696
C            0.49404867603350       -3.40734559183667       -0.32797256051396
C            0.16469163216346       -2.58911060620000        2.04566704468299
N            1.20638813400139       -1.11537602618204        0.37962132146783
C            2.59679994055440       -1.51738839107610        0.12428146433442
C            0.63531150507934       -0.21157734770880       -0.92812818138491
O            0.80519950150110       -0.77515613068309       -2.00352811493423
C            1.27527184819102        1.12627862989666       -0.67559676217662
N            1.78775784417607        1.90286836589675       -1.57387655130899
N            2.44223505525401        2.89818314342005       -0.90556368617403
C            2.30597590167773        2.65597357067040        0.35718742935502
C            2.88413641785327        3.40559184770850        1.49147670676594
O            1.58323372459916        1.53513504202495        0.57820393172029
N           -2.25912551999632       -2.08015578922031        0.24726957122991
C           -3.40554425066694       -1.59592239055136       -0.37836487586107
O           -4.43959016282889       -2.22310594109889       -0.29620148480527
C           -3.24972270741286       -0.26383884154048       -1.08722743864135
O           -4.23932956517804        0.21512854691535       -1.64290616688941
H           -3.40263437605658        3.97813871998672       -2.98712116216207
H           -1.63492808402786        3.98534597531734       -2.71195283048465
H           -2.74594525370008        4.24407126488339       -1.34343493217731
H            0.64664789494086       -3.08903258777272       -1.35745420590223
H            1.37198858540678       -3.94414267323736        0.02314801278167
H           -0.36085165078950       -4.07832073635922       -0.28484837979471
H            1.14275516490320       -2.94571428455212        2.36393624240712
H           -0.12257102524149       -1.73606085364051        2.65751371228777
H           -0.55907320591439       -3.38899773892787        2.18920722525155
H            1.18325751550262       -0.50864895859675        1.19834647044023
H            3.21511294901198       -0.62647645402444        0.20701504942993
H            2.90085277546966       -2.24859481678893        0.86754968576009
H            2.67170400850265       -1.93316553159974       -0.87872632769454
H            2.10798629841905        3.67849374333403        2.20394065857290
H            3.60761476477130        2.77863282910729        2.00715827862200
H            3.38125635830741        4.29818694346914        1.11912552412881
H           -2.34422512212531       -2.96756113030533        0.71829528132113

          :  Hamiltonian                  GFN1-xTB          :
         :: total energy             -82.982261691631 Eh    ::
         :: gradient norm              0.008499502295 Eh/a0 ::
         :: HOMO-LUMO gap              2.485959200086 eV    ::
         :: SCC energy               -83.745509434746 Eh    ::
         :: -> Gsolv                  -0.090183005365 Eh    ::
         :: repulsion energy           0.792804184171 Eh    ::

    * Orbital Energies and Occupations

         #    Occupation            Energy/Eh            Energy/eV
      -------------------------------------------------------------
         1        2.0000           -0.8633476             -23.4929
       ...           ...                  ...                  ...
        55        2.0000           -0.5094114             -13.8618
        56        2.0000           -0.5022516             -13.6670
        57        2.0000           -0.4991219             -13.5818
        58        2.0000           -0.4931340             -13.4189
        59        2.0000           -0.4884098             -13.2903
        60        2.0000           -0.4766853             -12.9713
        61        2.0000           -0.4750612             -12.9271
        62        2.0000           -0.4746060             -12.9147
        63        2.0000           -0.4620793             -12.5738
        64        2.0000           -0.4495371             -12.2325
        65        2.0000           -0.4473958             -12.1743
        66        2.0000           -0.4228052             -11.5051
        67        2.0000           -0.4105650             -11.1720 (HOMO)
        68                         -0.3192077              -8.6861 (LUMO)
        69                         -0.3018561              -8.2139
        70                         -0.2806525              -7.6369
        71                         -0.2510731              -6.8320
        72                         -0.2355349              -6.4092
        73                         -0.1762968              -4.7973
        74                         -0.1667729              -4.5381
        75                         -0.1541873              -4.1957
        76                         -0.1481355              -4.0310
        77                         -0.1435072              -3.9050
        78                         -0.1412340              -3.8432
       ...                                ...                  ...
       134                          0.7512090              20.4414
      -------------------------------------------------------------
                  HL-Gap            0.0913573 Eh            2.4860 eV

Wiberg/Mayer (AO) data.
largest (>0.10) Wiberg bond orders for each atom

     #   Z sym  total        # sym  WBO       # sym  WBO       # sym  WBO
 ---------------------------------------------------------------------------
     1   6 C    3.880 --    26 H    0.986    27 H    0.980    28 H    0.980
                             2 O    0.905
     2   8 O    2.195 --     3 C    1.097     1 C    0.905     4 O    0.121
     3   6 C    3.865 --     4 O    1.589     2 O    1.097     5 C    1.080
     4   8 O    1.886 --     3 C    1.589     2 O    0.121
     5   6 C    3.853 --    24 C    1.254     3 C    1.080     6 N    1.063
                            25 O    0.138
     6   7 N    3.515 --     7 C    1.452     5 C    1.063    13 C    0.685
     7   6 C    3.929 --     6 N    1.452    21 N    1.212     8 C    0.984
     8   6 C    3.926 --    10 C    0.986     7 C    0.984     9 C    0.982
                            11 N    0.916
     9   6 C    3.980 --     8 C    0.982    30 H    0.980    31 H    0.980
                            29 H    0.976
    10   6 C    3.983 --     8 C    0.986    33 H    0.981    32 H    0.979
                            34 H    0.979
    11   7 N    3.549 --    12 C    0.932     8 C    0.916    35 H    0.895
                            13 C    0.628    14 O    0.113
    12   6 C    3.913 --    36 H    0.982    37 H    0.981    38 H    0.979
                            11 N    0.932
    13   6 C    3.886 --    14 O    1.499    15 C    0.953     6 N    0.685
                            11 N    0.628
    14   8 O    1.834 --    13 C    1.499    11 N    0.113
    15   6 C    3.878 --    16 N    1.652    20 O    1.046    13 C    0.953
    16   7 N    2.997 --    15 C    1.652    17 N    1.177
    17   7 N    2.984 --    18 C    1.638    16 N    1.177
    18   6 C    3.867 --    17 N    1.638    20 O    1.050    19 C    1.031
    19   6 C    3.987 --    18 C    1.031    41 H    0.982    39 H    0.966
                            40 H    0.962
    20   8 O    2.305 --    18 C    1.050    15 C    1.046
    21   7 N    3.451 --     7 C    1.212    22 C    1.080    42 H    0.880
                            23 O    0.116
    22   6 C    3.863 --    23 O    1.665    21 N    1.080    24 C    0.950
    23   8 O    1.934 --    22 C    1.665    21 N    0.116
    24   6 C    3.942 --    25 O    1.571     5 C    1.254    22 C    0.950
    25   8 O    1.881 --    24 C    1.571     5 C    0.138
    26   1 H    1.012 --     1 C    0.986
    27   1 H    1.010 --     1 C    0.980
    28   1 H    1.008 --     1 C    0.980
    29   1 H    1.010 --     9 C    0.976
    30   1 H    0.996 --     9 C    0.980
    31   1 H    0.997 --     9 C    0.980
    32   1 H    0.994 --    10 C    0.979
    33   1 H    0.995 --    10 C    0.981
    34   1 H    0.995 --    10 C    0.979
    35   1 H    0.943 --    11 N    0.895
    36   1 H    0.997 --    12 C    0.982
    37   1 H    0.995 --    12 C    0.981
    38   1 H    1.002 --    12 C    0.979
    39   1 H    0.997 --    19 C    0.966
    40   1 H    0.998 --    19 C    0.962
    41   1 H    0.999 --    19 C    0.982
    42   1 H    0.924 --    21 N    0.880
 ---------------------------------------------------------------------------

           -------------------------------------------------
          | TOTAL ENERGY              -82.982261691631 Eh   |
          | GRADIENT NORM               0.008499502295 Eh/α |
          | HOMO-LUMO GAP               2.485959200086 eV   |
           -------------------------------------------------

 * finished run on 2023/06/21 at 18:00:03.021
