   * xtb version 6.5.1 (579679a) compiled by 'ehlert@majestix' on 2022-07-11
          program call               : /lustre/hpc/kemi/ree/PhD/git/ReactivityQM/dep/xtb-6.5.1/bin/xtb --gfn 1 /lustre/hpc/kemi/ree/PhD/git/ReactivityQM/calculations/R02/reac01prodN07/conf11/R02_reac01prodN07_conf11_gfn1.xyz --opt --vfukui --chrg 1 --uhf 0 --alpb DMSO

   ID    Z sym.   atoms
    1    6 C      1, 3, 5, 7-10, 12, 14, 17-19, 22, 24
    2    8 O      2, 4, 13, 20, 23, 25
    3    7 N      6, 11, 15, 16, 21
    4    1 H      26-43

      * Solvation model:               ALPB
        Solvent                        DMSO
        Solvent mass                       7.8130E+01 g/mol
          :  Hamiltonian                  GFN1-xTB          :
 * total energy  :   -83.1546720 Eh     change       -0.2464162E-10 Eh
 * total energy  :   -83.1729706 Eh     change       -0.1829855E-01 Eh
 * total energy  :   -83.1792018 Eh     change       -0.6231172E-02 Eh
 * total energy  :   -83.1801942 Eh     change       -0.9923890E-03 Eh
 * total energy  :   -83.1806349 Eh     change       -0.4407491E-03 Eh
 * total energy  :   -83.1808079 Eh     change       -0.1729546E-03 Eh
 * total energy  :   -83.1810049 Eh     change       -0.1970603E-03 Eh
 * total energy  :   -83.1811867 Eh     change       -0.1817457E-03 Eh
 * total energy  :   -83.1813626 Eh     change       -0.1759796E-03 Eh
 * total energy  :   -83.1814792 Eh     change       -0.1165587E-03 Eh
 * total energy  :   -83.1816140 Eh     change       -0.6111911E-04 Eh
 * total energy  :   -83.1816634 Eh     change       -0.4938236E-04 Eh
 * total energy  :   -83.1817067 Eh     change       -0.4325011E-04 Eh
 * total energy  :   -83.1817448 Eh     change       -0.3807832E-04 Eh
 * total energy  :   -83.1817736 Eh     change       -0.2881264E-04 Eh
 * total energy  :   -83.1817920 Eh     change       -0.1843515E-04 Eh
 * total energy  :   -83.1818035 Eh     change       -0.1147373E-04 Eh
 * total energy  :   -83.1818104 Eh     change       -0.6887391E-05 Eh
 * total energy  :   -83.1818142 Eh     change       -0.3784497E-05 Eh
   *** GEOMETRY OPTIMIZATION CONVERGED AFTER 20 ITERATIONS ***

 final structure:
================
43
 xtb: 6.5.1 (579679a)
C            6.75107705722961        1.88225896978041        1.18489189915784
O            5.60241230861169        1.04685662434311        1.36727245156508
C            4.69552410781223        1.06560477686657        0.39540955912133
O            4.80618909656958        1.73639370817615       -0.60507525197297
C            3.52299655562270        0.17728460264030        0.65959262222048
N            2.58169737406918        0.20748137895910       -0.34321099331788
C            1.51357921265211       -0.50122832326134       -0.25127010607883
C            0.50398034381826       -0.49402054970353       -1.37782209071344
C            0.60086509415523       -1.83077970073528       -2.12691482621184
C            0.76121403280723        0.69156752150890       -2.31135908506455
N           -0.83290133232666       -0.35576116693372       -0.76655592924403
C           -1.96371236304661       -0.36970237478595       -1.48893052469242
O           -2.07232568434367       -0.55757727525272       -2.67973471624540
C           -3.16563361229535       -0.11313998120950       -0.61950030061713
N           -3.18723029789335        0.13957692563572        0.65510576305016
N           -4.48880883588314        0.30501413618979        0.95366217350665
C           -4.89013995135715        0.60402889397106        2.31336429294863
C           -5.22059945958833        0.15572490450986       -0.13279965382354
C           -6.68149064282974        0.24977635655576       -0.28265188342524
O           -4.40765849882621       -0.10785809184559       -1.13332858110391
N            1.26943003195109       -1.32339266370682        0.81596046792623
C            2.13011881558685       -1.43055147893632        1.88336422783305
O            1.90485100995844       -2.14979206364867        2.84335504517520
C            3.33452259819067       -0.60803957571358        1.76401742182360
O            4.18878550703082       -0.69413238943920        2.78693573256128
H            7.31704340261194        1.55456703249972        0.30962846536320
H            6.44083283589491        2.92090913020568        1.04735184352475
H            7.35383996998045        1.78253965522920        2.08542345437815
H            0.33445839290904       -2.64989489747865       -1.46275606355976
H            1.62356911600767       -1.97197939049047       -2.47429336331035
H           -0.06909361852784       -1.83443255938473       -2.98385653826540
H            1.77670229126314        0.62728066295232       -2.69982718007841
H            0.05671978215993        0.67440478592096       -3.14026473847150
H            0.65019496272939        1.62518385649990       -1.76267764545432
H           -0.89268604438593       -0.12668324326932        0.21154144137877
H           -5.68458557204686       -0.08055708850314        2.60430101525707
H           -5.25067881496466        1.63109193528072        2.35853605090407
H           -4.01935931294853        0.47811522091577        2.95121302609948
H           -6.94954278288183        0.12234372220576       -1.32988432579240
H           -7.02997873008094        1.21879340003552        0.07703269051462
H           -7.16503356116168       -0.52243393223817        0.31847367947482
H            0.42586269628346       -1.87138556376847        0.85889559729339
H            3.82499351948023       -1.30345489056315        3.45523787634262

          :  Hamiltonian                  GFN1-xTB          :
         :: total energy             -83.181814151796 Eh    ::
         :: gradient norm              0.000693863051 Eh/a0 ::
         :: HOMO-LUMO gap              2.141696915665 eV    ::
         :: SCC energy               -83.992932149853 Eh    ::
         :: -> Gsolv                  -0.130640533457 Eh    ::
         :: repulsion energy           0.836424497521 Eh    ::

    * Orbital Energies and Occupations

         #    Occupation            Energy/Eh            Energy/eV
      -------------------------------------------------------------
         1        2.0000           -0.9393191             -25.5602
       ...           ...                  ...                  ...
        55        2.0000           -0.5276645             -14.3585
        56        2.0000           -0.5219336             -14.2025
        57        2.0000           -0.5195049             -14.1364
        58        2.0000           -0.5174405             -14.0803
        59        2.0000           -0.5142974             -13.9947
        60        2.0000           -0.5009064             -13.6304
        61        2.0000           -0.4968458             -13.5199
        62        2.0000           -0.4944350             -13.4543
        63        2.0000           -0.4919950             -13.3879
        64        2.0000           -0.4800300             -13.0623
        65        2.0000           -0.4691146             -12.7653
        66        2.0000           -0.4590701             -12.4919
        67        2.0000           -0.4409796             -11.9997 (HOMO)
        68                         -0.3622736              -9.8580 (LUMO)
        69                         -0.3460949              -9.4177
        70                         -0.3319124              -9.0318
        71                         -0.2945397              -8.0148
        72                         -0.2473583              -6.7310
        73                         -0.2451690              -6.6714
        74                         -0.1850094              -5.0344
        75                         -0.1724167              -4.6917
        76                         -0.1665998              -4.5334
        77                         -0.1425600              -3.8793
        78                         -0.1403456              -3.8190
       ...                                ...                  ...
       136                          0.7275959              19.7989
      -------------------------------------------------------------
                  HL-Gap            0.0787059 Eh            2.1417 eV

Wiberg/Mayer (AO) data.
largest (>0.10) Wiberg bond orders for each atom

     #   Z sym  total        # sym  WBO       # sym  WBO       # sym  WBO
 ---------------------------------------------------------------------------
     1   6 C    3.869 --    28 H    0.986    27 H    0.980    26 H    0.979
                             2 O    0.894
     2   8 O    2.207 --     3 C    1.121     1 C    0.894     4 O    0.136
     3   6 C    3.853 --     4 O    1.658     2 O    1.121     5 C    0.996
     4   8 O    1.921 --     3 C    1.658     2 O    0.136
     5   6 C    3.962 --    24 C    1.508     6 N    1.170     3 C    0.996
     6   7 N    3.031 --     7 C    1.608     5 C    1.170
     7   6 C    3.933 --     6 N    1.608    21 N    1.155     8 C    0.981
     8   6 C    3.919 --    10 C    0.991     7 C    0.981     9 C    0.977
                            11 N    0.904
     9   6 C    3.985 --    29 H    0.984    30 H    0.984    31 H    0.977
                             8 C    0.977
    10   6 C    3.987 --     8 C    0.991    34 H    0.985    33 H    0.982
                            32 H    0.982
    11   7 N    3.367 --    12 C    1.280     8 C    0.904    35 H    0.891
                            13 O    0.196
    12   6 C    3.924 --    13 O    1.620    11 N    1.280    14 C    0.953
    13   8 O    1.948 --    12 C    1.620    11 N    0.196
    14   6 C    3.842 --    15 N    1.608    20 O    1.068    12 C    0.953
    15   7 N    2.993 --    14 C    1.608    16 N    1.152
    16   7 N    3.630 --    18 C    1.420    15 N    1.152    17 C    0.908
    17   6 C    3.883 --    38 H    0.978    36 H    0.971    37 H    0.966
                            16 N    0.908
    18   6 C    3.842 --    16 N    1.420    20 O    1.157    19 C    1.042
    19   6 C    3.960 --    18 C    1.042    39 H    0.972    40 H    0.947
                            41 H    0.942
    20   8 O    2.392 --    18 C    1.157    14 C    1.068
    21   7 N    3.460 --     7 C    1.155    22 C    1.134    42 H    0.882
                            23 O    0.134
    22   6 C    3.909 --    23 O    1.585    21 N    1.134    24 C    1.058
    23   8 O    1.908 --    22 C    1.585    21 N    0.134
    24   6 C    3.921 --     5 C    1.508    25 O    1.114    22 C    1.058
    25   8 O    2.092 --    24 C    1.114    43 H    0.804
    26   1 H    1.007 --     1 C    0.979
    27   1 H    1.007 --     1 C    0.980
    28   1 H    1.010 --     1 C    0.986
    29   1 H    0.999 --     9 C    0.984
    30   1 H    0.999 --     9 C    0.984
    31   1 H    1.005 --     9 C    0.977
    32   1 H    1.008 --    10 C    0.982
    33   1 H    1.004 --    10 C    0.982
    34   1 H    1.003 --    10 C    0.985
    35   1 H    0.936 --    11 N    0.891
    36   1 H    0.989 --    17 C    0.971
    37   1 H    0.989 --    17 C    0.966
    38   1 H    0.992 --    17 C    0.978
    39   1 H    0.986 --    19 C    0.972
    40   1 H    0.986 --    19 C    0.947
    41   1 H    0.985 --    19 C    0.942
    42   1 H    0.923 --    21 N    0.882
    43   1 H    0.843 --    25 O    0.804
 ---------------------------------------------------------------------------

           -------------------------------------------------
          | TOTAL ENERGY              -83.181814151796 Eh   |
          | GRADIENT NORM               0.000693863051 Eh/α |
          | HOMO-LUMO GAP               2.141696915665 eV   |
           -------------------------------------------------

 * finished run on 2023/06/20 at 15:26:50.911
