   * xtb version 6.5.1 (579679a) compiled by 'ehlert@majestix' on 2022-07-11
          program call               : /lustre/hpc/kemi/ree/PhD/git/ReactivityQM/dep/xtb-6.5.1/bin/xtb --gfn 1 /lustre/hpc/kemi/ree/PhD/git/ReactivityQM/calculations/R03/reac01prodE01/conf10/R03_reac01prodE01_conf10_gfn1.xyz --opt --vfukui --chrg -1 --uhf 0 --alpb DMSO

   ID    Z sym.   atoms
    1    6 C      1-3, 5-7, 9, 10
    2    7 N      4
    3    9 F      8
    4    1 H      11-21

      * Solvation model:               ALPB
        Solvent                        DMSO
        Solvent mass                       7.8130E+01 g/mol
          :  Hamiltonian                  GFN1-xTB          :
 * total energy  :   -31.4537452 Eh     change       -0.1804779E-11 Eh
 * total energy  :   -31.4554865 Eh     change       -0.1741292E-02 Eh
 * total energy  :   -31.4557773 Eh     change       -0.2908123E-03 Eh
 * total energy  :   -31.4558394 Eh     change       -0.6202869E-04 Eh
 * total energy  :   -31.4558863 Eh     change       -0.4691175E-04 Eh
 * total energy  :   -31.4559210 Eh     change       -0.3477192E-04 Eh
 * total energy  :   -31.4559538 Eh     change       -0.3272316E-04 Eh
 * total energy  :   -31.4559738 Eh     change       -0.1999941E-04 Eh
 * total energy  :   -31.4559814 Eh     change       -0.7678018E-05 Eh
 * total energy  :   -31.4559838 Eh     change       -0.2325766E-05 Eh
 * total energy  :   -31.4559876 Eh     change       -0.3786526E-05 Eh
   *** GEOMETRY OPTIMIZATION CONVERGED AFTER 11 ITERATIONS ***

 final structure:
================
21
 xtb: 6.5.1 (579679a)
C           -0.96911470981783        0.48715774136145        1.50627076878246
C           -0.26522802383242        0.16516853121506        0.15230838561373
C           -1.36776366405064        0.03202172792829       -0.94591555406196
N           -2.25517404641566       -1.11846067585202       -0.71763800904548
C            0.65323156601904        1.31611410747393       -0.22797569390999
C            2.00758805246209        1.17517742909743       -0.37247041833859
C            2.61735711718736       -0.06589491708753       -0.19402827989752
F            3.99868629081332       -0.17830694177457       -0.35606450277749
C            1.87163600815998       -1.20747707226757        0.10963380134586
C            0.51643824146080       -1.13276153594053        0.26998489939793
H           -1.60015988947992       -0.34303641105500        1.82731203037219
H           -1.58487231706528        1.38409610675483        1.41853621293278
H           -0.21309783101633        0.65967340350944        2.27321516634086
H           -0.86539802637447       -0.11625924576061       -1.90976676532689
H           -1.94956465888616        0.96681762631525       -1.00923933815999
H           -2.81538822687532       -1.25916736954118       -1.54574448260771
H           -2.90094753528877       -0.89541372111518        0.02976401128396
H            0.18279963575152        2.28473600582086       -0.37358474077660
H            2.61981896958527        2.03548938712438       -0.63423145761526
H            2.38246495063483       -2.16290845136221        0.21277797688478
H           -0.06331390297140       -2.02676472484453        0.48685598956301

          :  Hamiltonian                  GFN1-xTB          :
         :: total energy             -31.455987553492 Eh    ::
         :: gradient norm              0.000477430240 Eh/a0 ::
         :: HOMO-LUMO gap              2.363293553761 eV    ::
         :: SCC energy               -31.825984714962 Eh    ::
         :: -> Gsolv                  -0.083839145450 Eh    ::
         :: repulsion energy           0.380489447457 Eh    ::

    * Orbital Energies and Occupations

         #    Occupation            Energy/Eh            Energy/eV
      -------------------------------------------------------------
         1        2.0000           -0.7746646             -21.0797
       ...           ...                  ...                  ...
        16        2.0000           -0.4856742             -13.2159
        17        2.0000           -0.4793028             -13.0425
        18        2.0000           -0.4742967             -12.9063
        19        2.0000           -0.4627718             -12.5927
        20        2.0000           -0.4552128             -12.3870
        21        2.0000           -0.4355955             -11.8532
        22        2.0000           -0.4349032             -11.8343
        23        2.0000           -0.4163281             -11.3289
        24        2.0000           -0.4046782             -11.0119
        25        2.0000           -0.3939010             -10.7186
        26        2.0000           -0.3737392             -10.1700
        27        2.0000           -0.3701145             -10.0713
        28        2.0000           -0.2715394              -7.3890 (HOMO)
        29                         -0.1846900              -5.0257 (LUMO)
        30                         -0.1063503              -2.8939
        31                         -0.0856695              -2.3312
        32                         -0.0726056              -1.9757
        33                         -0.0717147              -1.9515
        34                         -0.0521910              -1.4202
        35                         -0.0474057              -1.2900
        36                         -0.0437419              -1.1903
        37                         -0.0339635              -0.9242
        38                         -0.0223632              -0.6085
        39                         -0.0148506              -0.4041
       ...                                ...                  ...
        62                          0.6499676              17.6865
      -------------------------------------------------------------
                  HL-Gap            0.0868494 Eh            2.3633 eV

Wiberg/Mayer (AO) data.
largest (>0.10) Wiberg bond orders for each atom

     #   Z sym  total        # sym  WBO       # sym  WBO       # sym  WBO
 ---------------------------------------------------------------------------
     1   6 C    3.991 --    13 H    0.987    12 H    0.986    11 H    0.985
                             2 C    0.968
     2   6 C    3.984 --    10 C    1.006     5 C    1.004     1 C    0.968
                             3 C    0.958
     3   6 C    3.964 --     4 N    0.985    14 H    0.983    15 H    0.976
                             2 C    0.958
     4   7 N    2.946 --     3 C    0.985    17 H    0.959    16 H    0.955
     5   6 C    3.923 --     6 C    1.586     2 C    1.004    18 H    0.976
                             7 C    0.109    10 C    0.108
     6   6 C    3.992 --     5 C    1.586     7 C    1.322    19 H    0.972
     7   6 C    3.740 --     6 C    1.322     9 C    1.309     8 F    0.829
                             5 C    0.109    10 C    0.105
     8   9 F    0.921 --     7 C    0.829
     9   6 C    3.991 --    10 C    1.602     7 C    1.309    20 H    0.972
    10   6 C    3.933 --     9 C    1.602     2 C    1.006    21 H    0.976
                             5 C    0.108     7 C    0.105
    11   1 H    1.012 --     1 C    0.985
    12   1 H    1.010 --     1 C    0.986
    13   1 H    1.029 --     1 C    0.987
    14   1 H    1.036 --     3 C    0.983
    15   1 H    1.009 --     3 C    0.976
    16   1 H    0.971 --     4 N    0.955
    17   1 H    0.975 --     4 N    0.959
    18   1 H    1.003 --     5 C    0.976
    19   1 H    1.008 --     6 C    0.972
    20   1 H    1.008 --     9 C    0.972
    21   1 H    1.014 --    10 C    0.976
 ---------------------------------------------------------------------------

           -------------------------------------------------
          | TOTAL ENERGY              -31.455987553492 Eh   |
          | GRADIENT NORM               0.000477430240 Eh/α |
          | HOMO-LUMO GAP               2.363293553761 eV   |
           -------------------------------------------------

 * finished run on 2023/06/20 at 15:12:34.870
