   * xtb version 6.5.1 (579679a) compiled by 'ehlert@majestix' on 2022-07-11
          program call               : /lustre/hpc/kemi/ree/PhD/git/ReactivityQM/dep/xtb-6.5.1/bin/xtb --gfn 1 /lustre/hpc/kemi/ree/PhD/git/ReactivityQM/calculations/R02/reac01prodN13/conf20/R02_reac01prodN13_conf20_gfn1.xyz --opt --vfukui --chrg 1 --uhf 0 --alpb DMSO

   ID    Z sym.   atoms
    1    6 C      1, 3, 5, 7-10, 12, 14, 17-19, 22, 24
    2    8 O      2, 4, 13, 20, 23, 25
    3    7 N      6, 11, 15, 16, 21
    4    1 H      26-43

      * Solvation model:               ALPB
        Solvent                        DMSO
        Solvent mass                       7.8130E+01 g/mol
          :  Hamiltonian                  GFN1-xTB          :
 * total energy  :   -83.0997665 Eh     change       -0.5914416E-09 Eh
 * total energy  :   -83.1144570 Eh     change       -0.1469050E-01 Eh
 * total energy  :   -83.1200219 Eh     change       -0.5564960E-02 Eh
 * total energy  :   -83.1210000 Eh     change       -0.9780532E-03 Eh
 * total energy  :   -83.1217028 Eh     change       -0.7028508E-03 Eh
 * total energy  :   -83.1220078 Eh     change       -0.3049401E-03 Eh
 * total energy  :   -83.1222902 Eh     change       -0.2824464E-03 Eh
 * total energy  :   -83.1225079 Eh     change       -0.2177063E-03 Eh
 * total energy  :   -83.1226561 Eh     change       -0.1481869E-03 Eh
 * total energy  :   -83.1227265 Eh     change       -0.7041393E-04 Eh
 * total energy  :   -83.1239060 Eh     change       -0.3574179E-04 Eh
 * total energy  :   -83.1239368 Eh     change       -0.3071919E-04 Eh
 * total energy  :   -83.1239639 Eh     change       -0.2712571E-04 Eh
 * total energy  :   -83.1239850 Eh     change       -0.2111010E-04 Eh
 * total energy  :   -83.1240022 Eh     change       -0.1722513E-04 Eh
 * total energy  :   -83.1240150 Eh     change       -0.1278656E-04 Eh
 * total energy  :   -83.1240241 Eh     change       -0.9052612E-05 Eh
 * total energy  :   -83.1240319 Eh     change       -0.7861351E-05 Eh
 * total energy  :   -83.1240366 Eh     change       -0.4688223E-05 Eh
   *** GEOMETRY OPTIMIZATION CONVERGED AFTER 44 ITERATIONS ***

 final structure:
================
43
 xtb: 6.5.1 (579679a)
C           -6.64483735274305        1.89263645905980        1.53305612271604
O           -5.53975449829943        1.54503881909564        0.68987684895052
C           -4.47128220029464        1.03683568178584        1.28987675645785
O           -4.38890017505862        0.86514361177201        2.48316000714287
C           -3.37045153668263        0.68071251693902        0.33652329159209
N           -2.33382275768034        0.01163590519076        0.92726656902998
C           -1.32471835832234       -0.37619846812139        0.22235453911020
C           -0.23158632260126       -1.19627871960307        0.86833144190447
C           -0.45624424337185       -2.67476102971473        0.53728326201557
C           -0.20692960141000       -0.95951352292736        2.38143952507323
N            1.06129905509415       -0.80556729452816        0.29275338814408
C            1.46594731086823        0.47452881656521        0.27032016384324
O            0.82214595395194        1.44163887214632        0.61252030782837
C            2.87229925751083        0.60824208770359       -0.25081570179888
N            3.57628895979423        1.77937041375383       -0.30747854212683
N            4.72563288797190        1.51539889754315       -0.76146060857843
C            4.84218601759029        0.12382032704747       -1.03357512911707
C            5.07282174415487       -0.12142341684718       -2.53039634761682
C            5.92593980545739       -0.52375683572705       -0.16298309075923
O            3.56129902091571       -0.38806407382383       -0.65878192211775
N           -1.23334507973081       -0.14310304950450       -1.11597320069411
C           -2.19282812687703        0.54929460521040       -1.81933094332207
O           -2.10011763445889        0.77912933748036       -3.01228941169464
C           -3.33634960526613        0.97169066458854       -1.00625886051708
O           -4.28987407165446        1.63538810054984       -1.65254830642081
H           -6.97442106326809        1.01670212459710        2.09662308321230
H           -7.43803230806408        2.24209329492229        0.87550612496461
H           -6.35009917992210        2.68153159420438        2.22897014612327
H            0.32504498281879       -3.27799256963899        0.99502768165500
H           -0.43555482205005       -2.82289765099616       -0.54040277194533
H           -1.42381357014421       -2.99376848184906        0.92243272605016
H           -0.05040680280005        0.09689012019477        2.59479253112957
H           -1.16238405856995       -1.26871156331063        2.80285920054748
H            0.59465593359039       -1.54214022808009        2.82877935029975
H            1.69641613375031       -1.53191096419290        0.00998504141461
H            4.28125703588539        0.36099412092898       -3.09926033561601
H            6.03884590055234        0.29219324098639       -2.80999418670306
H            5.05768147947120       -1.19295541482491       -2.71276814272409
H            5.92694608419225       -1.59465736279499       -0.34974640323736
H            6.89078712955305       -0.09737241118214       -0.42677059500963
H            5.70702861602180       -0.33248724713772        0.88520992565686
H           -0.43689914391526       -0.48023476828306       -1.63167464061575
H           -4.05186879595157        1.72288446085118       -2.59413689427576

          :  Hamiltonian                  GFN1-xTB          :
         :: total energy             -83.124036608965 Eh    ::
         :: gradient norm              0.000312049078 Eh/a0 ::
         :: HOMO-LUMO gap              0.148674295178 eV    ::
         :: SCC energy               -83.913652898593 Eh    ::
         :: -> Gsolv                  -0.128784715323 Eh    ::
         :: repulsion energy           0.815945348529 Eh    ::

    * Orbital Energies and Occupations

         #    Occupation            Energy/Eh            Energy/eV
      -------------------------------------------------------------
         1        2.0000           -0.9355977             -25.4589
       ...           ...                  ...                  ...
        55        2.0000           -0.5367456             -14.6056
        56        2.0000           -0.5281974             -14.3730
        57        2.0000           -0.5227751             -14.2254
        58        2.0000           -0.5212848             -14.1849
        59        2.0000           -0.5153407             -14.0231
        60        2.0000           -0.5078327             -13.8188
        61        2.0000           -0.5036569             -13.7052
        62        2.0000           -0.5028452             -13.6831
        63        2.0000           -0.4992044             -13.5840
        64        2.0000           -0.4960602             -13.4985
        65        2.0000           -0.4770665             -12.9816
        66        2.0000           -0.4667950             -12.7021
        67        1.8932           -0.4484621             -12.2033 (HOMO)
        68        0.1068           -0.4429984             -12.0546 (LUMO)
        69                         -0.3594813              -9.7820
        70                         -0.3396697              -9.2429
        71                         -0.3029727              -8.2443
        72                         -0.2596859              -7.0664
        73                         -0.2544558              -6.9241
        74                         -0.1765057              -4.8030
        75                         -0.1610090              -4.3813
        76                         -0.1553978              -4.2286
        77                         -0.1494735              -4.0674
        78                         -0.1426974              -3.8830
       ...                                ...                  ...
       136                          0.7230657              19.6756
      -------------------------------------------------------------
                  HL-Gap            0.0054637 Eh            0.1487 eV

Wiberg/Mayer (AO) data.
largest (>0.10) Wiberg bond orders for each atom

     #   Z sym  total        # sym  WBO       # sym  WBO       # sym  WBO
 ---------------------------------------------------------------------------
     1   6 C    3.865 --    27 H    0.986    26 H    0.979    28 H    0.979
                             2 O    0.891
     2   8 O    2.211 --     3 C    1.128     1 C    0.891     4 O    0.139
     3   6 C    3.855 --     4 O    1.665     2 O    1.128     5 C    0.986
     4   8 O    1.925 --     3 C    1.665     2 O    0.139
     5   6 C    3.924 --    24 C    1.465     6 N    1.203     3 C    0.986
     6   7 N    2.998 --     7 C    1.559     5 C    1.203
     7   6 C    3.903 --     6 N    1.559    21 N    1.182     8 C    0.977
     8   6 C    3.914 --     9 C    0.979    10 C    0.978     7 C    0.977
                            11 N    0.913
     9   6 C    3.981 --    30 H    0.983    31 H    0.981    29 H    0.980
                             8 C    0.979
    10   6 C    3.979 --    34 H    0.985    32 H    0.981    33 H    0.980
                             8 C    0.978
    11   7 N    3.403 --    12 C    1.279     8 C    0.913    35 H    0.879
                            13 O    0.212
    12   6 C    3.925 --    13 O    1.612    11 N    1.279    14 C    0.951
    13   8 O    1.932 --    12 C    1.612    11 N    0.212
    14   6 C    3.737 --    20 O    1.315    15 N    1.220    12 C    0.951
    15   7 N    3.013 --    16 N    1.652    14 C    1.220
    16   7 N    2.911 --    15 N    1.652    17 C    1.057
    17   6 C    3.814 --    16 N    1.057    19 C    0.905    18 C    0.903
                            20 O    0.859
    18   6 C    3.940 --    36 H    0.979    37 H    0.977    38 H    0.976
                            17 C    0.903
    19   6 C    3.941 --    41 H    0.979    40 H    0.977    39 H    0.976
                            17 C    0.905
    20   8 O    2.356 --    14 C    1.315    17 C    0.859
    21   7 N    3.463 --     7 C    1.182    22 C    1.127    42 H    0.878
                            23 O    0.127
    22   6 C    3.899 --    23 O    1.597    21 N    1.127    24 C    1.051
    23   8 O    1.893 --    22 C    1.597    21 N    0.127
    24   6 C    3.866 --     5 C    1.465    25 O    1.134    22 C    1.051
    25   8 O    2.085 --    24 C    1.134    43 H    0.798
    26   1 H    1.006 --     1 C    0.979
    27   1 H    1.010 --     1 C    0.986
    28   1 H    1.006 --     1 C    0.979
    29   1 H    0.993 --     9 C    0.980
    30   1 H    0.995 --     9 C    0.983
    31   1 H    0.997 --     9 C    0.981
    32   1 H    1.004 --    10 C    0.981
    33   1 H    1.005 --    10 C    0.980
    34   1 H    0.998 --    10 C    0.985
    35   1 H    0.916 --    11 N    0.879
    36   1 H    0.991 --    18 C    0.979
    37   1 H    0.991 --    18 C    0.977
    38   1 H    0.991 --    18 C    0.976
    39   1 H    0.991 --    19 C    0.976
    40   1 H    0.991 --    19 C    0.977
    41   1 H    0.991 --    19 C    0.979
    42   1 H    0.922 --    21 N    0.878
    43   1 H    0.836 --    25 O    0.798
 ---------------------------------------------------------------------------

           -------------------------------------------------
          | TOTAL ENERGY              -83.124036608965 Eh   |
          | GRADIENT NORM               0.000312049078 Eh/α |
          | HOMO-LUMO GAP               0.148674295178 eV   |
           -------------------------------------------------

 * finished run on 2023/06/20 at 15:35:50.276
