   * xtb version 6.5.1 (579679a) compiled by 'ehlert@majestix' on 2022-07-11
          program call               : /lustre/hpc/kemi/ree/PhD/git/ReactivityQM/dep/xtb-6.5.1/bin/xtb --gfn 1 /lustre/hpc/kemi/ree/PhD/git/ReactivityQM/calculations/RaltegravirCLI/reac02prodN12/conf20/RaltegravirCLI_reac02prodN12_conf20_gfn1.xyz --opt --vfukui --chrg 1 --uhf 0 --alpb DMSO

   ID    Z sym.   atoms
    1    6 C      1, 3, 5, 6, 8, 9, 12-16, 18, 19, 21-24
    2    7 N      2, 11, 20, 25
    3    8 O      4, 7, 10
    4    9 F      17
    5    1 H      26-47

      * Solvation model:               ALPB
        Solvent                        DMSO
        Solvent mass                       7.8130E+01 g/mol
          :  Hamiltonian                  GFN1-xTB          :
 * total energy  :   -79.4690998 Eh     change       -0.4402523E-10 Eh
 * total energy  :   -79.4805844 Eh     change       -0.1148461E-01 Eh
 * total energy  :   -79.4855993 Eh     change       -0.5014900E-02 Eh
 * total energy  :   -79.4867505 Eh     change       -0.1151136E-02 Eh
 * total energy  :   -79.4876139 Eh     change       -0.8634041E-03 Eh
 * total energy  :   -79.4880174 Eh     change       -0.4035196E-03 Eh
 * total energy  :   -79.4884101 Eh     change       -0.3926794E-03 Eh
 * total energy  :   -79.4888197 Eh     change       -0.4096068E-03 Eh
 * total energy  :   -79.4891926 Eh     change       -0.3728725E-03 Eh
 * total energy  :   -79.4894602 Eh     change       -0.2676883E-03 Eh
 * total energy  :   -79.4905615 Eh     change       -0.3230202E-04 Eh
 * total energy  :   -79.4905918 Eh     change       -0.3027617E-04 Eh
 * total energy  :   -79.4906066 Eh     change       -0.1484248E-04 Eh
 * total energy  :   -79.4906440 Eh     change       -0.3742044E-04 Eh
 * total energy  :   -79.4906584 Eh     change       -0.1442247E-04 Eh
 * total energy  :   -79.4906659 Eh     change       -0.7418092E-05 Eh
 * total energy  :   -79.4906724 Eh     change       -0.6568185E-05 Eh
 * total energy  :   -79.4906777 Eh     change       -0.5284319E-05 Eh
 * total energy  :   -79.4906822 Eh     change       -0.4470780E-05 Eh
   *** GEOMETRY OPTIMIZATION CONVERGED AFTER 36 ITERATIONS ***

 final structure:
================
47
 xtb: 6.5.1 (579679a)
C           -4.32449399526973       -1.38192196713047       -0.55801566543441
N           -2.94647882226080       -0.88340576980556       -0.51433881064340
C           -2.03700303089561       -1.65959986115965       -1.29267693356836
O           -2.42696037652157       -2.55743043218437       -1.97805495407020
C           -0.56305048167780       -1.37019213279292       -1.04829323856035
C           -0.19024946769877       -2.17347300280832        0.23215581665607
O            0.19846641770418       -1.79183927111069       -2.13281220847052
C           -0.38405895462304        0.08602213939315       -0.76540165003322
C            0.82292642410363        0.93406397301888       -1.11636247853881
O            0.78538996470934        2.14001100568163       -0.94559179229053
N            1.88223219835382        0.26487789372943       -1.58625780727035
C            3.13538037583547        0.95042515698037       -1.88632124567966
C            4.12641386207186        0.74191214144699       -0.76099138547000
C            5.31722896164682        0.05833294122412       -0.98850106906654
C            6.22627110963924       -0.13501116701451        0.04302904353336
C            5.91294472207942        0.36183107857392        1.29503745122476
F            6.78313980703701        0.17623424629923        2.29767345848595
C            4.73560662176419        1.04155659317311        1.55536329575902
C            3.84029626150237        1.22954983610253        0.51314987098416
N           -1.30801914698652        0.69424101625188       -0.10024253267536
C           -2.51551476477594        0.16083358888331        0.18440600400510
C           -3.29703965555893        0.84484632798211        1.28150762509453
C           -2.56949394140749        2.11475288630163        1.74164131993862
C           -3.38589784470703       -0.16122264545966        2.44416303888417
N           -4.63993076384887        1.15605325194358        0.82067381974407
H           -4.98372697801359       -0.65276062913921       -0.09469555237667
H           -4.36180191299258       -2.33291286259017       -0.02904477428550
H           -4.59008540956519       -1.53758969312043       -1.60302037970085
H           -0.40407802186146       -3.22581104753818        0.05945140357027
H            0.87475009088965       -2.04512692236905        0.41189967418289
H           -0.75712592764894       -1.81516722470105        1.08781673144713
H           -0.12515145590961       -2.63829837783327       -2.47680745442030
H            1.86461885163211       -0.73632126978068       -1.68808579715088
H            2.91189031812805        2.01430898231768       -2.01321138864416
H            3.52405427317739        0.54542122663126       -2.82327048237228
H            5.53938985160479       -0.32769644516663       -1.97612816925356
H            7.15532042499682       -0.66560674204982       -0.12009862392302
H            4.52457666780666        1.40989976696663        2.55079356604254
H            2.91004287354483        1.75556209306413        0.69189443294497
H           -2.46130328600316        2.80783744087861        0.90905439558713
H           -3.15159489142521        2.59085382721746        2.52802320736194
H           -1.58200724508647        1.86528801719132        2.12649736311157
H           -2.38811874766763       -0.45735770694446        2.76369097752717
H           -3.89900553967250        0.31341505388071        3.27862098799091
H           -3.94220401634263       -1.04564402673714        2.14237406629829
H           -5.21945486238836        1.39175676128435        1.61328346897254
H           -4.61709153742087        1.94450595102165        0.18884437454818

          :  Hamiltonian                  GFN1-xTB          :
         :: total energy             -79.490682185521 Eh    ::
         :: gradient norm              0.000668369354 Eh/a0 ::
         :: HOMO-LUMO gap              0.694074005030 eV    ::
         :: SCC energy               -80.383022449809 Eh    ::
         :: -> Gsolv                  -0.107970317118 Eh    ::
         :: repulsion energy           0.923532437436 Eh    ::

    * Orbital Energies and Occupations

         #    Occupation            Energy/Eh            Energy/eV
      -------------------------------------------------------------
         1        2.0000           -0.8870159             -24.1369
       ...           ...                  ...                  ...
        55        2.0000           -0.5232679             -14.2388
        56        2.0000           -0.5204954             -14.1634
        57        2.0000           -0.5177146             -14.0877
        58        2.0000           -0.5118086             -13.9270
        59        2.0000           -0.5111907             -13.9102
        60        2.0000           -0.5040092             -13.7148
        61        2.0000           -0.4974326             -13.5358
        62        2.0000           -0.4811961             -13.0940
        63        2.0000           -0.4780700             -13.0089
        64        2.0000           -0.4670775             -12.7098
        65        2.0000           -0.4592782             -12.4976
        66        2.0000           -0.4452870             -12.1169
        67        2.0000           -0.4418660             -12.0238 (HOMO)
        68        0.0000           -0.4163592             -11.3297 (LUMO)
        69                         -0.3428359              -9.3290
        70                         -0.3011755              -8.1954
        71                         -0.2811978              -7.6518
        72                         -0.2758103              -7.5052
        73                         -0.2419125              -6.5828
        74                         -0.1632850              -4.4432
        75                         -0.1582845              -4.3071
        76                         -0.1541329              -4.1942
        77                         -0.1431901              -3.8964
        78                         -0.1354234              -3.6851
       ...                                ...                  ...
       144                          0.6887487              18.7418
      -------------------------------------------------------------
                  HL-Gap            0.0255068 Eh            0.6941 eV

Wiberg/Mayer (AO) data.
largest (>0.10) Wiberg bond orders for each atom

     #   Z sym  total        # sym  WBO       # sym  WBO       # sym  WBO
 ---------------------------------------------------------------------------
     1   6 C    3.879 --    28 H    0.969    27 H    0.966    26 H    0.959
                             2 N    0.901
     2   7 N    3.556 --    21 C    1.386     3 C    1.002     1 C    0.901
     3   6 C    3.859 --     4 O    1.779     2 N    1.002     5 C    0.934
     4   8 O    2.040 --     3 C    1.779
     5   6 C    3.935 --     8 C    1.000     7 O    0.988     3 C    0.934
                             6 C    0.893
     6   6 C    3.970 --    31 H    0.984    30 H    0.977    29 H    0.976
                             5 C    0.893
     7   8 O    1.927 --     5 C    0.988    32 H    0.811
     8   6 C    3.898 --    20 N    1.633     5 C    1.000     9 C    0.960
     9   6 C    3.922 --    10 O    1.587    11 N    1.297     8 C    0.960
    10   8 O    1.911 --     9 C    1.587    11 N    0.204
    11   7 N    3.421 --     9 C    1.297    12 C    0.932    33 H    0.879
                            10 O    0.204
    12   6 C    3.928 --    13 C    0.987    35 H    0.971    34 H    0.964
                            11 N    0.932
    13   6 C    3.982 --    14 C    1.423    19 C    1.413    12 C    0.987
    14   6 C    3.993 --    15 C    1.439    13 C    1.423    36 H    0.970
                            18 C    0.109
    15   6 C    3.990 --    14 C    1.439    16 C    1.402    37 H    0.968
                            19 C    0.111
    16   6 C    3.862 --    15 C    1.402    18 C    1.396    17 F    0.931
    17   9 F    1.060 --    16 C    0.931
    18   6 C    3.991 --    19 C    1.449    16 C    1.396    38 H    0.969
                            14 C    0.109
    19   6 C    3.993 --    18 C    1.449    13 C    1.413    39 H    0.971
                            15 C    0.111
    20   7 N    3.121 --     8 C    1.633    21 C    1.245
    21   6 C    3.869 --     2 N    1.386    20 N    1.245    22 C    0.990
    22   6 C    3.954 --    21 C    0.990    23 C    0.987    25 N    0.984
                            24 C    0.950
    23   6 C    3.988 --    22 C    0.987    41 H    0.983    40 H    0.982
                            42 H    0.981
    24   6 C    3.985 --    43 H    0.984    45 H    0.983    44 H    0.975
                            22 C    0.950
    25   7 N    3.007 --    22 C    0.984    47 H    0.929    46 H    0.924
    26   1 H    1.020 --     1 C    0.959
    27   1 H    0.994 --     1 C    0.966
    28   1 H    0.997 --     1 C    0.969
    29   1 H    0.993 --     6 C    0.976
    30   1 H    0.996 --     6 C    0.977
    31   1 H    0.997 --     6 C    0.984
    32   1 H    0.834 --     7 O    0.811
    33   1 H    0.938 --    11 N    0.879
    34   1 H    1.006 --    12 C    0.964
    35   1 H    0.998 --    12 C    0.971
    36   1 H    0.998 --    14 C    0.970
    37   1 H    0.996 --    15 C    0.968
    38   1 H    0.997 --    18 C    0.969
    39   1 H    1.002 --    19 C    0.971
    40   1 H    1.004 --    23 C    0.982
    41   1 H    0.999 --    23 C    0.983
    42   1 H    1.004 --    23 C    0.981
    43   1 H    0.999 --    24 C    0.984
    44   1 H    0.994 --    24 C    0.975
    45   1 H    0.998 --    24 C    0.983
    46   1 H    0.940 --    25 N    0.924
    47   1 H    0.944 --    25 N    0.929
 ---------------------------------------------------------------------------

           -------------------------------------------------
          | TOTAL ENERGY              -79.490682185521 Eh   |
          | GRADIENT NORM               0.000668369354 Eh/α |
          | HOMO-LUMO GAP               0.694074005030 eV   |
           -------------------------------------------------

 * finished run on 2023/06/20 at 15:33:16.553
