   * xtb version 6.5.1 (579679a) compiled by 'ehlert@majestix' on 2022-07-11
          program call               : /lustre/hpc/kemi/ree/PhD/git/ReactivityQM/dep/xtb-6.5.1/bin/xtb --gfn 1 /lustre/hpc/kemi/ree/PhD/git/ReactivityQM/calculations/R02deprot/reac01prodN17/conf01/R02deprot_reac01prodN17_conf01_gfn1.xyz --opt --vfukui --chrg 0 --uhf 0 --alpb DMSO

   ID    Z sym.   atoms
    1    6 C      1, 2, 5, 6, 9-12, 14, 15, 18-20, 22
    2    7 N      3, 4, 8, 13, 24
    3    8 O      7, 16, 17, 21, 23, 25
    4    1 H      26-42

      * Solvation model:               ALPB
        Solvent                        DMSO
        Solvent mass                       7.8130E+01 g/mol
          :  Hamiltonian                  GFN1-xTB          :
 * total energy  :   -82.9068588 Eh     change       -0.3367973E-11 Eh
 * total energy  :   -82.9208385 Eh     change       -0.1397972E-01 Eh
 * total energy  :   -82.9260921 Eh     change       -0.5253588E-02 Eh
 * total energy  :   -82.9272223 Eh     change       -0.1130256E-02 Eh
 * total energy  :   -82.9282410 Eh     change       -0.1018637E-02 Eh
 * total energy  :   -82.9290637 Eh     change       -0.8227160E-03 Eh
 * total energy  :   -82.9298644 Eh     change       -0.8006649E-03 Eh
 * total energy  :   -82.9305109 Eh     change       -0.6465479E-03 Eh
 * total energy  :   -82.9309662 Eh     change       -0.4553216E-03 Eh
 * total energy  :   -82.9312793 Eh     change       -0.3130939E-03 Eh
 * total energy  :   -82.9343331 Eh     change       -0.8604687E-05 Eh
 * total energy  :   -82.9343410 Eh     change       -0.7936775E-05 Eh
 * total energy  :   -82.9343500 Eh     change       -0.8972333E-05 Eh
 * total energy  :   -82.9343614 Eh     change       -0.1140216E-04 Eh
 * total energy  :   -82.9343748 Eh     change       -0.1342406E-04 Eh
 * total energy  :   -82.9343864 Eh     change       -0.1157324E-04 Eh
 * total energy  :   -82.9343970 Eh     change       -0.1060998E-04 Eh
 * total energy  :   -82.9344071 Eh     change       -0.1004032E-04 Eh
 * total energy  :   -82.9344112 Eh     change       -0.4098195E-05 Eh
   *** GEOMETRY OPTIMIZATION CONVERGED AFTER 68 ITERATIONS ***

 final structure:
================
42
 xtb: 6.5.1 (579679a)
C            3.58482410723640        3.36873882412177       -1.83385111660462
C            4.04092280497640        2.15672048875459       -1.11879347137696
N            5.25786925920921        1.82644452406998       -0.82021727796008
N            5.19095581808024        0.62649859950199       -0.17413973979599
C            3.93706351978413        0.30023080495560       -0.11793415720251
C            3.35220447265550       -0.93402945755379        0.47698373856179
O            4.06311835545500       -1.80207240192901        0.96599636357089
N            2.01597035933650       -0.96718683931869        0.40104218756412
C            1.19036880380187       -2.07289595765259        0.88352501183924
C            1.36572235423016       -2.23984593483136        2.40052117578030
C            1.55447327444709       -3.36562543427608        0.14184272504694
C           -0.26309090081885       -1.71748901116552        0.60918605966581
N           -0.52296227948022       -0.49091888008589        0.21907783431462
C           -1.84030255496843       -0.15386198980477        0.00011657045922
C           -1.99548974110013        1.18958087004225       -0.44334879559744
O           -1.23817544749650        2.05624757810433       -0.71673850722592
O           -3.50292515827086        1.55927664830883       -0.65521689894613
C           -3.65845380281180        2.56608138493299       -1.68421646901541
C           -4.17336189364474        1.90296246480121        0.58436472617283
C           -2.81838706171261       -1.11048367640269        0.18304500444004
O           -4.12517640741002       -0.93029403859995        0.01028577473477
C           -2.44355985611204       -2.47190162453086        0.61912952241479
O           -3.36240872877867       -3.29050111787300        0.76701287224705
N           -1.13489926117152       -2.70531067883659        0.82671137275581
O            3.15608704270424        1.23544287425010       -0.70242152935826
H            2.87203647338352        3.91894482255860       -1.22068099509047
H            3.08540432627105        3.08819885391129       -2.76103729121669
H            4.43914580543852        4.00261458658400       -2.05882465523564
H            1.51079156611941       -0.18604877150812        0.00000923487501
H            1.14418951867397       -1.29953259233656        2.90336731655499
H            0.67403453955598       -3.00297414154571        2.75513724369140
H            2.38515559958692       -2.54102655342297        2.63678150415337
H            0.84794887770890       -4.14586828883196        0.42278910250206
H            1.49496107821289       -3.20474906430446       -0.93380710142091
H            2.56295066606274       -3.68438070960469        0.40046742152357
H           -4.72583430574594        2.68699444198325       -1.84984758297883
H           -3.16820956078775        2.18427702728765       -2.57686810020405
H           -3.20347490622707        3.50229593256581       -1.35961409286850
H           -3.95499119801368        1.11575021897950        1.30104397149862
H           -3.81615632221411        2.86956012811523        0.94010713792031
H           -5.23903446886475        1.93370253278162        0.36892319420972
H           -4.53930576736039       -1.80779644216671        0.21009071554984

          :  Hamiltonian                  GFN1-xTB          :
         :: total energy             -82.934411151414 Eh    ::
         :: gradient norm              0.000311040805 Eh/a0 ::
         :: HOMO-LUMO gap              1.678276708595 eV    ::
         :: SCC energy               -83.715208235393 Eh    ::
         :: -> Gsolv                  -0.071456832795 Eh    ::
         :: repulsion energy           0.806576951549 Eh    ::

    * Orbital Energies and Occupations

         #    Occupation            Energy/Eh            Energy/eV
      -------------------------------------------------------------
         1        2.0000           -0.9004239             -24.5018
       ...           ...                  ...                  ...
        55        2.0000           -0.5006252             -13.6227
        56        2.0000           -0.4897040             -13.3255
        57        2.0000           -0.4874454             -13.2641
        58        2.0000           -0.4752325             -12.9317
        59        2.0000           -0.4654744             -12.6662
        60        2.0000           -0.4575271             -12.4499
        61        2.0000           -0.4571658             -12.4401
        62        2.0000           -0.4525885             -12.3156
        63        2.0000           -0.4463890             -12.1469
        64        2.0000           -0.4358570             -11.8603
        65        2.0000           -0.4320273             -11.7561
        66        2.0000           -0.4036267             -10.9832
        67        2.0000           -0.4027624             -10.9597 (HOMO)
        68                         -0.3410868              -9.2814 (LUMO)
        69                         -0.3025163              -8.2319
        70                         -0.2571704              -6.9980
        71                         -0.2533082              -6.8929
        72                         -0.2328306              -6.3356
        73                         -0.1907643              -5.1910
        74                         -0.1697365              -4.6188
        75                         -0.1590821              -4.3288
        76                         -0.1418920              -3.8611
        77                         -0.1408374              -3.8324
        78                         -0.1392691              -3.7897
       ...                                ...                  ...
       134                          0.7856735              21.3793
      -------------------------------------------------------------
                  HL-Gap            0.0616755 Eh            1.6783 eV

Wiberg/Mayer (AO) data.
largest (>0.10) Wiberg bond orders for each atom

     #   Z sym  total        # sym  WBO       # sym  WBO       # sym  WBO
 ---------------------------------------------------------------------------
     1   6 C    3.987 --     2 C    1.031    28 H    0.983    26 H    0.965
                            27 H    0.963
     2   6 C    3.871 --     3 N    1.616    25 O    1.073     1 C    1.031
     3   7 N    2.981 --     2 C    1.616     4 N    1.193
     4   7 N    2.996 --     5 C    1.627     3 N    1.193
     5   6 C    3.869 --     4 N    1.627    25 O    1.048     6 C    0.985
     6   6 C    3.923 --     7 O    1.563     8 N    1.293     5 C    0.985
     7   8 O    1.883 --     6 C    1.563     8 N    0.184
     8   7 N    3.379 --     6 C    1.293     9 C    0.925    29 H    0.877
                             7 O    0.184
     9   6 C    3.933 --    11 C    0.985    10 C    0.978    12 C    0.977
                             8 N    0.925
    10   6 C    3.991 --    30 H    0.986    31 H    0.985    32 H    0.982
                             9 C    0.978
    11   6 C    3.991 --    34 H    0.986     9 C    0.985    33 H    0.983
                            35 H    0.983
    12   6 C    3.951 --    13 N    1.479    24 N    1.342     9 C    0.977
    13   7 N    3.011 --    12 C    1.479    14 C    1.155
    14   6 C    3.954 --    20 C    1.389    15 C    1.165    13 N    1.155
    15   6 C    3.790 --    16 O    1.800    14 C    1.165    17 O    0.656
    16   8 O    2.088 --    15 C    1.800
    17   8 O    2.457 --    18 C    0.842    19 C    0.835    15 C    0.656
    18   6 C    3.813 --    38 H    0.979    36 H    0.978    37 H    0.978
                            17 O    0.842
    19   6 C    3.809 --    40 H    0.982    41 H    0.977    39 H    0.975
                            17 O    0.835
    20   6 C    3.893 --    14 C    1.389    21 O    1.133    22 C    1.034
    21   8 O    2.111 --    20 C    1.133    42 H    0.780
    22   6 C    3.932 --    23 O    1.497    24 N    1.270    20 C    1.034
    23   8 O    1.849 --    22 C    1.497    24 N    0.134
    24   7 N    2.997 --    12 C    1.342    22 C    1.270    23 O    0.134
    25   8 O    2.315 --     2 C    1.073     5 C    1.048
    26   1 H    0.997 --     1 C    0.965
    27   1 H    0.997 --     1 C    0.963
    28   1 H    0.999 --     1 C    0.983
    29   1 H    0.964 --     8 N    0.877
    30   1 H    1.004 --    10 C    0.986
    31   1 H    1.009 --    10 C    0.985
    32   1 H    1.011 --    10 C    0.982
    33   1 H    1.015 --    11 C    0.983
    34   1 H    1.004 --    11 C    0.986
    35   1 H    1.011 --    11 C    0.983
    36   1 H    0.997 --    18 C    0.978
    37   1 H    0.998 --    18 C    0.978
    38   1 H    1.000 --    18 C    0.979
    39   1 H    1.006 --    19 C    0.975
    40   1 H    0.995 --    19 C    0.982
    41   1 H    0.999 --    19 C    0.977
    42   1 H    0.849 --    21 O    0.780
 ---------------------------------------------------------------------------

           -------------------------------------------------
          | TOTAL ENERGY              -82.934411151414 Eh   |
          | GRADIENT NORM               0.000311040805 Eh/α |
          | HOMO-LUMO GAP               1.678276708595 eV   |
           -------------------------------------------------

 * finished run on 2023/06/20 at 18:28:15.798
