   * xtb version 6.5.1 (579679a) compiled by 'ehlert@majestix' on 2022-07-11
          program call               : /lustre/hpc/kemi/ree/PhD/git/ReactivityQM/dep/xtb-6.5.1/bin/xtb --gfn 1 /lustre/hpc/kemi/ree/PhD/git/ReactivityQM/calculations/R02oxygendeprot/reac02prodN01/conf11/R02oxygendeprot_reac02prodN01_conf11_gfn1.xyz --opt --vfukui --chrg 1 --uhf 0 --alpb DMSO

   ID    Z sym.   atoms
    1    6 C      1, 4
    2    8 O      2, 5
    3    5 B      3
    4    1 H      6-13

      * Solvation model:               ALPB
        Solvent                        DMSO
        Solvent mass                       7.8130E+01 g/mol
          :  Hamiltonian                  GFN1-xTB          :
 * total energy  :   -19.0504813 Eh     change       -0.6563283E-10 Eh
 * total energy  :   -19.0614897 Eh     change       -0.1100843E-01 Eh
 * total energy  :   -19.0641899 Eh     change       -0.2700178E-02 Eh
 * total energy  :   -19.0647875 Eh     change       -0.5975853E-03 Eh
 * total energy  :   -19.0651823 Eh     change       -0.3948280E-03 Eh
 * total energy  :   -19.0652265 Eh     change       -0.4417254E-04 Eh
 * total energy  :   -19.0652481 Eh     change       -0.2161534E-04 Eh
 * total energy  :   -19.0652660 Eh     change       -0.1792375E-04 Eh
 * total energy  :   -19.0652798 Eh     change       -0.1382201E-04 Eh
 * total energy  :   -19.0652942 Eh     change       -0.1441933E-04 Eh
 * total energy  :   -19.0653012 Eh     change       -0.6931981E-05 Eh
 * total energy  :   -19.0653225 Eh     change       -0.2132679E-04 Eh
 * total energy  :   -19.0653342 Eh     change       -0.1165774E-04 Eh
 * total energy  :   -19.0653425 Eh     change       -0.8369801E-05 Eh
 * total energy  :   -19.0653478 Eh     change       -0.5307398E-05 Eh
 * total energy  :   -19.0653542 Eh     change       -0.6392426E-05 Eh
 * total energy  :   -19.0653602 Eh     change       -0.5949983E-05 Eh
 * total energy  :   -19.0653625 Eh     change       -0.2325320E-05 Eh
   *** GEOMETRY OPTIMIZATION CONVERGED AFTER 18 ITERATIONS ***

 final structure:
================
13
 xtb: 6.5.1 (579679a)
C            2.01037269299551        0.22949243082550       -0.48661997932783
O            0.66243119023156       -0.29257724852372       -0.68119176935084
B           -0.54073500434197        0.13697715660446        0.05133151123168
C           -1.86580166771339       -0.56003336997112       -0.34650368744203
O           -0.26188774496638        1.08280979998526        0.93970251996248
H            2.31660673731268        0.74639931218863       -1.39522217964231
H            1.95661985548658        0.91890732693340        0.35307419696947
H            2.67158397410892       -0.60628311154253       -0.26296359211348
H            0.59424675924651       -0.94853898880445       -1.38737103331872
H           -2.29534711096174       -0.06977602456185       -1.22116455283034
H           -2.60124645569540       -0.50520281138720        0.45352602673081
H           -1.70926362572648       -1.60498835409539       -0.60620351637043
H           -0.93757959997627        1.47281488234891        1.49441605550146

          :  Hamiltonian                  GFN1-xTB          :
         :: total energy             -19.065362503514 Eh    ::
         :: gradient norm              0.000583343216 Eh/a0 ::
         :: HOMO-LUMO gap              7.484820808962 eV    ::
         :: SCC energy               -19.256507390024 Eh    ::
         :: -> Gsolv                  -0.095126465044 Eh    ::
         :: repulsion energy           0.194625465128 Eh    ::

    * Orbital Energies and Occupations

         #    Occupation            Energy/Eh            Energy/eV
      -------------------------------------------------------------
         1        2.0000           -0.9096696             -24.7534
       ...           ...                  ...                  ...
         3        2.0000           -0.7656091             -20.8333
         4        2.0000           -0.7557550             -20.5651
         5        2.0000           -0.6871159             -18.6974
         6        2.0000           -0.6731775             -18.3181
         7        2.0000           -0.6639454             -18.0669
         8        2.0000           -0.6502186             -17.6933
         9        2.0000           -0.6223579             -16.9352
        10        2.0000           -0.6042669             -16.4429
        11        2.0000           -0.5659828             -15.4012
        12        2.0000           -0.5534242             -15.0594
        13        2.0000           -0.5444482             -14.8152
        14        2.0000           -0.5432007             -14.7812
        15        2.0000           -0.5240350             -14.2597 (HOMO)
        16                         -0.2489729              -6.7749 (LUMO)
        17                         -0.1893023              -5.1512
        18                         -0.1755974              -4.7782
        19                         -0.1497444              -4.0748
        20                         -0.1267079              -3.4479
        21                         -0.1081983              -2.9442
        22                         -0.0951345              -2.5887
        23                         -0.0796352              -2.1670
        24                         -0.0714676              -1.9447
        25                         -0.0518052              -1.4097
        26                          0.0911855               2.4813
       ...                                ...                  ...
        36                          0.6442410              17.5307
      -------------------------------------------------------------
                  HL-Gap            0.2750621 Eh            7.4848 eV

Wiberg/Mayer (AO) data.
largest (>0.10) Wiberg bond orders for each atom

     #   Z sym  total        # sym  WBO       # sym  WBO       # sym  WBO
 ---------------------------------------------------------------------------
     1   6 C    3.782 --     8 H    0.982     6 H    0.982     7 H    0.978
                             2 O    0.808
     2   8 O    2.394 --     1 C    0.808     3 B    0.767     9 H    0.760
     3   5 B    3.138 --     5 O    1.257     4 C    1.034     2 O    0.767
     4   6 C    3.986 --     3 B    1.034    11 H    0.971    12 H    0.969
                            10 H    0.949
     5   8 O    2.145 --     3 B    1.257    13 H    0.792
     6   1 H    0.995 --     1 C    0.982
     7   1 H    1.000 --     1 C    0.978
     8   1 H    0.995 --     1 C    0.982
     9   1 H    0.789 --     2 O    0.760
    10   1 H    0.991 --     4 C    0.949
    11   1 H    0.992 --     4 C    0.971
    12   1 H    0.992 --     4 C    0.969
    13   1 H    0.812 --     5 O    0.792
 ---------------------------------------------------------------------------

           -------------------------------------------------
          | TOTAL ENERGY              -19.065362503514 Eh   |
          | GRADIENT NORM               0.000583343216 Eh/α |
          | HOMO-LUMO GAP               7.484820808962 eV   |
           -------------------------------------------------

 * finished run on 2023/06/21 at 17:40:21.533
