   * xtb version 6.5.1 (579679a) compiled by 'ehlert@majestix' on 2022-07-11
          program call               : /lustre/hpc/kemi/ree/PhD/git/ReactivityQM/dep/xtb-6.5.1/bin/xtb --gfn 1 /lustre/hpc/kemi/ree/PhD/git/ReactivityQM/calculations/R02methylcation/reac01prodN03/conf02/R02methylcation_reac01prodN03_conf02_gfn1.xyz --opt --vfukui --chrg 0 --uhf 0 --alpb DMSO

   ID    Z sym.   atoms
    1    6 C      1, 3, 5, 6, 8-11, 13, 15, 18, 19, 22, 24
    2    8 O      2, 4, 14, 20, 23, 25
    3    7 N      7, 12, 16, 17, 21
    4    1 H      26-42

      * Solvation model:               ALPB
        Solvent                        DMSO
        Solvent mass                       7.8130E+01 g/mol
          :  Hamiltonian                  GFN1-xTB          :
 * total energy  :   -82.9867836 Eh     change       -0.7389644E-11 Eh
 * total energy  :   -82.9971115 Eh     change       -0.1032788E-01 Eh
 * total energy  :   -83.0012964 Eh     change       -0.4184920E-02 Eh
 * total energy  :   -83.0021895 Eh     change       -0.8930728E-03 Eh
 * total energy  :   -83.0028047 Eh     change       -0.6151972E-03 Eh
 * total energy  :   -83.0031722 Eh     change       -0.3674907E-03 Eh
 * total energy  :   -83.0034353 Eh     change       -0.2630735E-03 Eh
 * total energy  :   -83.0036274 Eh     change       -0.1921383E-03 Eh
 * total energy  :   -83.0037863 Eh     change       -0.1588572E-03 Eh
 * total energy  :   -83.0039352 Eh     change       -0.1489146E-03 Eh
 * total energy  :   -83.0046172 Eh     change       -0.6613977E-05 Eh
 * total energy  :   -83.0046229 Eh     change       -0.5673402E-05 Eh
 * total energy  :   -83.0046285 Eh     change       -0.5576967E-05 Eh
 * total energy  :   -83.0046353 Eh     change       -0.6835245E-05 Eh
 * total energy  :   -83.0046438 Eh     change       -0.8508146E-05 Eh
 * total energy  :   -83.0046520 Eh     change       -0.8216814E-05 Eh
 * total energy  :   -83.0046624 Eh     change       -0.1030191E-04 Eh
 * total energy  :   -83.0046728 Eh     change       -0.1045795E-04 Eh
 * total energy  :   -83.0046777 Eh     change       -0.4850431E-05 Eh
   *** GEOMETRY OPTIMIZATION CONVERGED AFTER 37 ITERATIONS ***

 final structure:
================
42
 xtb: 6.5.1 (579679a)
C            2.75263494350333        2.05855740226249        2.38744540279017
O            2.48798605163179        1.14342363819358        1.31019042481441
C            2.45478900967361        1.65266450977802        0.09441392399182
O            2.65816361471684        2.80193862320625       -0.18452180946080
C            2.13870539998044        0.56398650270685       -0.97092658728487
C            1.92113358196240        1.24077516061015       -2.32475587698768
N            0.92139485030416       -0.09107751645211       -0.54873309796173
C            0.94365615385145       -1.18088959548977        0.09829342144436
C           -0.35196959241728       -1.82445735904999        0.55448585753641
C           -0.51770430330628       -3.18745028834352       -0.13324296697410
C           -0.36142950439202       -1.96229254416140        2.08375056380944
N           -1.42893685476628       -0.92874290542360        0.14305302464787
C           -2.73164313948429       -1.17502501537518        0.37120059690404
O           -3.18053438903071       -2.17547613745244        0.90907695505663
C           -3.61732683130760       -0.08034391109539       -0.10161191187118
N           -4.91009306457495       -0.02615953830156       -0.01736987468473
N           -5.29046242959242        1.16670621649788       -0.55484719224872
C           -4.20631512629174        1.76851074579136       -0.93319656913209
C           -4.08741727436612        3.09885312407489       -1.56850088174708
O           -3.11126674286645        1.03282219510438       -0.67661696652169
N            2.10757541517194       -1.86122912601730        0.42687765664420
C            3.34973453128265       -1.51879420138549       -0.02001450543761
O            4.34624389231964       -2.12486890157552        0.29945438725400
C            3.36360888215451       -0.32930319367262       -0.98676170716832
O            4.31520554907570       -0.11119407862416       -1.68949969196101
H            3.73313383758199        2.51813485701527        2.25041830868650
H            1.98391630880423        2.83242108180583        2.40884022919893
H            2.72827467508035        1.47033030743972        3.30115843073037
H            1.09737204974506        1.94603350792759       -2.24711031058475
H            1.68353229323424        0.49056782105789       -3.07551762109962
H            2.82563002357090        1.77219193120737       -2.61560574730106
H           -1.42938765025376       -3.66806176951809        0.21706513594568
H           -0.57532007269372       -3.05335073422867       -1.21216940746362
H            0.32956610588757       -3.82787652747625        0.10207545755194
H           -1.30983649531388       -2.38859839119450        2.40608740212682
H           -0.23345212783028       -0.98409919830283        2.54398749678382
H            0.44261823882912       -2.61850901063020        2.40886501402062
H           -1.14834438180081       -0.06570508364334       -0.30512882180711
H           -3.59479685136025        3.00808740972713       -2.53601227680283
H           -5.07690258983504        3.52963942640810       -1.70124918635808
H           -3.48412398506520        3.75651129037679       -0.94322838126727
H            2.06238699818324       -2.66864872378286        1.02988170217977

          :  Hamiltonian                  GFN1-xTB          :
         :: total energy             -83.004677658911 Eh    ::
         :: gradient norm              0.000421301948 Eh/a0 ::
         :: HOMO-LUMO gap              2.454587845778 eV    ::
         :: SCC energy               -83.792592461696 Eh    ::
         :: -> Gsolv                  -0.054464380397 Eh    ::
         :: repulsion energy           0.814898398786 Eh    ::

    * Orbital Energies and Occupations

         #    Occupation            Energy/Eh            Energy/eV
      -------------------------------------------------------------
         1        2.0000           -0.8654632             -23.5505
       ...           ...                  ...                  ...
        55        2.0000           -0.5118251             -13.9275
        56        2.0000           -0.5065458             -13.7838
        57        2.0000           -0.5049330             -13.7399
        58        2.0000           -0.5043360             -13.7237
        59        2.0000           -0.4972434             -13.5307
        60        2.0000           -0.4800984             -13.0641
        61        2.0000           -0.4721159             -12.8469
        62        2.0000           -0.4640877             -12.6285
        63        2.0000           -0.4618780             -12.5683
        64        2.0000           -0.4585574             -12.4780
        65        2.0000           -0.4517199             -12.2919
        66        2.0000           -0.4480669             -12.1925
        67        2.0000           -0.4426963             -12.0464 (HOMO)
        68                         -0.3524918              -9.5918 (LUMO)
        69                         -0.3101174              -8.4387
        70                         -0.2994443              -8.1483
        71                         -0.2715195              -7.3884
        72                         -0.2569826              -6.9929
        73                         -0.2273624              -6.1868
        74                         -0.1978696              -5.3843
        75                         -0.1464184              -3.9842
        76                         -0.1430545              -3.8927
        77                         -0.1426823              -3.8826
        78                         -0.1268317              -3.4513
       ...                                ...                  ...
       134                          0.7600511              20.6820
      -------------------------------------------------------------
                  HL-Gap            0.0902044 Eh            2.4546 eV

Wiberg/Mayer (AO) data.
largest (>0.10) Wiberg bond orders for each atom

     #   Z sym  total        # sym  WBO       # sym  WBO       # sym  WBO
 ---------------------------------------------------------------------------
     1   6 C    3.854 --    28 H    0.985    27 H    0.980    26 H    0.980
                             2 O    0.876
     2   8 O    2.213 --     3 C    1.150     1 C    0.876     4 O    0.139
     3   6 C    3.843 --     4 O    1.706     2 O    1.150     5 C    0.864
     4   8 O    1.986 --     3 C    1.706     2 O    0.139
     5   6 C    3.962 --     6 C    0.980     7 N    0.976    24 C    0.955
                             3 C    0.864
     6   6 C    3.983 --    30 H    0.984    29 H    0.984    31 H    0.982
                             5 C    0.980
     7   7 N    3.047 --     8 C    1.750     5 C    0.976
     8   6 C    3.928 --     7 N    1.750    21 N    1.073     9 C    0.980
     9   6 C    3.939 --     8 C    0.980    11 C    0.978    10 C    0.977
                            12 N    0.937
    10   6 C    3.986 --    33 H    0.985    34 H    0.984     9 C    0.977
                            32 H    0.977
    11   6 C    3.987 --    36 H    0.985    37 H    0.982     9 C    0.978
                            35 H    0.977
    12   7 N    3.358 --    13 C    1.267     9 C    0.937    38 H    0.877
                            14 O    0.179
    13   6 C    3.918 --    14 O    1.577    12 N    1.267    15 C    0.991
    14   8 O    1.898 --    13 C    1.577    12 N    0.179
    15   6 C    3.872 --    16 N    1.624    20 O    1.047    13 C    0.991
    16   7 N    2.999 --    15 C    1.624    17 N    1.198
    17   7 N    2.982 --    18 C    1.612    16 N    1.198
    18   6 C    3.869 --    17 N    1.612    20 O    1.072    19 C    1.031
    19   6 C    3.986 --    18 C    1.031    40 H    0.982    39 H    0.964
                            41 H    0.963
    20   8 O    2.315 --    18 C    1.072    15 C    1.047
    21   7 N    3.428 --    22 C    1.181     8 C    1.073    42 H    0.880
                            23 O    0.147
    22   6 C    3.891 --    23 O    1.677    21 N    1.181    24 C    0.907
    23   8 O    1.960 --    22 C    1.677    21 N    0.147
    24   6 C    3.848 --    25 O    1.811     5 C    0.955    22 C    0.907
    25   8 O    2.024 --    24 C    1.811
    26   1 H    1.004 --     1 C    0.980
    27   1 H    1.003 --     1 C    0.980
    28   1 H    1.008 --     1 C    0.985
    29   1 H    1.003 --     6 C    0.984
    30   1 H    1.000 --     6 C    0.984
    31   1 H    1.006 --     6 C    0.982
    32   1 H    1.008 --    10 C    0.977
    33   1 H    1.001 --    10 C    0.985
    34   1 H    0.999 --    10 C    0.984
    35   1 H    1.006 --    11 C    0.977
    36   1 H    1.001 --    11 C    0.985
    37   1 H    0.998 --    11 C    0.982
    38   1 H    0.955 --    12 N    0.877
    39   1 H    0.997 --    19 C    0.964
    40   1 H    0.998 --    19 C    0.982
    41   1 H    0.997 --    19 C    0.963
    42   1 H    0.928 --    21 N    0.880
 ---------------------------------------------------------------------------

           -------------------------------------------------
          | TOTAL ENERGY              -83.004677658911 Eh   |
          | GRADIENT NORM               0.000421301948 Eh/α |
          | HOMO-LUMO GAP               2.454587845778 eV   |
           -------------------------------------------------

 * finished run on 2023/06/21 at 17:32:38.352
