   * xtb version 6.5.1 (579679a) compiled by 'ehlert@majestix' on 2022-07-11
          program call               : /lustre/hpc/kemi/ree/PhD/git/ReactivityQM/dep/xtb-6.5.1/bin/xtb --gfn 1 /lustre/hpc/kemi/ree/PhD/git/ReactivityQM/calculations/R01/reac02prodN05/conf15/R01_reac02prodN05_conf15_gfn1.xyz --opt --vfukui --chrg 1 --uhf 0 --alpb DMSO

   ID    Z sym.   atoms
    1    6 C      1, 3, 4, 6, 8-11, 14, 16
    2    8 O      2, 5, 15, 17
    3    7 N      7, 12, 13
    4    1 H      18-33

      * Solvation model:               ALPB
        Solvent                        DMSO
        Solvent mass                       7.8130E+01 g/mol
          :  Hamiltonian                  GFN1-xTB          :
 * total energy  :   -57.7101035 Eh     change       -0.2002309E-10 Eh
 * total energy  :   -57.7248080 Eh     change       -0.1470455E-01 Eh
 * total energy  :   -57.7318929 Eh     change       -0.7084898E-02 Eh
 * total energy  :   -57.7337405 Eh     change       -0.1847588E-02 Eh
 * total energy  :   -57.7354864 Eh     change       -0.1745879E-02 Eh
 * total energy  :   -57.7367500 Eh     change       -0.1263665E-02 Eh
 * total energy  :   -57.7380721 Eh     change       -0.1322037E-02 Eh
 * total energy  :   -57.7396476 Eh     change       -0.1575485E-02 Eh
 * total energy  :   -57.7417916 Eh     change       -0.2144017E-02 Eh
 * total energy  :   -57.7451577 Eh     change       -0.3366080E-02 Eh
 * total energy  :   -57.8207043 Eh     change       -0.4710683E-04 Eh
 * total energy  :   -57.8207308 Eh     change       -0.2650655E-04 Eh
 * total energy  :   -57.8207486 Eh     change       -0.1777340E-04 Eh
 * total energy  :   -57.8207543 Eh     change       -0.5635264E-05 Eh
 * total energy  :   -57.8207602 Eh     change       -0.5961569E-05 Eh
 * total energy  :   -57.8207635 Eh     change       -0.3271122E-05 Eh
 * total energy  :   -57.8207688 Eh     change       -0.5292482E-05 Eh
 * total energy  :   -57.8207658 Eh     change        0.2935378E-05 Eh
 * total energy  :   -57.8207702 Eh     change       -0.4404563E-05 Eh
   *** GEOMETRY OPTIMIZATION CONVERGED AFTER 76 ITERATIONS ***

 final structure:
================
33
 xtb: 6.5.1 (579679a)
C           -4.13472861368071        1.33069398170696       -0.82112892149801
O           -3.20818447497166        0.47105898705450       -0.11259589826428
C           -1.95379823934575        0.50705243008840       -0.39352199789206
C           -1.91099825270229       -0.66273500426837        1.91787546077416
O           -1.35653571017535        1.14298486560580       -1.19822802368365
C           -1.15236381570192       -0.53508931592193        0.59889202357550
N            0.11870825048547        0.07509046785665        0.77598303569278
C            1.07771226358956       -0.18210733197071       -0.03083906939510
C            2.42979817493938        0.48130324375875        0.12894127784034
C            3.11839676395507       -0.16341729654126        1.33985655416519
C            2.23681252971032        1.98786558022994        0.34668115515817
N            3.20720809871787        0.20358630691807       -1.07117148155205
N            0.99396467644227       -1.10794633375202       -1.04900808493181
C           -0.05603744458694       -1.93289637700900       -1.24575133364013
O           -0.14201876756858       -2.81659032338246       -2.07050657308810
C           -1.17343559128368       -1.68551569191997       -0.28296856004764
O           -2.18152768172782       -2.46967926296370       -0.34306842263246
H           -4.62315178241937        1.95864342455127       -0.07697996104039
H           -4.86049136869191        0.68070831085769       -1.30803039967637
H           -3.59804022987676        1.93482791504294       -1.55235961102847
H           -2.88158060054732       -1.12345456809929        1.75266908685258
H           -2.03791673358126        0.32181983143400        2.36153702656124
H           -1.32225708610194       -1.28420733194877        2.58995661170556
H            3.27871736142298       -1.22474250038888        1.15621249246960
H            2.49660190586653       -0.04502296945255        2.22629952791995
H            4.08002425581213        0.31700388840781        1.51178677153674
H            1.63709702138152        2.15825948361123        1.23999948857477
H            3.20716706024403        2.46601343919321        0.46546855211357
H            1.72629490277484        2.42590674175525       -0.50971536492047
H            3.03981141378240        0.91649481928206       -1.76815444604903
H            4.19383334608430        0.20149033304228       -0.85585573347096
H            1.84168135858656       -1.19656305894256       -1.61458477986861
H           -2.09076399083101       -3.15083668383724       -1.04878540225980

          :  Hamiltonian                  GFN1-xTB          :
         :: total energy             -57.820770248794 Eh    ::
         :: gradient norm              0.000788371171 Eh/a0 ::
         :: HOMO-LUMO gap              0.396071503449 eV    ::
         :: SCC energy               -58.400609843445 Eh    ::
         :: -> Gsolv                  -0.092647480226 Eh    ::
         :: repulsion energy           0.599447094638 Eh    ::

    * Orbital Energies and Occupations

         #    Occupation            Energy/Eh            Energy/eV
      -------------------------------------------------------------
         1        2.0000           -0.9129884             -24.8437
       ...           ...                  ...                  ...
        35        2.0000           -0.5531930             -15.0531
        36        2.0000           -0.5480618             -14.9135
        37        2.0000           -0.5392280             -14.6731
        38        2.0000           -0.5298427             -14.4178
        39        2.0000           -0.5286661             -14.3857
        40        2.0000           -0.5262437             -14.3198
        41        2.0000           -0.5212619             -14.1843
        42        2.0000           -0.5175801             -14.0841
        43        2.0000           -0.5043292             -13.7235
        44        2.0000           -0.5010053             -13.6330
        45        2.0000           -0.4918411             -13.3837
        46        2.0000           -0.4826371             -13.1332
        47        1.9991           -0.4348069             -11.8317 (HOMO)
        48        0.0009           -0.4202516             -11.4356 (LUMO)
        49                         -0.3293268              -8.9614
        50                         -0.3031853              -8.2501
        51                         -0.2599993              -7.0749
        52                         -0.1657930              -4.5115
        53                         -0.1531000              -4.1661
        54                         -0.1503520              -4.0913
        55                         -0.1357680              -3.6944
        56                         -0.1316814              -3.5832
        57                         -0.1184266              -3.2226
        58                         -0.1103590              -3.0030
       ...                                ...                  ...
       100                          0.7545465              20.5323
      -------------------------------------------------------------
                  HL-Gap            0.0145554 Eh            0.3961 eV

Wiberg/Mayer (AO) data.
largest (>0.10) Wiberg bond orders for each atom

     #   Z sym  total        # sym  WBO       # sym  WBO       # sym  WBO
 ---------------------------------------------------------------------------
     1   6 C    3.812 --    20 H    0.981    18 H    0.976    19 H    0.975
                             2 O    0.831
     2   8 O    2.273 --     3 C    1.231     1 C    0.831     5 O    0.150
     3   6 C    3.858 --     5 O    1.745     2 O    1.231     6 C    0.680
     4   6 C    3.970 --    22 H    0.981    21 H    0.981    23 H    0.974
                             6 C    0.962
     5   8 O    2.074 --     3 C    1.745     2 O    0.150
     6   6 C    3.956 --    16 C    1.106     7 N    1.030     4 C    0.962
                             3 C    0.680
     7   7 N    3.021 --     8 C    1.672     6 C    1.030
     8   6 C    3.901 --     7 N    1.672    13 N    1.110     9 C    0.975
     9   6 C    3.961 --    12 N    0.993    11 C    0.979     8 C    0.975
                            10 C    0.974
    10   6 C    3.989 --    24 H    0.985    25 H    0.985    26 H    0.981
                             9 C    0.974
    11   6 C    3.991 --    29 H    0.984    28 H    0.984    27 H    0.983
                             9 C    0.979
    12   7 N    2.997 --     9 C    0.993    30 H    0.933    31 H    0.929
    13   7 N    3.494 --    14 C    1.213     8 C    1.110    32 H    0.836
                            15 O    0.168
    14   6 C    3.924 --    15 O    1.624    13 N    1.213    16 C    0.974
    15   8 O    1.963 --    14 C    1.624    13 N    0.168
    16   6 C    3.807 --    17 O    1.347     6 C    1.106    14 C    0.974
    17   8 O    2.271 --    16 C    1.347    33 H    0.746
    18   1 H    1.000 --     1 C    0.976
    19   1 H    1.000 --     1 C    0.975
    20   1 H    0.998 --     1 C    0.981
    21   1 H    1.000 --     4 C    0.981
    22   1 H    0.997 --     4 C    0.981
    23   1 H    0.996 --     4 C    0.974
    24   1 H    1.000 --    10 C    0.985
    25   1 H    1.003 --    10 C    0.985
    26   1 H    0.998 --    10 C    0.981
    27   1 H    1.006 --    11 C    0.983
    28   1 H    1.000 --    11 C    0.984
    29   1 H    1.001 --    11 C    0.984
    30   1 H    0.946 --    12 N    0.933
    31   1 H    0.943 --    12 N    0.929
    32   1 H    0.931 --    13 N    0.836
    33   1 H    0.791 --    17 O    0.746
 ---------------------------------------------------------------------------

           -------------------------------------------------
          | TOTAL ENERGY              -57.820770248794 Eh   |
          | GRADIENT NORM               0.000788371171 Eh/α |
          | HOMO-LUMO GAP               0.396071503449 eV   |
           -------------------------------------------------

 * finished run on 2023/06/20 at 15:06:45.833
