   * xtb version 6.5.1 (579679a) compiled by 'ehlert@majestix' on 2022-07-11
          program call               : /lustre/hpc/kemi/ree/PhD/git/ReactivityQM/dep/xtb-6.5.1/bin/xtb --gfn 1 /lustre/hpc/kemi/ree/PhD/git/ReactivityQM/calculations/R03/reac02prodE06/conf20/R03_reac02prodE06_conf20_gfn1.xyz --opt --vfukui --chrg -1 --uhf 0 --alpb DMSO

   ID    Z sym.   atoms
    1    6 C      1, 3, 5, 6, 8, 11-16, 18, 20, 23, 24
    2    8 O      2, 4, 7, 9, 19, 25
    3    7 N      10, 17, 21, 22, 26
    4    1 H      27-46

      * Solvation model:               ALPB
        Solvent                        DMSO
        Solvent mass                       7.8130E+01 g/mol
          :  Hamiltonian                  GFN1-xTB          :
 * total energy  :   -87.0374505 Eh     change       -0.1161027E-10 Eh
 * total energy  :   -87.0509796 Eh     change       -0.1352905E-01 Eh
 * total energy  :   -87.0566366 Eh     change       -0.5657027E-02 Eh
 * total energy  :   -87.0577216 Eh     change       -0.1084999E-02 Eh
 * total energy  :   -87.0581681 Eh     change       -0.4464967E-03 Eh
 * total energy  :   -87.0583151 Eh     change       -0.1470217E-03 Eh
 * total energy  :   -87.0584014 Eh     change       -0.8631124E-04 Eh
 * total energy  :   -87.0584683 Eh     change       -0.6692882E-04 Eh
 * total energy  :   -87.0585199 Eh     change       -0.5160020E-04 Eh
 * total energy  :   -87.0585565 Eh     change       -0.3652879E-04 Eh
 * total energy  :   -87.0586523 Eh     change       -0.1363212E-04 Eh
 * total energy  :   -87.0586729 Eh     change       -0.2058282E-04 Eh
 * total energy  :   -87.0586835 Eh     change       -0.1060459E-04 Eh
 * total energy  :   -87.0586912 Eh     change       -0.7737186E-05 Eh
 * total energy  :   -87.0587020 Eh     change       -0.1081035E-04 Eh
 * total energy  :   -87.0587104 Eh     change       -0.8338343E-05 Eh
 * total energy  :   -87.0587194 Eh     change       -0.9007095E-05 Eh
 * total energy  :   -87.0587246 Eh     change       -0.5250159E-05 Eh
 * total energy  :   -87.0587283 Eh     change       -0.3639295E-05 Eh
   *** GEOMETRY OPTIMIZATION CONVERGED AFTER 23 ITERATIONS ***

 final structure:
================
46
 xtb: 6.5.1 (579679a)
C           -6.37369585476748        1.68257438543934       -0.18423083695763
O           -5.24178940345233        0.86711212913127       -0.48758596803061
C           -4.22503315781146        0.91333368658417        0.40285202639123
O           -4.30070824593743        1.60930675319647        1.39523362970153
C           -3.04655056667754        0.07608545187388        0.04836256377370
C           -3.03061147117283       -0.88635629648256       -0.95920240861320
O           -4.09984583076305       -1.19298582065446       -1.79894982497799
C           -1.90709865207559       -1.77422624384526       -1.07580743990904
O           -1.87752693985534       -2.78110799767369       -1.80736760259827
N           -0.81317614570920       -1.46328786089001       -0.28285668016067
C            0.27376949292064       -2.43800250849203       -0.25631098392203
C           -0.74362729223108       -0.28786943458748        0.59481564904297
C           -0.17789253519521       -0.69884867665855        1.96895367914790
C            0.16594704430934        0.84741813336829       -0.08470931151404
C           -0.30772352550995        1.08846352439985       -1.52330625168620
C            0.04272849928331        2.15852368382051        0.69673327984716
N            1.56344875741769        0.43027222886443       -0.19019334571718
C            2.54648380372309        0.55107600066835        0.72194206164448
O            2.45870939071172        1.04369283166045        1.84010776114555
C            3.80761157071437       -0.03122803954526        0.19354975776636
N            3.94603343341094       -0.64682061683336       -0.94505975294171
N            5.25362064015263       -1.03126794420907       -1.02853731973569
C            5.82752058216001       -0.62694390299542        0.06123560718685
C            7.24565073790510       -0.79739510045478        0.44955436891992
O            4.97013448661502        0.01050442278097        0.87549783536002
N           -2.01314022863067        0.32122934627183        0.85036714386596
H           -6.78793614368044        1.41110334381592        0.79050932132042
H           -7.11091666239960        1.50709314824328       -0.96474037590912
H           -6.08672098111239        2.73737741497025       -0.17028361962233
H           -4.81280735010531       -0.54902707186499       -1.69663663407906
H            0.14530210605067       -3.15482280625340        0.56139580734608
H            0.27672830014154       -2.98451737841209       -1.20174533873317
H            1.23582315599793       -1.94110524112441       -0.14108040869854
H           -0.79480515431873       -1.49999378423395        2.37477712896059
H            0.85234888253437       -1.03845185918330        1.91369554973795
H           -0.23360745022989        0.15115015757999        2.64578395447466
H           -0.20610128603828        0.18327898495343       -2.12102263730059
H            0.28751043703883        1.87682575913561       -1.98239009333867
H           -1.35235126000184        1.39572057317288       -1.52508663796814
H            0.32802022016181        2.04131014374054        1.73924939793930
H            0.67564758753926        2.92183571006367        0.24565278030988
H           -0.99475464750697        2.49020227043685        0.66052786345974
H            1.83473429212527        0.02242027806516       -1.07406250968477
H            7.31484443112501       -1.36852691003325        1.37507122390798
H            7.70678565298751        0.17526420655488        0.61836553265261
H            7.77901728015626       -1.32038707436857       -0.34018694180995

          :  Hamiltonian                  GFN1-xTB          :
         :: total energy             -87.058728262926 Eh    ::
         :: gradient norm              0.000595118773 Eh/a0 ::
         :: HOMO-LUMO gap              0.664502888742 eV    ::
         :: SCC energy               -87.849346280252 Eh    ::
         :: -> Gsolv                  -0.112890258014 Eh    ::
         :: repulsion energy           0.822179754015 Eh    ::

    * Orbital Energies and Occupations

         #    Occupation            Energy/Eh            Energy/eV
      -------------------------------------------------------------
         1        2.0000           -0.8523230             -23.1929
       ...           ...                  ...                  ...
        59        2.0000           -0.4722341             -12.8501
        60        2.0000           -0.4695910             -12.7782
        61        2.0000           -0.4685253             -12.7492
        62        2.0000           -0.4498848             -12.2420
        63        2.0000           -0.4479428             -12.1891
        64        2.0000           -0.4452227             -12.1151
        65        2.0000           -0.4371036             -11.8942
        66        2.0000           -0.4363325             -11.8732
        67        2.0000           -0.4225606             -11.4985
        68        2.0000           -0.3991355             -10.8610
        69        2.0000           -0.3885247             -10.5723
        70        2.0000           -0.3748392             -10.1999
        71        2.0000           -0.3200079              -8.7079 (HOMO)
        72        0.0000           -0.2955879              -8.0434 (LUMO)
        73                         -0.2682001              -7.2981
        74                         -0.2475896              -6.7373
        75                         -0.1901075              -5.1731
        76                         -0.1838121              -5.0018
        77                         -0.1386134              -3.7719
        78                         -0.1261910              -3.4338
        79                         -0.1156086              -3.1459
        80                         -0.1146748              -3.1205
        81                         -0.1132500              -3.0817
        82                         -0.1006543              -2.7389
       ...                                ...                  ...
       144                          0.7383877              20.0926
      -------------------------------------------------------------
                  HL-Gap            0.0244200 Eh            0.6645 eV

Wiberg/Mayer (AO) data.
largest (>0.10) Wiberg bond orders for each atom

     #   Z sym  total        # sym  WBO       # sym  WBO       # sym  WBO
 ---------------------------------------------------------------------------
     1   6 C    3.883 --    28 H    0.987    29 H    0.981    27 H    0.981
                             2 O    0.905
     2   8 O    2.187 --     3 C    1.060     1 C    0.905     4 O    0.119
     3   6 C    3.818 --     4 O    1.650     2 O    1.060     5 C    1.012
     4   8 O    1.905 --     3 C    1.650     2 O    0.119
     5   6 C    3.969 --    26 N    1.381     6 C    1.349     3 C    1.012
     6   6 C    3.846 --     5 C    1.349     8 C    1.156     7 O    0.984
                            26 N    0.175
     7   8 O    1.957 --     6 C    0.984    30 H    0.843
     8   6 C    3.917 --     9 O    1.475     6 C    1.156    10 N    1.128
     9   8 O    1.793 --     8 C    1.475    10 N    0.125
    10   7 N    3.296 --     8 C    1.128    11 C    0.959    12 C    0.924
                             9 O    0.125
    11   6 C    3.962 --    33 H    0.983    31 H    0.982    32 H    0.978
                            10 N    0.959
    12   6 C    3.939 --    26 N    1.027    13 C    0.986    10 N    0.924
                            14 C    0.892
    13   6 C    3.995 --    12 C    0.986    34 H    0.985    35 H    0.984
                            36 H    0.981
    14   6 C    3.915 --    16 C    1.001    15 C    1.000    17 N    0.923
                            12 C    0.892
    15   6 C    3.995 --    14 C    1.000    38 H    0.986    37 H    0.982
                            39 H    0.982
    16   6 C    3.993 --    14 C    1.001    41 H    0.986    42 H    0.981
                            40 H    0.978
    17   7 N    3.374 --    18 C    1.262    14 C    0.923    43 H    0.902
                            19 O    0.179
    18   6 C    3.916 --    19 O    1.551    17 N    1.262    20 C    0.994
    19   8 O    1.877 --    18 C    1.551    17 N    0.179
    20   6 C    3.857 --    21 N    1.596    25 O    1.057    18 C    0.994
    21   7 N    2.995 --    20 C    1.596    22 N    1.189
    22   7 N    2.980 --    23 C    1.617    21 N    1.189
    23   6 C    3.869 --    22 N    1.617    25 O    1.077    24 C    1.030
    24   6 C    3.988 --    23 C    1.030    46 H    0.983    45 H    0.965
                            44 H    0.965
    25   8 O    2.314 --    23 C    1.077    20 C    1.057
    26   7 N    2.905 --     5 C    1.381    12 C    1.027     6 C    0.175
    27   1 H    1.012 --     1 C    0.981
    28   1 H    1.012 --     1 C    0.987
    29   1 H    1.011 --     1 C    0.981
    30   1 H    0.890 --     7 O    0.843
    31   1 H    1.007 --    11 C    0.982
    32   1 H    1.021 --    11 C    0.978
    33   1 H    1.016 --    11 C    0.983
    34   1 H    1.012 --    13 C    0.985
    35   1 H    1.007 --    13 C    0.984
    36   1 H    1.018 --    13 C    0.981
    37   1 H    1.007 --    15 C    0.982
    38   1 H    1.004 --    15 C    0.986
    39   1 H    1.010 --    15 C    0.982
    40   1 H    1.020 --    16 C    0.978
    41   1 H    1.004 --    16 C    0.986
    42   1 H    1.024 --    16 C    0.981
    43   1 H    0.967 --    17 N    0.902
    44   1 H    0.998 --    24 C    0.965
    45   1 H    0.998 --    24 C    0.965
    46   1 H    1.000 --    24 C    0.983
 ---------------------------------------------------------------------------

           -------------------------------------------------
          | TOTAL ENERGY              -87.058728262926 Eh   |
          | GRADIENT NORM               0.000595118773 Eh/α |
          | HOMO-LUMO GAP               0.664502888742 eV   |
           -------------------------------------------------

 * finished run on 2023/06/20 at 15:20:15.014
