   * xtb version 6.5.1 (579679a) compiled by 'ehlert@majestix' on 2022-07-11
          program call               : /lustre/hpc/kemi/ree/PhD/git/ReactivityQM/dep/xtb-6.5.1/bin/xtb --gfn 1 /lustre/hpc/kemi/ree/PhD/git/ReactivityQM/calculations/R02oxygendeprot/reac01prodN02/conf16/R02oxygendeprot_reac01prodN02_conf16_gfn1.xyz --opt --vfukui --chrg 0 --uhf 0 --alpb DMSO

   ID    Z sym.   atoms
    1    6 C      1, 3, 5, 7-10, 12, 14, 15, 18, 19, 22, 24
    2    8 O      2, 4, 13, 20, 23, 25
    3    7 N      6, 11, 16, 17, 21
    4    1 H      26-42

      * Solvation model:               ALPB
        Solvent                        DMSO
        Solvent mass                       7.8130E+01 g/mol
          :  Hamiltonian                  GFN1-xTB          :
 * total energy  :   -82.9418964 Eh     change       -0.2428635E-10 Eh
 * total energy  :   -82.9600443 Eh     change       -0.1814792E-01 Eh
 * total energy  :   -82.9678389 Eh     change       -0.7794629E-02 Eh
 * total energy  :   -82.9690646 Eh     change       -0.1225668E-02 Eh
 * total energy  :   -82.9698875 Eh     change       -0.8229323E-03 Eh
 * total energy  :   -82.9702012 Eh     change       -0.3137049E-03 Eh
 * total energy  :   -82.9704856 Eh     change       -0.2843999E-03 Eh
 * total energy  :   -82.9707028 Eh     change       -0.2171327E-03 Eh
 * total energy  :   -82.9708468 Eh     change       -0.1440794E-03 Eh
 * total energy  :   -82.9709668 Eh     change       -0.1199199E-03 Eh
 * total energy  :   -82.9715683 Eh     change       -0.1309211E-04 Eh
 * total energy  :   -82.9715791 Eh     change       -0.1076654E-04 Eh
 * total energy  :   -82.9715895 Eh     change       -0.1041223E-04 Eh
 * total energy  :   -82.9715976 Eh     change       -0.8136361E-05 Eh
 * total energy  :   -82.9716038 Eh     change       -0.6182201E-05 Eh
 * total energy  :   -82.9716093 Eh     change       -0.5498876E-05 Eh
 * total energy  :   -82.9716149 Eh     change       -0.5645594E-05 Eh
 * total energy  :   -82.9716202 Eh     change       -0.5248902E-05 Eh
 * total energy  :   -82.9716241 Eh     change       -0.3894155E-05 Eh
   *** GEOMETRY OPTIMIZATION CONVERGED AFTER 35 ITERATIONS ***

 final structure:
================
42
 xtb: 6.5.1 (579679a)
C            6.68299258816393        1.50020354445952        0.86292723142604
O            5.51365223152455        1.44143437495207        0.05514186925684
C            4.49800763721693        0.68996986259782        0.53702404647820
O            4.60221707664515        0.10057547547605        1.60475885524348
C            3.31227026524433        0.65391417085724       -0.31300907325565
N            2.30922928325142       -0.13660931933492        0.20903810201730
C            1.19916255497263       -0.28039940521582       -0.40967124649267
C            0.13064827950844       -1.19778990910043        0.14443484788202
C            0.01523985145669       -2.44255702001045       -0.74456054062223
C            0.45836525496514       -1.56080047599579        1.59370198582741
N           -1.15113193429587       -0.44759073854575        0.10407475577329
C           -2.32871259395440       -0.89823020596435        0.45537646890655
O           -2.43885697676820       -2.11099147507133        0.91706651100612
C           -3.69470856410969       -2.68546427728020        1.30777558640937
C           -3.45556763507714       -0.00938492486784        0.30613732057308
N           -4.71581136740407       -0.20160625969629        0.59124290857618
N           -5.36973030099963        0.92767228110574        0.26053316314783
C           -4.48206763425430        1.76004596348527       -0.21301124378436
C           -4.70702840948646        3.12867996949578       -0.71505145975524
O           -3.25550869417422        1.22373194119494       -0.20670943768395
N            0.94712572658392        0.33187741926611       -1.62315691339038
C            1.85409608472405        1.15077985854970       -2.25916323171488
O            1.55927787185506        1.66152872853753       -3.33230364505170
C            3.17868805211687        1.34263785594331       -1.54922265070864
O            4.03434212373813        2.06556595778919       -2.08305788290780
H            7.39865824887399        2.13502093474900        0.34156894161192
H            6.45212656308542        1.92725774959786        1.84361604761295
H            7.10538369788183        0.50053491389080        1.00345740531825
H            0.99187229503869       -2.92164004265948       -0.80351558858596
H           -0.30187345828695       -2.15792187978343       -1.74569944288549
H           -0.69901501400874       -3.15177624399098       -0.33517482909839
H            1.45782890125359       -1.99406055658481        1.62527803064151
H           -0.25633997766960       -2.27943404577247        1.98514891390118
H            0.44488480563796       -0.66446066053051        2.21160515411904
H           -1.12217324750415        0.50688838410633       -0.23287890849147
H           -4.13117187524054       -2.11030340703491        2.12560594765359
H           -3.46285295492788       -3.69874035866228        1.63020260326388
H           -4.37946298996960       -2.69745454188092        0.45866617261965
H           -5.76272989957223        3.37787408793460       -0.63946619647942
H           -4.38453239164941        3.19768969455595       -1.75435034188077
H           -4.11757473743901        3.83845935687900       -0.13396338838364
H            0.07078226305016        0.18487022255224       -2.09096384809719

          :  Hamiltonian                  GFN1-xTB          :
         :: total energy             -82.971624080428 Eh    ::
         :: gradient norm              0.000342572577 Eh/a0 ::
         :: HOMO-LUMO gap              0.213739103333 eV    ::
         :: SCC energy               -83.747687008656 Eh    ::
         :: -> Gsolv                  -0.104161238404 Eh    ::
         :: repulsion energy           0.801417849821 Eh    ::

    * Orbital Energies and Occupations

         #    Occupation            Energy/Eh            Energy/eV
      -------------------------------------------------------------
         1        2.0000           -0.8978974             -24.4330
       ...           ...                  ...                  ...
        55        2.0000           -0.5075793             -13.8119
        56        2.0000           -0.5028624             -13.6836
        57        2.0000           -0.4982171             -13.5572
        58        2.0000           -0.4919451             -13.3865
        59        2.0000           -0.4835566             -13.1582
        60        2.0000           -0.4797560             -13.0548
        61        2.0000           -0.4699358             -12.7876
        62        2.0000           -0.4670930             -12.7102
        63        2.0000           -0.4520860             -12.3019
        64        2.0000           -0.4438026             -12.0765
        65        2.0000           -0.4299509             -11.6996
        66        2.0000           -0.3889880             -10.5849
        67        1.9685           -0.3768600             -10.2549 (HOMO)
        68        0.0315           -0.3690052             -10.0411 (LUMO)
        69                         -0.2843610              -7.7379
        70                         -0.2790270              -7.5927
        71                         -0.2544931              -6.9251
        72                         -0.2494222              -6.7871
        73                         -0.2056863              -5.5970
        74                         -0.1585280              -4.3138
        75                         -0.1521750              -4.1409
        76                         -0.1363004              -3.7089
        77                         -0.1340224              -3.6469
        78                         -0.1238830              -3.3710
       ...                                ...                  ...
       134                          0.7545460              20.5322
      -------------------------------------------------------------
                  HL-Gap            0.0078548 Eh            0.2137 eV

Wiberg/Mayer (AO) data.
largest (>0.10) Wiberg bond orders for each atom

     #   Z sym  total        # sym  WBO       # sym  WBO       # sym  WBO
 ---------------------------------------------------------------------------
     1   6 C    3.895 --    26 H    0.987    27 H    0.980    28 H    0.980
                             2 O    0.920
     2   8 O    2.168 --     3 C    1.060     1 C    0.920     4 O    0.113
     3   6 C    3.850 --     4 O    1.584     5 C    1.099     2 O    1.060
     4   8 O    1.855 --     3 C    1.584     2 O    0.113
     5   6 C    3.895 --    24 C    1.260     6 N    1.165     3 C    1.099
                            25 O    0.124
     6   7 N    3.036 --     7 C    1.628     5 C    1.165
     7   6 C    3.924 --     6 N    1.628    21 N    1.089     8 C    0.978
     8   6 C    3.893 --    10 C    0.989     9 C    0.979     7 C    0.978
                            11 N    0.875
     9   6 C    3.981 --    30 H    0.983    29 H    0.981    31 H    0.981
                             8 C    0.979
    10   6 C    3.983 --     8 C    0.989    33 H    0.984    34 H    0.984
                            32 H    0.979
    11   7 N    3.471 --    12 C    1.454     8 C    0.875    35 H    0.874
                            13 O    0.108
    12   6 C    3.879 --    11 N    1.454    13 O    1.188    15 C    1.090
    13   8 O    2.270 --    12 C    1.188    14 C    0.864    11 N    0.108
    14   6 C    3.831 --    37 H    0.980    36 H    0.974    38 H    0.974
                            13 O    0.864
    15   6 C    3.881 --    16 N    1.542    12 C    1.090    20 O    1.046
    16   7 N    3.014 --    15 C    1.542    17 N    1.248
    17   7 N    2.986 --    18 C    1.553    16 N    1.248
    18   6 C    3.847 --    17 N    1.553    20 O    1.086    19 C    1.039
    19   6 C    3.979 --    18 C    1.039    39 H    0.980    41 H    0.955
                            40 H    0.955
    20   8 O    2.329 --    18 C    1.086    15 C    1.046
    21   7 N    3.411 --    22 C    1.143     7 C    1.089    42 H    0.896
                            23 O    0.133
    22   6 C    3.871 --    23 O    1.599    21 N    1.143    24 C    0.962
    23   8 O    1.875 --    22 C    1.599    21 N    0.133
    24   6 C    3.937 --    25 O    1.537     5 C    1.260    22 C    0.962
    25   8 O    1.832 --    24 C    1.537     5 C    0.124
    26   1 H    1.015 --     1 C    0.987
    27   1 H    1.013 --     1 C    0.980
    28   1 H    1.013 --     1 C    0.980
    29   1 H    1.000 --     9 C    0.981
    30   1 H    0.999 --     9 C    0.983
    31   1 H    1.003 --     9 C    0.981
    32   1 H    1.012 --    10 C    0.979
    33   1 H    1.004 --    10 C    0.984
    34   1 H    1.004 --    10 C    0.984
    35   1 H    0.925 --    11 N    0.874
    36   1 H    1.009 --    14 C    0.974
    37   1 H    1.003 --    14 C    0.980
    38   1 H    1.008 --    14 C    0.974
    39   1 H    0.995 --    19 C    0.980
    40   1 H    0.992 --    19 C    0.955
    41   1 H    0.992 --    19 C    0.955
    42   1 H    0.940 --    21 N    0.896
 ---------------------------------------------------------------------------

           -------------------------------------------------
          | TOTAL ENERGY              -82.971624080428 Eh   |
          | GRADIENT NORM               0.000342572577 Eh/α |
          | HOMO-LUMO GAP               0.213739103333 eV   |
           -------------------------------------------------

 * finished run on 2023/06/21 at 17:18:11.676
