   * xtb version 6.5.1 (579679a) compiled by 'ehlert@majestix' on 2022-07-11
          program call               : /lustre/hpc/kemi/ree/PhD/git/ReactivityQM/dep/xtb-6.5.1/bin/xtb --gfn 1 /lustre/hpc/kemi/ree/PhD/git/ReactivityQM/calculations/R02deprot/reac01prodN06/conf02/R02deprot_reac01prodN06_conf02_gfn1.xyz --opt --vfukui --chrg 0 --uhf 0 --alpb DMSO

   ID    Z sym.   atoms
    1    6 C      1, 3, 5, 6, 8, 11-14, 16, 18, 21, 22, 25
    2    8 O      2, 4, 7, 9, 17, 23
    3    7 N      10, 15, 19, 20, 24
    4    1 H      26-42

      * Solvation model:               ALPB
        Solvent                        DMSO
        Solvent mass                       7.8130E+01 g/mol
          :  Hamiltonian                  GFN1-xTB          :
 * total energy  :   -82.9756823 Eh     change       -0.1998046E-10 Eh
 * total energy  :   -82.9894601 Eh     change       -0.1377775E-01 Eh
 * total energy  :   -82.9946691 Eh     change       -0.5209036E-02 Eh
 * total energy  :   -82.9959430 Eh     change       -0.1273924E-02 Eh
 * total energy  :   -82.9966925 Eh     change       -0.7494595E-03 Eh
 * total energy  :   -82.9969945 Eh     change       -0.3020162E-03 Eh
 * total energy  :   -82.9971813 Eh     change       -0.1867385E-03 Eh
 * total energy  :   -82.9973129 Eh     change       -0.1316884E-03 Eh
 * total energy  :   -82.9974007 Eh     change       -0.8780506E-04 Eh
 * total energy  :   -82.9974671 Eh     change       -0.6633921E-04 Eh
 * total energy  :   -82.9982036 Eh     change       -0.2236659E-04 Eh
 * total energy  :   -82.9982199 Eh     change       -0.1632568E-04 Eh
 * total energy  :   -82.9982327 Eh     change       -0.1283675E-04 Eh
 * total energy  :   -82.9982462 Eh     change       -0.1349925E-04 Eh
 * total energy  :   -82.9982640 Eh     change       -0.1779611E-04 Eh
 * total energy  :   -82.9982778 Eh     change       -0.1374224E-04 Eh
 * total energy  :   -82.9982860 Eh     change       -0.8238719E-05 Eh
 * total energy  :   -82.9982923 Eh     change       -0.6260638E-05 Eh
 * total energy  :   -82.9982947 Eh     change       -0.2448051E-05 Eh
   *** GEOMETRY OPTIMIZATION CONVERGED AFTER 39 ITERATIONS ***

 final structure:
================
42
 xtb: 6.5.1 (579679a)
C           -5.23488906129405        2.67114334959479        0.03821630190894
O           -4.58229810132358        1.44801447197692       -0.31985163667017
C           -3.26541815311588        1.40923198960942       -0.17426533226183
O           -2.61792258754952        2.34129560826793        0.24922818648337
C           -2.68580178375262        0.10911231983589       -0.63115755083021
C           -3.24135185252040       -0.63619439027321       -1.62730396601963
O           -4.38913524118955       -0.33189129424714       -2.23939412836009
C           -2.56571297494263       -1.84249456714995       -2.13176082322879
O           -3.10752740370632       -2.52393109286692       -2.99559257734697
N           -1.33500073194210       -2.10342654081966       -1.60458059821465
C           -0.82409597936438       -1.37584175890934       -0.64906224040328
C            0.55267668834049       -1.84765620952294       -0.18449150615575
C            0.38618426443222       -2.74219386032147        1.05414553913935
C            1.21871074705263       -2.65914884509067       -1.30764687598244
N            1.39432382367767       -0.67901696781506        0.08518925236705
C            2.62914101261932       -0.75648252602760        0.63644750819050
O            3.13670033961243       -1.75322221855788        1.11361096836369
C            3.28999032953553        0.57322419226033        0.61306597717041
N            2.79293599910197        1.66690044683998        0.11757818313999
N            3.72572298258246        2.64163361112316        0.30409840402069
C            4.73356786982809        2.07996009600653        0.90149309168498
C            6.00181831352613        2.71250695708973        1.32537660813297
O            4.51816168979993        0.77506306190731        1.12263640205969
N           -1.46448855610419       -0.31710143077206       -0.09918830457599
C           -0.98686262255623        0.36431149128340        1.10861013555670
H           -4.99526974922874        2.93470470090067        1.07066484287304
H           -6.30290364730250        2.49482871214166       -0.07141315144536
H           -4.91111105984867        3.47543560211415       -0.62614960109213
H           -4.55393547539760       -1.02032758854466       -2.91632903862880
H           -0.38432687696099       -3.48354337404360        0.84749498971611
H            1.31924947446633       -3.25729567863501        1.27267116038082
H            0.09397440383879       -2.16745048571370        1.92939402516466
H            2.21825062063211       -2.95324024788416       -0.99254349610978
H            0.63349415862298       -3.55192413032097       -1.51893777378813
H            1.28949772066168       -2.05968636482502       -2.21329046908136
H            1.17356375287291        0.17178534969637       -0.41187243563557
H            5.98817500749175        3.76934469071144        1.06907798705993
H            6.84341881774950        2.22687242851504        0.83038414274134
H            6.13249297421576        2.59818064845681        2.40195074981515
H           -0.51114771564174        1.30691221377637        0.84048120313509
H           -1.83581636751329        0.55534064934965        1.76154680378610
H           -0.27703304940672       -0.26373001911478        1.63244904294100

          :  Hamiltonian                  GFN1-xTB          :
         :: total energy             -82.998294715887 Eh    ::
         :: gradient norm              0.000797389972 Eh/a0 ::
         :: HOMO-LUMO gap              2.908681692730 eV    ::
         :: SCC energy               -83.778067593552 Eh    ::
         :: -> Gsolv                  -0.051481778949 Eh    ::
         :: repulsion energy           0.806503868652 Eh    ::

    * Orbital Energies and Occupations

         #    Occupation            Energy/Eh            Energy/eV
      -------------------------------------------------------------
         1        2.0000           -0.8655302             -23.5523
       ...           ...                  ...                  ...
        55        2.0000           -0.5060106             -13.7692
        56        2.0000           -0.5034411             -13.6993
        57        2.0000           -0.5001709             -13.6103
        58        2.0000           -0.4894287             -13.3180
        59        2.0000           -0.4847581             -13.1909
        60        2.0000           -0.4784835             -13.0202
        61        2.0000           -0.4764375             -12.9645
        62        2.0000           -0.4679663             -12.7340
        63        2.0000           -0.4622850             -12.5794
        64        2.0000           -0.4545255             -12.3683
        65        2.0000           -0.4491237             -12.2213
        66        2.0000           -0.4297040             -11.6928
        67        2.0000           -0.4282934             -11.6545 (HOMO)
        68                         -0.3214013              -8.7458 (LUMO)
        69                         -0.3138994              -8.5416
        70                         -0.2960664              -8.0564
        71                         -0.2585727              -7.0361
        72                         -0.2430704              -6.6143
        73                         -0.2018037              -5.4914
        74                         -0.1663939              -4.5278
        75                         -0.1427989              -3.8858
        76                         -0.1414847              -3.8500
        77                         -0.1397983              -3.8041
        78                         -0.1282982              -3.4912
       ...                                ...                  ...
       134                          0.7270295              19.7835
      -------------------------------------------------------------
                  HL-Gap            0.1068921 Eh            2.9087 eV

Wiberg/Mayer (AO) data.
largest (>0.10) Wiberg bond orders for each atom

     #   Z sym  total        # sym  WBO       # sym  WBO       # sym  WBO
 ---------------------------------------------------------------------------
     1   6 C    3.865 --    27 H    0.986    26 H    0.979    28 H    0.979
                             2 O    0.890
     2   8 O    2.218 --     3 C    1.135     1 C    0.890     4 O    0.135
     3   6 C    3.856 --     4 O    1.641     2 O    1.135     5 C    0.998
     4   8 O    1.933 --     3 C    1.641     2 O    0.135
     5   6 C    3.925 --     6 C    1.532    24 N    1.082     3 C    0.998
     6   6 C    3.914 --     5 C    1.532     7 O    1.113     8 C    1.033
     7   8 O    2.084 --     6 C    1.113    29 H    0.801
     8   6 C    3.919 --     9 O    1.574    10 N    1.175     6 C    1.033
     9   8 O    1.893 --     8 C    1.574    10 N    0.101
    10   7 N    3.015 --    11 C    1.497     8 C    1.175     9 O    0.101
    11   6 C    3.930 --    10 N    1.497    24 N    1.262    12 C    0.976
    12   6 C    3.932 --    14 C    0.986    13 C    0.979    11 C    0.976
                            15 N    0.925
    13   6 C    3.987 --    30 H    0.984    12 C    0.979    32 H    0.977
                            31 H    0.977
    14   6 C    3.989 --    12 C    0.986    35 H    0.985    34 H    0.983
                            33 H    0.983
    15   7 N    3.333 --    16 C    1.233    12 C    0.925    36 H    0.896
                            17 O    0.173
    16   6 C    3.915 --    17 O    1.606    15 N    1.233    18 C    0.990
    17   8 O    1.920 --    16 C    1.606    15 N    0.173
    18   6 C    3.876 --    19 N    1.608    23 O    1.065    16 C    0.990
    19   7 N    3.019 --    18 C    1.608    20 N    1.201
    20   7 N    2.981 --    21 C    1.603    19 N    1.201
    21   6 C    3.870 --    20 N    1.603    23 O    1.083    22 C    1.032
    22   6 C    3.986 --    21 C    1.032    37 H    0.983    39 H    0.963
                            38 H    0.963
    23   8 O    2.332 --    21 C    1.083    18 C    1.065
    24   7 N    3.523 --    11 C    1.262     5 C    1.082    25 C    0.923
    25   6 C    3.920 --    41 H    0.978    42 H    0.976    40 H    0.973
                            24 N    0.923
    26   1 H    1.007 --     1 C    0.979
    27   1 H    1.010 --     1 C    0.986
    28   1 H    1.005 --     1 C    0.979
    29   1 H    0.850 --     7 O    0.801
    30   1 H    1.002 --    13 C    0.984
    31   1 H    1.011 --    13 C    0.977
    32   1 H    1.002 --    13 C    0.977
    33   1 H    1.004 --    14 C    0.983
    34   1 H    1.013 --    14 C    0.983
    35   1 H    1.006 --    14 C    0.985
    36   1 H    0.954 --    15 N    0.896
    37   1 H    0.998 --    22 C    0.983
    38   1 H    0.996 --    22 C    0.963
    39   1 H    0.996 --    22 C    0.963
    40   1 H    1.012 --    25 C    0.973
    41   1 H    1.002 --    25 C    0.978
    42   1 H    1.010 --    25 C    0.976
 ---------------------------------------------------------------------------

           -------------------------------------------------
          | TOTAL ENERGY              -82.998294715887 Eh   |
          | GRADIENT NORM               0.000797389972 Eh/α |
          | HOMO-LUMO GAP               2.908681692730 eV   |
           -------------------------------------------------

 * finished run on 2023/06/20 at 18:12:30.502
