   * xtb version 6.5.1 (579679a) compiled by 'ehlert@majestix' on 2022-07-11
          program call               : /lustre/hpc/kemi/ree/PhD/git/ReactivityQM/dep/xtb-6.5.1/bin/xtb --gfn 1 /lustre/hpc/kemi/ree/PhD/git/ReactivityQM/calculations/R02deprot/reac01prodN15/conf06/R02deprot_reac01prodN15_conf06_gfn1.xyz --opt --vfukui --chrg 0 --uhf 0 --alpb DMSO

   ID    Z sym.   atoms
    1    6 C      1, 3, 5, 6, 8, 9, 12-15, 17, 19, 22, 23
    2    8 O      2, 4, 7, 10, 18, 24
    3    7 N      11, 16, 20, 21, 25
    4    1 H      26-42

      * Solvation model:               ALPB
        Solvent                        DMSO
        Solvent mass                       7.8130E+01 g/mol
          :  Hamiltonian                  GFN1-xTB          :
 * total energy  :   -82.8563603 Eh     change       -0.9062262E-10 Eh
 * total energy  :   -82.8756457 Eh     change       -0.1928539E-01 Eh
 * total energy  :   -82.8930237 Eh     change       -0.1737804E-01 Eh
 * total energy  :   -82.9037998 Eh     change       -0.1077602E-01 Eh
 * total energy  :   -82.9360368 Eh     change       -0.3223700E-01 Eh
 * total energy  :   -82.8782928 Eh     change        0.5774395E-01 Eh
 * total energy  :   -82.9526249 Eh     change       -0.7433208E-01 Eh
 * total energy  :   -82.9304946 Eh     change        0.2213031E-01 Eh
 * total energy  :   -82.9542242 Eh     change       -0.2372957E-01 Eh
 * total energy  :   -82.9531484 Eh     change        0.1075776E-02 Eh
 * total energy  :   -82.9815193 Eh     change       -0.1235138E-04 Eh
 * total energy  :   -82.9815281 Eh     change       -0.8734588E-05 Eh
 * total energy  :   -82.9815339 Eh     change       -0.5803718E-05 Eh
 * total energy  :   -82.9815410 Eh     change       -0.7176739E-05 Eh
 * total energy  :   -82.9815478 Eh     change       -0.6788148E-05 Eh
 * total energy  :   -82.9815571 Eh     change       -0.9233411E-05 Eh
 * total energy  :   -82.9815627 Eh     change       -0.5614224E-05 Eh
 * total energy  :   -82.9815679 Eh     change       -0.5187240E-05 Eh
 * total energy  :   -82.9815705 Eh     change       -0.2649928E-05 Eh
   *** GEOMETRY OPTIMIZATION CONVERGED AFTER 93 ITERATIONS ***

 final structure:
================
42
 xtb: 6.5.1 (579679a)
C           -6.54798411765791        0.91291082659262        0.73133765381013
O           -5.41375305775270        0.32249836872065        0.09149303777554
C           -4.25154252122099        0.97052036339956        0.22657464346592
O           -4.14617720295977        1.99905901748423        0.85930714279942
C           -3.11236145610676        0.30425647751542       -0.44627226843524
C           -3.22245648666220       -0.75161703495806       -1.29605874330718
O           -4.36691974691674       -1.36163934827129       -1.57708866646177
C           -1.15819694077569       -1.73117173054851       -1.07388296817158
C           -0.95156023066804       -3.20140479873348       -1.09674340383144
O           -2.13518995564305       -1.26330292323799       -1.96214150624560
N           -0.49822838354256       -0.94961140419803       -0.33798523229042
C           -0.75570173720507        0.41932575588920       -0.26016141815102
C            0.44699223120443        1.31909542974448       -0.02711046984214
C            0.52792228500551        2.32683052851444       -1.18339940807958
C            0.27994765287317        2.04177754285239        1.31832076541791
N            1.64843666835452        0.48931923229934       -0.00059793523578
C            2.89218463581460        0.96688684959701        0.17731820723292
O            3.19392489070456        2.14088412768069        0.31568395659992
C            3.88696295795147       -0.14016055425741        0.18514956836110
N            3.62486546939791       -1.40708099896498        0.06246443628635
N            4.81785083920461       -2.06355508373858        0.13025130298330
C            5.73115931189814       -1.15448395189751        0.29108358232093
C            7.19146409814690       -1.35394837653684        0.42180446265729
O            5.20599438537661        0.07923792514469        0.33440922539426
N           -1.90401438520344        0.97347170147807       -0.23857714640866
H           -6.34992456933476        1.05480546056656        1.79726561707945
H           -7.37851984846652        0.22350387952377        0.58981729197759
H           -6.77751297563130        1.87941363051985        0.27470127052104
H           -4.26919859429582       -1.98833080202950       -2.30486194855334
H           -1.88928265430905       -3.70481406790898       -0.86588454950529
H           -0.64684795492437       -3.51164822790037       -2.09636987634046
H           -0.19107544729928       -3.48386287740557       -0.37318903470379
H            0.70728445084374        1.80223850652917       -2.12053248982093
H            1.33366479413964        3.03817070365891       -1.01174706966665
H           -0.41714722252695        2.86368714131462       -1.25221794260425
H           -0.67046928808130        2.57416853782679        1.31953922164365
H            1.09118781046578        2.75210990968081        1.46822380408811
H            0.28426808412092        1.31733272556467        2.13175365524497
H            1.51758960566493       -0.51025951611734       -0.09384439024358
H            7.42425034783483       -2.41241242425948        0.33630711435802
H            7.53328672494970       -0.98252920918653        1.38784847373664
H            7.71482753324818       -0.79966931195119       -0.35703396585839

          :  Hamiltonian                  GFN1-xTB          :
         :: total energy             -82.981570521325 Eh    ::
         :: gradient norm              0.000931169955 Eh/a0 ::
         :: HOMO-LUMO gap              2.722226051744 eV    ::
         :: SCC energy               -83.765489073480 Eh    ::
         :: -> Gsolv                  -0.055743790623 Eh    ::
         :: repulsion energy           0.809141469397 Eh    ::

    * Orbital Energies and Occupations

         #    Occupation            Energy/Eh            Energy/eV
      -------------------------------------------------------------
         1        2.0000           -0.8625908             -23.4723
       ...           ...                  ...                  ...
        55        2.0000           -0.5014893             -13.6462
        56        2.0000           -0.4964275             -13.5085
        57        2.0000           -0.4935185             -13.4293
        58        2.0000           -0.4879332             -13.2773
        59        2.0000           -0.4819942             -13.1157
        60        2.0000           -0.4800756             -13.0635
        61        2.0000           -0.4707989             -12.8111
        62        2.0000           -0.4610832             -12.5467
        63        2.0000           -0.4586978             -12.4818
        64        2.0000           -0.4501213             -12.2484
        65        2.0000           -0.4447459             -12.1022
        66        2.0000           -0.4361341             -11.8678
        67        2.0000           -0.4166244             -11.3369 (HOMO)
        68                         -0.3165844              -8.6147 (LUMO)
        69                         -0.3077386              -8.3740
        70                         -0.2923524              -7.9553
        71                         -0.2562074              -6.9718
        72                         -0.2462342              -6.7004
        73                         -0.1959000              -5.3307
        74                         -0.1827440              -4.9727
        75                         -0.1450599              -3.9473
        76                         -0.1422814              -3.8717
        77                         -0.1364759              -3.7137
        78                         -0.1194876              -3.2514
       ...                                ...                  ...
       134                          0.7253036              19.7365
      -------------------------------------------------------------
                  HL-Gap            0.1000400 Eh            2.7222 eV

Wiberg/Mayer (AO) data.
largest (>0.10) Wiberg bond orders for each atom

     #   Z sym  total        # sym  WBO       # sym  WBO       # sym  WBO
 ---------------------------------------------------------------------------
     1   6 C    3.875 --    27 H    0.986    28 H    0.980    26 H    0.980
                             2 O    0.900
     2   8 O    2.186 --     3 C    1.097     1 C    0.900     4 O    0.127
     3   6 C    3.856 --     4 O    1.640     2 O    1.097     5 C    1.030
     4   8 O    1.912 --     3 C    1.640     2 O    0.127
     5   6 C    3.938 --     6 C    1.544    25 N    1.085     3 C    1.030
     6   6 C    3.845 --     5 C    1.544     7 O    1.115    10 O    0.964
     7   8 O    2.096 --     6 C    1.115    29 H    0.802
     8   6 C    3.875 --    11 N    1.766     9 C    1.029    10 O    0.909
     9   6 C    3.987 --     8 C    1.029    32 H    0.981    30 H    0.959
                            31 H    0.957
    10   8 O    2.096 --     6 C    0.964     8 C    0.909
    11   7 N    3.121 --     8 C    1.766    12 C    1.068
    12   6 C    3.939 --    25 N    1.708    11 N    1.068    13 C    0.978
    13   6 C    3.935 --    14 C    0.979    15 C    0.978    12 C    0.978
                            16 N    0.929
    14   6 C    3.990 --    33 H    0.986    35 H    0.985    34 H    0.981
                            13 C    0.979
    15   6 C    3.990 --    38 H    0.986    36 H    0.984    37 H    0.981
                            13 C    0.978
    16   7 N    3.360 --    17 C    1.270    13 C    0.929    39 H    0.881
                            18 O    0.182
    17   6 C    3.920 --    18 O    1.583    16 N    1.270    19 C    0.985
    18   8 O    1.901 --    17 C    1.583    16 N    0.182
    19   6 C    3.873 --    20 N    1.612    24 O    1.064    17 C    0.985
    20   7 N    3.014 --    19 C    1.612    21 N    1.197
    21   7 N    2.980 --    22 C    1.608    20 N    1.197
    22   6 C    3.871 --    21 N    1.608    24 O    1.082    23 C    1.031
    23   6 C    3.987 --    22 C    1.031    40 H    0.983    42 H    0.964
                            41 H    0.963
    24   8 O    2.329 --    22 C    1.082    19 C    1.064
    25   7 N    3.063 --    12 C    1.708     5 C    1.085
    26   1 H    1.009 --     1 C    0.980
    27   1 H    1.011 --     1 C    0.986
    28   1 H    1.008 --     1 C    0.980
    29   1 H    0.829 --     7 O    0.802
    30   1 H    0.997 --     9 C    0.959
    31   1 H    0.996 --     9 C    0.957
    32   1 H    1.000 --     9 C    0.981
    33   1 H    1.003 --    14 C    0.986
    34   1 H    1.010 --    14 C    0.981
    35   1 H    1.009 --    14 C    0.985
    36   1 H    1.011 --    15 C    0.984
    37   1 H    1.009 --    15 C    0.981
    38   1 H    1.003 --    15 C    0.986
    39   1 H    0.968 --    16 N    0.881
    40   1 H    0.999 --    23 C    0.983
    41   1 H    0.997 --    23 C    0.963
    42   1 H    0.997 --    23 C    0.964
 ---------------------------------------------------------------------------

           -------------------------------------------------
          | TOTAL ENERGY              -82.981570521325 Eh   |
          | GRADIENT NORM               0.000931169955 Eh/α |
          | HOMO-LUMO GAP               2.722226051744 eV   |
           -------------------------------------------------

 * finished run on 2023/06/20 at 18:24:06.431
