   * xtb version 6.5.1 (579679a) compiled by 'ehlert@majestix' on 2022-07-11
          program call               : /lustre/hpc/kemi/ree/PhD/git/ReactivityQM/dep/xtb-6.5.1/bin/xtb --gfn 1 /lustre/hpc/kemi/ree/PhD/git/ReactivityQM/calculations/R03/reac01prodN04/conf01/R03_reac01prodN04_conf01_gfn1.xyz --opt --vfukui --chrg 1 --uhf 0 --alpb DMSO

   ID    Z sym.   atoms
    1    6 C      1-5, 7-9
    2    7 N      6
    3    9 F      10
    4    1 H      11-21

      * Solvation model:               ALPB
        Solvent                        DMSO
        Solvent mass                       7.8130E+01 g/mol
          :  Hamiltonian                  GFN1-xTB          :
 * total energy  :   -30.7640538 Eh     change       -0.8029133E-12 Eh
 * total energy  :   -30.7684143 Eh     change       -0.4360485E-02 Eh
 * total energy  :   -30.7696227 Eh     change       -0.1208372E-02 Eh
 * total energy  :   -30.7697897 Eh     change       -0.1670543E-03 Eh
 * total energy  :   -30.7699207 Eh     change       -0.1309826E-03 Eh
 * total energy  :   -30.7699691 Eh     change       -0.4834503E-04 Eh
 * total energy  :   -30.7699992 Eh     change       -0.3014553E-04 Eh
 * total energy  :   -30.7700215 Eh     change       -0.2230871E-04 Eh
 * total energy  :   -30.7700279 Eh     change       -0.6413625E-05 Eh
 * total energy  :   -30.7700337 Eh     change       -0.5771138E-05 Eh
 * total energy  :   -30.7700372 Eh     change       -0.3505577E-05 Eh
   *** GEOMETRY OPTIMIZATION CONVERGED AFTER 11 ITERATIONS ***

 final structure:
================
21
 xtb: 6.5.1 (579679a)
C           -2.48722850325457       -1.27015862454651        0.25716255496105
C           -1.39140420889848       -0.41044744545740       -0.42836158629188
C           -0.01803092101606       -0.80881793848892       -0.07532060040156
C            0.94040933245984        0.09252890436277        0.30719850780920
C            2.36520568276596       -0.34625805571771        0.58156773348089
N            3.15175963157594       -0.21698658053029       -0.63606655414668
C            0.60019506530690        1.46150089262307        0.38471866596015
C           -0.67037841030050        1.93467285513543        0.06872545429851
C           -1.63199406207174        1.03023190567483       -0.30256730992732
F           -2.84263998065948        1.43948368552878       -0.57166498794430
H           -2.42798481586958       -1.13357783663656        1.33459435864284
H           -3.46588738319033       -0.95584818653732       -0.09926288924285
H           -2.32752471814366       -2.31747145064127        0.01303108558693
H           -1.49621756756690       -0.64250423281517       -1.50516325176191
H            0.20822961773959       -1.86726193707714       -0.13632322619038
H            2.38105219671398       -1.38960198890101        0.90371357037310
H            2.80736571873977        0.28050825480967        1.35920319216690
H            2.73195570014616       -0.78339941236826       -1.35996769693838
H            3.12963405572875        0.74438929605812       -0.94800261307105
H            1.35310589802158        2.17019910311372        0.71285939760646
H           -0.90962132822719        2.98881679241140        0.13992919503005

          :  Hamiltonian                  GFN1-xTB          :
         :: total energy             -30.770037205163 Eh    ::
         :: gradient norm              0.000633504212 Eh/a0 ::
         :: HOMO-LUMO gap              0.450316309129 eV    ::
         :: SCC energy               -31.161854207686 Eh    ::
         :: -> Gsolv                  -0.086762301940 Eh    ::
         :: repulsion energy           0.401815757139 Eh    ::

    * Orbital Energies and Occupations

         #    Occupation            Energy/Eh            Energy/eV
      -------------------------------------------------------------
         1        2.0000           -0.9459973             -25.7419
       ...           ...                  ...                  ...
        15        2.0000           -0.5986885             -16.2911
        16        2.0000           -0.5977152             -16.2647
        17        2.0000           -0.5824943             -15.8505
        18        2.0000           -0.5776849             -15.7196
        19        2.0000           -0.5671347             -15.4325
        20        2.0000           -0.5585690             -15.1994
        21        2.0000           -0.5497943             -14.9607
        22        2.0000           -0.5393140             -14.6755
        23        2.0000           -0.5372825             -14.6202
        24        2.0000           -0.5300899             -14.4245
        25        2.0000           -0.5110612             -13.9067
        26        2.0000           -0.5031196             -13.6906
        27        1.9997           -0.4334814             -11.7956 (HOMO)
        28        0.0003           -0.4169325             -11.3453 (LUMO)
        29                         -0.3276963              -8.9171
        30                         -0.2482552              -6.7554
        31                         -0.1586406              -4.3168
        32                         -0.1515525              -4.1240
        33                         -0.1457855              -3.9670
        34                         -0.1439702              -3.9176
        35                         -0.1322652              -3.5991
        36                         -0.1192462              -3.2449
        37                         -0.1013405              -2.7576
        38                         -0.0912395              -2.4828
       ...                                ...                  ...
        62                          0.5388812              14.6637
      -------------------------------------------------------------
                  HL-Gap            0.0165488 Eh            0.4503 eV

Wiberg/Mayer (AO) data.
largest (>0.10) Wiberg bond orders for each atom

     #   Z sym  total        # sym  WBO       # sym  WBO       # sym  WBO
 ---------------------------------------------------------------------------
     1   6 C    3.963 --    11 H    0.983    13 H    0.983    12 H    0.981
                             2 C    0.911
     2   6 C    3.989 --     3 C    1.086     9 C    1.072     1 C    0.911
                            14 H    0.834
     3   6 C    3.956 --     4 C    1.557     2 C    1.086    15 H    0.963
     4   6 C    3.974 --     3 C    1.557     7 C    1.303     5 C    0.988
     5   6 C    3.973 --     6 N    0.993     4 C    0.988    16 H    0.976
                            17 H    0.973
     6   7 N    2.976 --     5 C    0.993    19 H    0.942    18 H    0.941
     7   6 C    3.942 --     8 C    1.410     4 C    1.303    20 H    0.964
     8   6 C    3.982 --     9 C    1.461     7 C    1.410    21 H    0.955
     9   6 C    3.841 --     8 C    1.461     2 C    1.072    10 F    1.033
    10   9 F    1.201 --     9 C    1.033
    11   1 H    0.994 --     1 C    0.983
    12   1 H    0.995 --     1 C    0.981
    13   1 H    0.992 --     1 C    0.983
    14   1 H    0.976 --     2 C    0.834
    15   1 H    0.989 --     3 C    0.963
    16   1 H    1.003 --     5 C    0.976
    17   1 H    1.003 --     5 C    0.973
    18   1 H    0.953 --     6 N    0.941
    19   1 H    0.953 --     6 N    0.942
    20   1 H    0.990 --     7 C    0.964
    21   1 H    0.984 --     8 C    0.955
 ---------------------------------------------------------------------------

           -------------------------------------------------
          | TOTAL ENERGY              -30.770037205163 Eh   |
          | GRADIENT NORM               0.000633504212 Eh/α |
          | HOMO-LUMO GAP               0.450316309129 eV   |
           -------------------------------------------------

 * finished run on 2023/06/20 at 15:14:33.725
