   * xtb version 6.5.1 (579679a) compiled by 'ehlert@majestix' on 2022-07-11
          program call               : /lustre/hpc/kemi/ree/PhD/git/ReactivityQM/dep/xtb-6.5.1/bin/xtb --gfn 1 /lustre/hpc/kemi/ree/PhD/git/ReactivityQM/calculations/R02deprot/reac01prodE01/conf08/R02deprot_reac01prodE01_conf08_gfn1.xyz --opt --vfukui --chrg -2 --uhf 0 --alpb DMSO

   ID    Z sym.   atoms
    1    6 C      1, 3, 5, 7-10, 12, 13, 15, 18, 19, 22, 24
    2    8 O      2, 4, 14, 20, 23, 25
    3    7 N      6, 11, 16, 17, 21
    4    1 H      26-42

      * Solvation model:               ALPB
        Solvent                        DMSO
        Solvent mass                       7.8130E+01 g/mol
          :  Hamiltonian                  GFN1-xTB          :
 * total energy  :   -83.6116518 Eh     change       -0.5005063E-10 Eh
 * total energy  :   -83.6250195 Eh     change       -0.1336768E-01 Eh
 * total energy  :   -83.6293161 Eh     change       -0.4296657E-02 Eh
 * total energy  :   -83.6303564 Eh     change       -0.1040298E-02 Eh
 * total energy  :   -83.6309844 Eh     change       -0.6279489E-03 Eh
 * total energy  :   -83.6313940 Eh     change       -0.4096594E-03 Eh
 * total energy  :   -83.6317197 Eh     change       -0.3256923E-03 Eh
 * total energy  :   -83.6319316 Eh     change       -0.2119053E-03 Eh
 * total energy  :   -83.6320268 Eh     change       -0.9519975E-04 Eh
 * total energy  :   -83.6320823 Eh     change       -0.5541439E-04 Eh
 * total energy  :   -83.6327720 Eh     change       -0.1473751E-04 Eh
 * total energy  :   -83.6327779 Eh     change       -0.5923304E-05 Eh
 * total energy  :   -83.6327938 Eh     change       -0.1593572E-04 Eh
 * total energy  :   -83.6328035 Eh     change       -0.9658433E-05 Eh
 * total energy  :   -83.6328123 Eh     change       -0.8826437E-05 Eh
 * total energy  :   -83.6328201 Eh     change       -0.7754070E-05 Eh
 * total energy  :   -83.6328276 Eh     change       -0.7489835E-05 Eh
 * total energy  :   -83.6328349 Eh     change       -0.7350633E-05 Eh
 * total energy  :   -83.6328394 Eh     change       -0.4520048E-05 Eh
   *** GEOMETRY OPTIMIZATION CONVERGED AFTER 45 ITERATIONS ***

 final structure:
================
42
 xtb: 6.5.1 (579679a)
C            4.76438772739360        3.03551441484055        1.12117478777002
O            3.89579482571781        1.96929406444324        0.76111362882696
C            4.48302459561079        0.76969718284883        0.55563310714929
O            5.68508270294512        0.62576940079742        0.67846220253644
C            3.51350492959616       -0.27961360210826        0.18337118502536
N            2.19982064687275        0.08946902384710        0.11808023660673
C            1.30990616040022       -0.83067163641008       -0.21095449929483
C           -0.14261536733490       -0.33930981230700       -0.27858268014396
C           -0.20653619828383        0.70046933112953       -1.41793225104011
C           -0.45763475305238        0.35553504654478        1.06159710980297
N           -1.01572044159053       -1.50261953710790       -0.45422216621027
C           -2.38160097628443       -1.27659063269675       -1.10690073248386
C           -3.08021424099200       -2.68385911388235       -0.95934017595609
O           -2.36267404707614       -0.82501186961372       -2.32270152991641
C           -3.17917262355829       -0.38980536145673       -0.08360812584582
N           -3.51465042760385       -0.70554860153599        1.13297362754610
N           -4.30636318460644        0.31999510278637        1.61390850750312
C           -4.40373035402679        1.17819199249050        0.65428682022054
C           -5.14987753040234        2.46065237031969        0.66366984588912
O           -3.72344776649186        0.79516800564512       -0.44166357781261
N            1.56248186428012       -2.10731152492796       -0.49917618561556
C            2.83661809303761       -2.55089828391000       -0.45165977881975
O            3.18535977935155       -3.72908558845467       -0.69422363312603
C            3.86622814382062       -1.57740840271166       -0.08930771039957
O            5.13278425852013       -2.06176978597063       -0.05344398899356
H            5.26868087389100        2.81771128595879        2.06721604635616
H            4.14869774935099        3.92716319899820        1.22669096999378
H            5.52013027247399        3.19436767128159        0.34656781709176
H           -1.17921610565624        1.18942802699688       -1.45113985539261
H            0.56214092074684        1.45639793459912       -1.24786713101487
H           -0.02658881941455        0.22212617977063       -2.38024909731787
H           -0.57086596737863       -0.39267502175091        1.84742135460998
H            0.35688303412784        1.02959541688660        1.32874893726014
H           -1.37587439628116        0.93679136530668        0.99786522306919
H           -0.53415336967115       -2.14166682913871       -1.09475793743821
H           -4.11917995898508       -2.59392012824100       -1.27191934182980
H           -3.03571269974443       -3.04023911752707        0.06902777021426
H           -2.57548679298047       -3.39021145124838       -1.61609193143819
H           -5.81092726015902        2.51782064291525       -0.19899402634353
H           -5.73707496958389        2.53213752689664        1.57489862855894
H           -4.46076735841261        3.30359082208192        0.61860375136164
H            5.05855703143489       -3.00867070638919       -0.29657420096005

          :  Hamiltonian                  GFN1-xTB          :
         :: total energy             -83.632839443656 Eh    ::
         :: gradient norm              0.000990193285 Eh/a0 ::
         :: HOMO-LUMO gap              1.659268732468 eV    ::
         :: SCC energy               -84.358788828337 Eh    ::
         :: -> Gsolv                  -0.269524603150 Eh    ::
         :: repulsion energy           0.752529724728 Eh    ::

    * Orbital Energies and Occupations

         #    Occupation            Energy/Eh            Energy/eV
      -------------------------------------------------------------
         1        2.0000           -0.8140015             -22.1501
       ...           ...                  ...                  ...
        56        2.0000           -0.4377387             -11.9115
        57        2.0000           -0.4324246             -11.7669
        58        2.0000           -0.4298020             -11.6955
        59        2.0000           -0.4196931             -11.4204
        60        2.0000           -0.4106793             -11.1752
        61        2.0000           -0.4037397             -10.9863
        62        2.0000           -0.4032592             -10.9732
        63        2.0000           -0.3854099             -10.4875
        64        2.0000           -0.3600857              -9.7984
        65        2.0000           -0.3564695              -9.7000
        66        2.0000           -0.3558460              -9.6831
        67        2.0000           -0.3329577              -9.0602
        68        2.0000           -0.3282336              -8.9317 (HOMO)
        69                         -0.2672566              -7.2724 (LUMO)
        70                         -0.2221001              -6.0437
        71                         -0.2109081              -5.7391
        72                         -0.2079597              -5.6589
        73                         -0.1783580              -4.8534
        74                         -0.1281298              -3.4866
        75                         -0.1252481              -3.4082
        76                         -0.0912235              -2.4823
        77                         -0.0841680              -2.2903
        78                         -0.0785192              -2.1366
        79                         -0.0714460              -1.9441
       ...                                ...                  ...
       134                          0.7540057              20.5175
      -------------------------------------------------------------
                  HL-Gap            0.0609770 Eh            1.6593 eV

Wiberg/Mayer (AO) data.
largest (>0.10) Wiberg bond orders for each atom

     #   Z sym  total        # sym  WBO       # sym  WBO       # sym  WBO
 ---------------------------------------------------------------------------
     1   6 C    3.893 --    27 H    0.987    26 H    0.980    28 H    0.980
                             2 O    0.919
     2   8 O    2.174 --     3 C    1.069     1 C    0.919     4 O    0.120
     3   6 C    3.833 --     4 O    1.628     2 O    1.069     5 C    1.036
     4   8 O    1.892 --     3 C    1.628     2 O    0.120
     5   6 C    3.965 --    24 C    1.464     6 N    1.214     3 C    1.036
     6   7 N    2.996 --     7 C    1.445     5 C    1.214
     7   6 C    3.946 --     6 N    1.445    21 N    1.366     8 C    0.970
     8   6 C    3.970 --    10 C    0.985    11 N    0.983     9 C    0.975
                             7 C    0.970
     9   6 C    3.996 --    30 H    0.986    31 H    0.984    29 H    0.983
                             8 C    0.975
    10   6 C    3.996 --    32 H    0.987     8 C    0.985    33 H    0.984
                            34 H    0.984
    11   7 N    2.975 --     8 C    0.983    35 H    0.937    12 C    0.860
    12   6 C    3.941 --    14 O    1.228    13 C    0.919    15 C    0.880
                            11 N    0.860
    13   6 C    3.990 --    37 H    0.991    36 H    0.989    38 H    0.986
                            12 C    0.919
    14   8 O    1.526 --    12 C    1.228
    15   6 C    3.797 --    16 N    1.632    20 O    1.053    12 C    0.880
    16   7 N    2.963 --    15 C    1.632    17 N    1.152
    17   7 N    2.975 --    18 C    1.651    16 N    1.152
    18   6 C    3.890 --    17 N    1.651    20 O    1.069    19 C    1.023
    19   6 C    3.993 --    18 C    1.023    40 H    0.985    39 H    0.973
                            41 H    0.969
    20   8 O    2.306 --    18 C    1.069    15 C    1.053
    21   7 N    2.998 --     7 C    1.366    22 C    1.264    23 O    0.124
    22   6 C    3.933 --    23 O    1.447    21 N    1.264    24 C    1.083
    23   8 O    1.786 --    22 C    1.447    21 N    0.124
    24   6 C    3.904 --     5 C    1.464    22 C    1.083    25 O    1.060
    25   8 O    2.038 --    24 C    1.060    42 H    0.820
    26   1 H    1.012 --     1 C    0.980
    27   1 H    1.014 --     1 C    0.987
    28   1 H    1.012 --     1 C    0.980
    29   1 H    1.030 --     9 C    0.983
    30   1 H    1.019 --     9 C    0.986
    31   1 H    1.029 --     9 C    0.984
    32   1 H    1.020 --    10 C    0.987
    33   1 H    1.025 --    10 C    0.984
    34   1 H    1.013 --    10 C    0.984
    35   1 H    1.002 --    11 N    0.937
    36   1 H    1.018 --    13 C    0.989
    37   1 H    1.024 --    13 C    0.991
    38   1 H    1.016 --    13 C    0.986
    39   1 H    1.002 --    19 C    0.973
    40   1 H    1.003 --    19 C    0.985
    41   1 H    1.002 --    19 C    0.969
    42   1 H    0.883 --    25 O    0.820
 ---------------------------------------------------------------------------

           -------------------------------------------------
          | TOTAL ENERGY              -83.632839443656 Eh   |
          | GRADIENT NORM               0.000990193285 Eh/α |
          | HOMO-LUMO GAP               1.659268732468 eV   |
           -------------------------------------------------

 * finished run on 2023/06/20 at 17:32:31.862
