   * xtb version 6.5.1 (579679a) compiled by 'ehlert@majestix' on 2022-07-11
          program call               : /lustre/hpc/kemi/ree/PhD/git/ReactivityQM/dep/xtb-6.5.1/bin/xtb --gfn 1 /lustre/hpc/kemi/ree/PhD/git/ReactivityQM/calculations/R02deprot/reac01prodE14/conf12/R02deprot_reac01prodE14_conf12_gfn1.xyz --opt --vfukui --chrg -2 --uhf 0 --alpb DMSO

   ID    Z sym.   atoms
    1    6 C      1, 3, 5, 7-10, 12, 14, 17, 18, 21, 23, 24
    2    8 O      2, 4, 13, 19, 22, 25
    3    7 N      6, 11, 15, 16, 20
    4    1 H      26-42

      * Solvation model:               ALPB
        Solvent                        DMSO
        Solvent mass                       7.8130E+01 g/mol
          :  Hamiltonian                  GFN1-xTB          :
 * total energy  :   -83.5952992 Eh     change        0.1136868E-12 Eh
 * total energy  :   -83.6159731 Eh     change       -0.2067392E-01 Eh
 * total energy  :   -83.6248662 Eh     change       -0.8893122E-02 Eh
 * total energy  :   -83.6260489 Eh     change       -0.1182699E-02 Eh
 * total energy  :   -83.6269093 Eh     change       -0.8603929E-03 Eh
 * total energy  :   -83.6272252 Eh     change       -0.3158835E-03 Eh
 * total energy  :   -83.6275049 Eh     change       -0.2797455E-03 Eh
 * total energy  :   -83.6276835 Eh     change       -0.1786077E-03 Eh
 * total energy  :   -83.6277977 Eh     change       -0.1141700E-03 Eh
 * total energy  :   -83.6278765 Eh     change       -0.7878447E-04 Eh
 * total energy  :   -83.6288266 Eh     change       -0.4968510E-04 Eh
 * total energy  :   -83.6288825 Eh     change       -0.5591266E-04 Eh
 * total energy  :   -83.6289017 Eh     change       -0.1916384E-04 Eh
 * total energy  :   -83.6289275 Eh     change       -0.2580092E-04 Eh
 * total energy  :   -83.6289372 Eh     change       -0.9758210E-05 Eh
 * total energy  :   -83.6289606 Eh     change       -0.2336010E-04 Eh
 * total energy  :   -83.6289699 Eh     change       -0.9301086E-05 Eh
 * total energy  :   -83.6289776 Eh     change       -0.7733781E-05 Eh
 * total energy  :   -83.6289821 Eh     change       -0.4465326E-05 Eh
   *** GEOMETRY OPTIMIZATION CONVERGED AFTER 28 ITERATIONS ***

 final structure:
================
42
 xtb: 6.5.1 (579679a)
C           -4.42238898190008        3.19156351082683        0.15819112231768
O           -3.85922950673056        1.95212098003329       -0.21566772586279
C           -2.64597920177618        1.62772458479755        0.45111544124748
O           -2.17854190052824        2.46814226901595        1.24845045241097
C           -2.13147356273979        0.37536590831330        0.10920697763153
N           -0.94289686338003        0.01388564233468        0.71235504724581
C           -0.39383678565672       -1.12604693161300        0.42581227555621
C            0.90581577030678       -1.47091841280151        1.15700327465486
C            1.16733083164716       -2.97970735766110        1.09811482283753
C            0.82403469224866       -0.98302035055803        2.60941791421539
N            1.99909416607061       -0.75092631461169        0.46510416515294
C            3.29413769423270       -0.81457074106764        0.81650614770246
O            3.75467272928273       -1.49856370092078        1.73498597187844
C            4.18022850180499        0.02014764499242       -0.02056156838331
N            5.47983018623541        0.13452398462645        0.08176964054069
N            5.87702969819199        0.99913697938915       -0.89866700945965
C            4.80950464026400        1.35956528177835       -1.53739067772014
C            4.72168201488486        2.28839953321938       -2.68716966997839
O            3.69907920042856        0.78170024718019       -1.04027369456758
N           -0.82735658877249       -2.06064669240324       -0.47157117289795
C           -1.95691859572532       -1.85308788943547       -1.13867301083809
O           -2.40030054540892       -2.67262131955857       -1.97355768836620
C           -2.81502192847615       -0.57251599013266       -0.85754043683762
C           -4.16830990858834       -1.07857005372182       -0.30423121838535
O           -3.04205825974433        0.05094205723712       -2.13752732461962
H           -3.75591298987367        4.02761401074119       -0.09063728425551
H           -4.63240171913340        3.22708159873793        1.23500701304241
H           -5.35832242948380        3.30601941647849       -0.39065336697241
H            2.06957529833687       -3.24711176450929        1.64576811724245
H            1.26760278927509       -3.29884014320548        0.06018371824044
H            0.31965750100557       -3.50515984624243        1.53787670256863
H            0.01138320432350       -1.50176774150476        3.11695172715361
H            1.75243018793342       -1.17632242345931        3.14465976986674
H            0.61572837677573        0.08748197618142        2.62322968673871
H            1.73643272096155       -0.11964881323778       -0.27768370570126
H            5.71315292714069        2.66582469068102       -2.92296361054074
H            4.06321568120799        3.12340532473029       -2.44889094815132
H            4.31462038785642        1.77410338866440       -3.55747706607552
H           -4.01256602376937       -1.56401069639186        0.65936946484804
H           -4.60028337348320       -1.79786209377290       -1.00166207344118
H           -4.86733301719848       -0.25464365222593       -0.17373301029288
H           -3.56510501804635        0.85181389906379       -1.99463518975190

          :  Hamiltonian                  GFN1-xTB          :
         :: total energy             -83.628982101349 Eh    ::
         :: gradient norm              0.000716015423 Eh/a0 ::
         :: HOMO-LUMO gap              0.124954226173 eV    ::
         :: SCC energy               -84.360944171111 Eh    ::
         :: -> Gsolv                  -0.276454701883 Eh    ::
         :: repulsion energy           0.757622858519 Eh    ::

    * Orbital Energies and Occupations

         #    Occupation            Energy/Eh            Energy/eV
      -------------------------------------------------------------
         1        2.0000           -0.8403798             -22.8679
       ...           ...                  ...                  ...
        56        2.0000           -0.4350548             -11.8384
        57        2.0000           -0.4348738             -11.8335
        58        2.0000           -0.4275436             -11.6341
        59        2.0000           -0.4235029             -11.5241
        60        2.0000           -0.4217772             -11.4771
        61        2.0000           -0.4150823             -11.2950
        62        2.0000           -0.4109070             -11.1813
        63        2.0000           -0.3918068             -10.6616
        64        2.0000           -0.3813776             -10.3778
        65        2.0000           -0.3598366              -9.7917
        66        2.0000           -0.3525970              -9.5947
        67        2.0000           -0.3270391              -8.8992
        68        1.8362           -0.2892223              -7.8701 (HOMO)
        69        0.1638           -0.2846303              -7.7452 (LUMO)
        70                         -0.2377778              -6.4703
        71                         -0.2018933              -5.4938
        72                         -0.1691660              -4.6032
        73                         -0.1349590              -3.6724
        74                         -0.1342205              -3.6523
        75                         -0.1133743              -3.0851
        76                         -0.1013196              -2.7570
        77                         -0.0917183              -2.4958
        78                         -0.0882906              -2.4025
        79                         -0.0732852              -1.9942
       ...                                ...                  ...
       134                          0.7214831              19.6326
      -------------------------------------------------------------
                  HL-Gap            0.0045920 Eh            0.1250 eV

Wiberg/Mayer (AO) data.
largest (>0.10) Wiberg bond orders for each atom

     #   Z sym  total        # sym  WBO       # sym  WBO       # sym  WBO
 ---------------------------------------------------------------------------
     1   6 C    3.919 --    28 H    0.987    26 H    0.981    27 H    0.981
                             2 O    0.950
     2   8 O    2.072 --     1 C    0.950     3 C    0.905
     3   6 C    3.838 --     4 O    1.444     5 C    1.358     2 O    0.905
     4   8 O    1.731 --     3 C    1.444     5 C    0.114
     5   6 C    3.795 --     3 C    1.358     6 N    1.163    23 C    0.980
                             4 O    0.114
     6   7 N    3.000 --     7 C    1.552     5 C    1.163
     7   6 C    3.917 --     6 N    1.552    20 N    1.191     8 C    0.961
     8   6 C    3.915 --     9 C    0.997    10 C    0.992     7 C    0.961
                            11 N    0.895
     9   6 C    3.994 --     8 C    0.997    31 H    0.986    29 H    0.985
                            30 H    0.984
    10   6 C    3.993 --     8 C    0.992    32 H    0.987    33 H    0.985
                            34 H    0.983
    11   7 N    3.338 --    12 C    1.277    35 H    0.904     8 C    0.895
                            13 O    0.173
    12   6 C    3.879 --    13 O    1.513    11 N    1.277    14 C    1.016
    13   8 O    1.814 --    12 C    1.513    11 N    0.173
    14   6 C    3.797 --    15 N    1.564    19 O    1.025    12 C    1.016
    15   7 N    2.911 --    14 C    1.564    16 N    1.189
    16   7 N    2.980 --    17 C    1.622    15 N    1.189
    17   6 C    3.853 --    16 N    1.622    19 O    1.064    18 C    1.028
    18   6 C    3.990 --    17 C    1.028    36 H    0.984    37 H    0.967
                            38 H    0.966
    19   8 O    2.272 --    17 C    1.064    14 C    1.025
    20   7 N    2.911 --    21 C    1.374     7 C    1.191    22 O    0.131
    21   6 C    3.897 --    22 O    1.486    20 N    1.374    23 C    0.907
    22   8 O    1.754 --    21 C    1.486    20 N    0.131
    23   6 C    3.895 --     5 C    0.980    24 C    0.971    25 O    0.915
                            21 C    0.907
    24   6 C    3.989 --    39 H    0.988    40 H    0.986    41 H    0.984
                            23 C    0.971
    25   8 O    1.870 --    23 C    0.915    42 H    0.870
    26   1 H    1.022 --     1 C    0.981
    27   1 H    1.021 --     1 C    0.981
    28   1 H    1.019 --     1 C    0.987
    29   1 H    1.017 --     9 C    0.985
    30   1 H    1.029 --     9 C    0.984
    31   1 H    1.015 --     9 C    0.986
    32   1 H    1.011 --    10 C    0.987
    33   1 H    1.014 --    10 C    0.985
    34   1 H    1.029 --    10 C    0.983
    35   1 H    0.960 --    11 N    0.904
    36   1 H    1.001 --    18 C    0.984
    37   1 H    0.998 --    18 C    0.967
    38   1 H    0.999 --    18 C    0.966
    39   1 H    1.015 --    24 C    0.988
    40   1 H    1.021 --    24 C    0.986
    41   1 H    1.021 --    24 C    0.984
    42   1 H    0.915 --    25 O    0.870
 ---------------------------------------------------------------------------

           -------------------------------------------------
          | TOTAL ENERGY              -83.628982101349 Eh   |
          | GRADIENT NORM               0.000716015423 Eh/α |
          | HOMO-LUMO GAP               0.124954226173 eV   |
           -------------------------------------------------

 * finished run on 2023/06/20 at 18:04:18.309
