   * xtb version 6.5.1 (579679a) compiled by 'ehlert@majestix' on 2022-07-11
          program call               : /lustre/hpc/kemi/ree/PhD/git/ReactivityQM/dep/xtb-6.5.1/bin/xtb --gfn 1 /lustre/hpc/kemi/ree/PhD/git/ReactivityQM/calculations/R03/reac02prodN10/conf20/R03_reac02prodN10_conf20_gfn1.xyz --opt --vfukui --chrg 1 --uhf 0 --alpb DMSO

   ID    Z sym.   atoms
    1    6 C      1, 3, 5, 6, 8, 11-16, 18, 20, 23, 24
    2    8 O      2, 4, 7, 9, 19, 25
    3    7 N      10, 17, 21, 22, 26
    4    1 H      27-46

      * Solvation model:               ALPB
        Solvent                        DMSO
        Solvent mass                       7.8130E+01 g/mol
          :  Hamiltonian                  GFN1-xTB          :
 * total energy  :   -86.2723364 Eh     change       -0.1223555E-10 Eh
 * total energy  :   -86.2912779 Eh     change       -0.1894145E-01 Eh
 * total energy  :   -86.2996202 Eh     change       -0.8342356E-02 Eh
 * total energy  :   -86.3014360 Eh     change       -0.1815778E-02 Eh
 * total energy  :   -86.3023841 Eh     change       -0.9480891E-03 Eh
 * total energy  :   -86.3027966 Eh     change       -0.4125617E-03 Eh
 * total energy  :   -86.3031073 Eh     change       -0.3106444E-03 Eh
 * total energy  :   -86.3033772 Eh     change       -0.2698777E-03 Eh
 * total energy  :   -86.3036307 Eh     change       -0.2535182E-03 Eh
 * total energy  :   -86.3038527 Eh     change       -0.2220689E-03 Eh
 * total energy  :   -86.3047081 Eh     change       -0.9163060E-05 Eh
 * total energy  :   -86.3010761 Eh     change        0.3631951E-02 Eh
 * total energy  :   -86.3045148 Eh     change       -0.3438719E-02 Eh
 * total energy  :   -86.3046659 Eh     change       -0.1510963E-03 Eh
 * total energy  :   -86.3046830 Eh     change       -0.1705609E-04 Eh
 * total energy  :   -86.3047147 Eh     change       -0.3169344E-04 Eh
 * total energy  :   -86.3047225 Eh     change       -0.7778967E-05 Eh
 * total energy  :   -86.3047291 Eh     change       -0.6647813E-05 Eh
 * total energy  :   -86.3047323 Eh     change       -0.3139681E-05 Eh
   *** GEOMETRY OPTIMIZATION CONVERGED AFTER 50 ITERATIONS ***

 final structure:
================
46
 xtb: 6.5.1 (579679a)
C           -6.43164606179215        1.42718943837767        0.43660464028404
O           -5.29346032149455        0.62514938176731        0.05073133622214
C           -4.13366063559756        0.94700742051489        0.60772079564981
O           -3.96743421492273        1.84681019933240        1.38265970926411
C           -3.00758286587588        0.04422805323754        0.14970959064923
C           -3.11100516049522       -0.91427981321529       -0.88441386757559
O           -4.17377196126670       -1.15283079257316       -1.57373598942807
C           -1.94261055933587       -1.77758893431260       -1.20782707749354
O           -1.99397959360805       -2.67440159152532       -2.02210938451499
N           -0.82018342225341       -1.49913816743909       -0.47190599295428
C            0.30460980658819       -2.40819272744684       -0.68287507460589
C           -0.70830249234254       -0.42818330864438        0.47159893342399
C           -0.02301938586075       -0.88604629682315        1.76259905421163
C            0.17188117921982        0.83210343050770       -0.22719406751811
C           -0.34437542723622        1.01454958600118       -1.64800420758133
C           -0.04670345215531        2.09172529568355        0.60193860848089
N            1.53238343176108        0.43737371101106       -0.29366315486108
C            2.49285732083384        0.61707719566238        0.68029018536873
O            2.29420993527110        1.08986510207972        1.77547012467235
C            3.79376173262521        0.13096490841080        0.19260757402004
N            4.01513159215198       -0.42141160446382       -0.96623983196341
N            5.33081546286588       -0.73900002661523       -1.00300902417813
C            5.83807603853271       -0.36460370138096        0.13848335202692
C            7.23921872642819       -0.49259449875750        0.58813792714682
O            4.91369441198641        0.19087242101169        0.93158401788069
N           -1.88309271283668        0.21710567981264        0.79146613856251
H           -6.28376182950523        2.45159458623203        0.09208041602141
H           -7.29737439721495        0.97873102801262       -0.04261045525074
H           -6.53504029921763        1.40998703191927        1.52267742241298
H           -4.95585752878259       -0.61241181926752       -1.32655830513950
H            0.21137124113378       -3.25627479061084       -0.00308870026889
H            0.26663963726445       -2.76051069271480       -1.71303847949399
H            1.23991790538800       -1.89111662844743       -0.49635441487113
H           -0.61331239548486       -1.69818366480615        2.18326556282139
H            0.98622662672861       -1.23620555907375        1.57240583067761
H            0.00885372725530       -0.06277151699410        2.47227761797921
H           -0.09267401002564        0.16042669569290       -2.27322922361953
H            0.12341168616889        1.90458256664156       -2.06810620158552
H           -1.42285879670166        1.15873481332072       -1.65539516644464
H            0.05803220066464        1.91191518161923        1.66840544464602
H            0.68712291513770        2.83828673512101        0.30084980616020
H           -1.04985967671040        2.47044889683689        0.41261204396326
H            1.85892293059313        0.03961600665286       -1.16443189788158
H            7.82194890442792       -1.01058827837968       -0.16934828719962
H            7.27862169850613       -1.04614825564800        1.52599665551684
H            7.66385608917775        0.49613330368198        0.76384901636992

          :  Hamiltonian                  GFN1-xTB          :
         :: total energy             -86.304732251159 Eh    ::
         :: gradient norm              0.000626407970 Eh/a0 ::
         :: HOMO-LUMO gap              1.116255670996 eV    ::
         :: SCC energy               -87.129957126993 Eh    ::
         :: -> Gsolv                  -0.108516142470 Eh    ::
         :: repulsion energy           0.857064079737 Eh    ::

    * Orbital Energies and Occupations

         #    Occupation            Energy/Eh            Energy/eV
      -------------------------------------------------------------
         1        2.0000           -0.8928762             -24.2964
       ...           ...                  ...                  ...
        58        2.0000           -0.5316725             -14.4675
        59        2.0000           -0.5271135             -14.3435
        60        2.0000           -0.5236104             -14.2482
        61        2.0000           -0.5224382             -14.2163
        62        2.0000           -0.5210950             -14.1797
        63        2.0000           -0.5101643             -13.8823
        64        2.0000           -0.5019218             -13.6580
        65        2.0000           -0.4977697             -13.5450
        66        2.0000           -0.4906972             -13.3526
        67        2.0000           -0.4894408             -13.3184
        68        2.0000           -0.4774673             -12.9925
        69        2.0000           -0.4700975             -12.7920
        70        2.0000           -0.4686375             -12.7523 (HOMO)
        71                         -0.4276158             -11.6360 (LUMO)
        72                         -0.3567281              -9.7071
        73                         -0.3373952              -9.1810
        74                         -0.2787630              -7.5855
        75                         -0.2717388              -7.3944
        76                         -0.2271952              -6.1823
        77                         -0.2213398              -6.0230
        78                         -0.1646651              -4.4808
        79                         -0.1606291              -4.3709
        80                         -0.1504186              -4.0931
        81                         -0.1478751              -4.0239
       ...                                ...                  ...
       144                          0.7262919              19.7634
      -------------------------------------------------------------
                  HL-Gap            0.0410216 Eh            1.1163 eV

Wiberg/Mayer (AO) data.
largest (>0.10) Wiberg bond orders for each atom

     #   Z sym  total        # sym  WBO       # sym  WBO       # sym  WBO
 ---------------------------------------------------------------------------
     1   6 C    3.835 --    28 H    0.985    29 H    0.978    27 H    0.978
                             2 O    0.860
     2   8 O    2.225 --     3 C    1.125     1 C    0.860     4 O    0.144
     3   6 C    3.858 --     4 O    1.709     2 O    1.125     5 C    0.952
     4   8 O    1.973 --     3 C    1.709     2 O    0.144
     5   6 C    3.956 --    26 N    1.513     6 C    1.237     3 C    0.952
     6   6 C    3.844 --     7 O    1.294     5 C    1.237     8 C    0.999
     7   8 O    2.225 --     6 C    1.294    30 H    0.752
     8   6 C    3.921 --     9 O    1.620    10 N    1.182     6 C    0.999
     9   8 O    1.939 --     8 C    1.620    10 N    0.182
    10   7 N    3.486 --     8 C    1.182    12 C    0.988    11 C    0.929
                             9 O    0.182
    11   6 C    3.909 --    33 H    0.974    32 H    0.971    31 H    0.961
                            10 N    0.929
    12   6 C    3.907 --    26 N    1.136    10 N    0.988    13 C    0.945
                            14 C    0.686
    13   6 C    3.963 --    35 H    0.978    36 H    0.975    34 H    0.975
                            12 C    0.945
    14   6 C    3.900 --    17 N    1.029    15 C    1.004    16 C    0.999
                            12 C    0.686
    15   6 C    3.986 --    14 C    1.004    37 H    0.980    39 H    0.980
                            38 H    0.965
    16   6 C    3.977 --    14 C    0.999    42 H    0.977    40 H    0.972
                            41 H    0.972
    17   7 N    3.377 --    18 C    1.136    14 C    1.029    43 H    0.881
                            19 O    0.133
    18   6 C    3.899 --    19 O    1.647    17 N    1.136    20 C    1.014
    19   8 O    1.950 --    18 C    1.647    17 N    0.133
    20   6 C    3.880 --    21 N    1.579    25 O    1.067    18 C    1.014
    21   7 N    3.026 --    20 C    1.579    22 N    1.227
    22   7 N    2.980 --    23 C    1.574    21 N    1.227
    23   6 C    3.858 --    22 N    1.574    25 O    1.091    24 C    1.035
    24   6 C    3.982 --    23 C    1.035    44 H    0.981    45 H    0.961
                            46 H    0.958
    25   8 O    2.342 --    23 C    1.091    20 C    1.067
    26   7 N    3.036 --     5 C    1.513    12 C    1.136
    27   1 H    1.001 --     1 C    0.978
    28   1 H    1.005 --     1 C    0.985
    29   1 H    1.002 --     1 C    0.978
    30   1 H    0.815 --     7 O    0.752
    31   1 H    0.993 --    11 C    0.961
    32   1 H    1.000 --    11 C    0.971
    33   1 H    1.003 --    11 C    0.974
    34   1 H    0.994 --    13 C    0.975
    35   1 H    0.999 --    13 C    0.978
    36   1 H    1.003 --    13 C    0.975
    37   1 H    0.995 --    15 C    0.980
    38   1 H    0.992 --    15 C    0.965
    39   1 H    0.998 --    15 C    0.980
    40   1 H    1.010 --    16 C    0.972
    41   1 H    0.993 --    16 C    0.972
    42   1 H    1.006 --    16 C    0.977
    43   1 H    0.947 --    17 N    0.881
    44   1 H    0.997 --    24 C    0.981
    45   1 H    0.994 --    24 C    0.961
    46   1 H    0.994 --    24 C    0.958
 ---------------------------------------------------------------------------

           -------------------------------------------------
          | TOTAL ENERGY              -86.304732251159 Eh   |
          | GRADIENT NORM               0.000626407970 Eh/α |
          | HOMO-LUMO GAP               1.116255670996 eV   |
           -------------------------------------------------

 * finished run on 2023/06/20 at 15:45:04.220
