   * xtb version 6.5.1 (579679a) compiled by 'ehlert@majestix' on 2022-07-11
          program call               : /lustre/hpc/kemi/ree/PhD/git/ReactivityQM/dep/xtb-6.5.1/bin/xtb --gfn 1 /lustre/hpc/kemi/ree/PhD/git/ReactivityQM/calculations/R01/reac02prodE04/conf17/R01_reac02prodE04_conf17_gfn1.xyz --opt --vfukui --chrg -1 --uhf 0 --alpb DMSO

   ID    Z sym.   atoms
    1    6 C      1, 3, 5, 6, 8, 11-14, 17
    2    8 O      2, 4, 7, 9
    3    7 N      10, 15, 16
    4    1 H      18-33

      * Solvation model:               ALPB
        Solvent                        DMSO
        Solvent mass                       7.8130E+01 g/mol
          :  Hamiltonian                  GFN1-xTB          :
 * total energy  :   -58.4802956 Eh     change       -0.1167422E-10 Eh
 * total energy  :   -58.4937078 Eh     change       -0.1341215E-01 Eh
 * total energy  :   -58.5015870 Eh     change       -0.7879265E-02 Eh
 * total energy  :   -58.5034735 Eh     change       -0.1886437E-02 Eh
 * total energy  :   -58.5052581 Eh     change       -0.1784642E-02 Eh
 * total energy  :   -58.5059305 Eh     change       -0.6723636E-03 Eh
 * total energy  :   -58.5064744 Eh     change       -0.5439307E-03 Eh
 * total energy  :   -58.5069282 Eh     change       -0.4537653E-03 Eh
 * total energy  :   -58.5072760 Eh     change       -0.3478634E-03 Eh
 * total energy  :   -58.5075707 Eh     change       -0.2946470E-03 Eh
 * total energy  :   -58.5084650 Eh     change       -0.7589269E-04 Eh
 * total energy  :   -58.5085211 Eh     change       -0.5611923E-04 Eh
 * total energy  :   -58.5085716 Eh     change       -0.5046597E-04 Eh
 * total energy  :   -58.5086126 Eh     change       -0.4099875E-04 Eh
 * total energy  :   -58.5086395 Eh     change       -0.2687465E-04 Eh
 * total energy  :   -58.5086688 Eh     change       -0.2933751E-04 Eh
 * total energy  :   -58.5086792 Eh     change       -0.1038355E-04 Eh
 * total energy  :   -58.5086874 Eh     change       -0.8177359E-05 Eh
 * total energy  :   -58.5086912 Eh     change       -0.3832302E-05 Eh
   *** GEOMETRY OPTIMIZATION CONVERGED AFTER 24 ITERATIONS ***

 final structure:
================
33
 xtb: 6.5.1 (579679a)
C            4.20997251917760        1.34577112852188        0.19581099808495
O            2.87272159047741        0.88674916782749        0.19219885247041
C            2.64781442534281       -0.26204389358571       -0.61383024467450
O            3.62517197929298       -0.73589918851641       -1.25819670369011
C            1.37264483523418       -0.77717883098776       -0.59968336319652
C            0.98658037170725       -1.92110182852150       -1.45662901609160
O            1.95540807285887       -2.92782054407788       -1.65041234786368
C           -0.25835564054418       -2.01196061105419       -1.97203277512646
O           -0.89390601011245       -2.85559043041183       -2.66778224351375
N           -1.09402578521605       -0.81754958868363       -1.54772876455246
C           -0.93330540005122       -0.21760169866127       -0.36976804243598
C           -2.19308053476263        0.38707182277577        0.25775377081517
C           -2.76904740216281       -0.58628262262472        1.29561643197887
C           -1.97709761432713        1.78562280840007        0.85839112936808
N           -3.18692593055027        0.49998953159428       -0.81579484423196
N            0.28056190101718       -0.19289899116293        0.14502344650912
C            0.58041263140325        0.27286092833143        1.49417854427105
H            4.52930613064758        1.65872616216676       -0.80724963014071
H            4.89962546694984        0.56992857813337        0.55312649959376
H            4.25676971066523        2.20336519372775        0.86978694344788
H            2.82197672186501       -2.46874058064282       -1.64198206097248
H           -2.05312740394622       -0.87194777040300       -1.87279525864766
H           -3.66048067086541       -0.15072732387947        1.74397226332374
H           -3.04228207454679       -1.52368686131697        0.81089519558925
H           -2.05422319330843       -0.79571187625999        2.08873237939033
H           -1.32700579113566        2.38084275133809        0.21837621911527
H           -1.55441512775278        1.74266053657012        1.85906815953216
H           -2.94182115294594        2.28595976958523        0.92868936615832
H           -3.00495377138869        1.33781112270801       -1.35222781395713
H           -4.10023107205555        0.61017288934470       -0.40125898008451
H            1.46339853163320       -0.25392221036506        1.85427569807004
H            0.78660438305862        1.34334263050686        1.49299095149062
H           -0.24468569565825        0.05978982962333        2.16848623997133

          :  Hamiltonian                  GFN1-xTB          :
         :: total energy             -58.508691209306 Eh    ::
         :: gradient norm              0.000599966135 Eh/a0 ::
         :: HOMO-LUMO gap              0.907592747630 eV    ::
         :: SCC energy               -59.051761802013 Eh    ::
         :: -> Gsolv                  -0.129178042276 Eh    ::
         :: repulsion energy           0.562788735286 Eh    ::

    * Orbital Energies and Occupations

         #    Occupation            Energy/Eh            Energy/eV
      -------------------------------------------------------------
         1        2.0000           -0.7844969             -21.3472
       ...           ...                  ...                  ...
        36        2.0000           -0.4820032             -13.1160
        37        2.0000           -0.4754906             -12.9388
        38        2.0000           -0.4718723             -12.8403
        39        2.0000           -0.4629410             -12.5973
        40        2.0000           -0.4547846             -12.3753
        41        2.0000           -0.4362370             -11.8706
        42        2.0000           -0.4308060             -11.7228
        43        2.0000           -0.4131484             -11.2423
        44        2.0000           -0.4094080             -11.1406
        45        2.0000           -0.3946895             -10.7400
        46        2.0000           -0.3740451             -10.1783
        47        2.0000           -0.3511478              -9.5552
        48        2.0000           -0.2827065              -7.6928 (HOMO)
        49                         -0.2493531              -6.7852 (LUMO)
        50                         -0.1540336              -4.1915
        51                         -0.1324513              -3.6042
        52                         -0.1212360              -3.2990
        53                         -0.1131181              -3.0781
        54                         -0.1072083              -2.9173
        55                         -0.0986943              -2.6856
        56                         -0.0901882              -2.4541
        57                         -0.0745250              -2.0279
        58                         -0.0696721              -1.8959
        59                         -0.0572434              -1.5577
       ...                                ...                  ...
       100                          0.7775437              21.1580
      -------------------------------------------------------------
                  HL-Gap            0.0333534 Eh            0.9076 eV

Wiberg/Mayer (AO) data.
largest (>0.10) Wiberg bond orders for each atom

     #   Z sym  total        # sym  WBO       # sym  WBO       # sym  WBO
 ---------------------------------------------------------------------------
     1   6 C    3.917 --    20 H    0.987    18 H    0.981    19 H    0.981
                             2 O    0.948
     2   8 O    2.053 --     1 C    0.948     3 C    0.902
     3   6 C    3.881 --     5 C    1.459     4 O    1.368     2 O    0.902
     4   8 O    1.755 --     3 C    1.368     5 C    0.149
     5   6 C    3.759 --     3 C    1.459     6 C    1.026    16 N    0.927
                             4 O    0.149
     6   6 C    3.835 --     8 C    1.576     5 C    1.026     7 O    0.955
                             9 O    0.187
     7   8 O    1.911 --     6 C    0.955    21 H    0.838
     8   6 C    3.888 --     6 C    1.576     9 O    1.356    10 N    0.793
     9   8 O    1.695 --     8 C    1.356     6 C    0.187
    10   7 N    3.348 --    11 C    1.329    22 H    0.896     8 C    0.793
                            16 N    0.148
    11   6 C    3.935 --    16 N    1.412    10 N    1.329    12 C    0.968
    12   6 C    3.966 --    14 C    0.988    13 C    0.986    15 N    0.985
                            11 C    0.968
    13   6 C    3.993 --    12 C    0.986    24 H    0.985    23 H    0.983
                            25 H    0.979
    14   6 C    3.994 --    12 C    0.988    26 H    0.985    28 H    0.983
                            27 H    0.981
    15   7 N    2.985 --    12 C    0.985    29 H    0.945    30 H    0.943
    16   7 N    3.520 --    11 C    1.412    17 C    0.945     5 C    0.927
                            10 N    0.148
    17   6 C    3.952 --    31 H    0.981    32 H    0.977    33 H    0.977
                            16 N    0.945
    18   1 H    1.022 --     1 C    0.981
    19   1 H    1.022 --     1 C    0.981
    20   1 H    1.019 --     1 C    0.987
    21   1 H    0.913 --     7 O    0.838
    22   1 H    0.980 --    10 N    0.896
    23   1 H    1.000 --    13 C    0.983
    24   1 H    1.004 --    13 C    0.985
    25   1 H    1.006 --    13 C    0.979
    26   1 H    1.003 --    14 C    0.985
    27   1 H    1.005 --    14 C    0.981
    28   1 H    1.004 --    14 C    0.983
    29   1 H    0.959 --    15 N    0.945
    30   1 H    0.958 --    15 N    0.943
    31   1 H    1.020 --    17 C    0.981
    32   1 H    1.020 --    17 C    0.977
    33   1 H    1.010 --    17 C    0.977
 ---------------------------------------------------------------------------

           -------------------------------------------------
          | TOTAL ENERGY              -58.508691209306 Eh   |
          | GRADIENT NORM               0.000599966135 Eh/α |
          | HOMO-LUMO GAP               0.907592747630 eV   |
           -------------------------------------------------

 * finished run on 2023/06/20 at 14:59:09.222
