   * xtb version 6.5.1 (579679a) compiled by 'ehlert@majestix' on 2022-07-11
          program call               : /lustre/hpc/kemi/ree/PhD/git/ReactivityQM/dep/xtb-6.5.1/bin/xtb --gfn 1 /lustre/hpc/kemi/ree/PhD/git/ReactivityQM/calculations/R02deprot/reac01prodE04/conf09/R02deprot_reac01prodE04_conf09_gfn1.xyz --opt --vfukui --chrg -2 --uhf 0 --alpb DMSO

   ID    Z sym.   atoms
    1    6 C      1, 3, 5, 6, 8-11, 13, 15, 18, 19, 22, 24
    2    8 O      2, 4, 14, 20, 23, 25
    3    7 N      7, 12, 16, 17, 21
    4    1 H      26-42

      * Solvation model:               ALPB
        Solvent                        DMSO
        Solvent mass                       7.8130E+01 g/mol
          :  Hamiltonian                  GFN1-xTB          :
 * total energy  :   -83.5726544 Eh     change       -0.2431477E-10 Eh
 * total energy  :   -83.5902389 Eh     change       -0.1758450E-01 Eh
 * total energy  :   -83.5969897 Eh     change       -0.6750774E-02 Eh
 * total energy  :   -83.5983537 Eh     change       -0.1364041E-02 Eh
 * total energy  :   -83.5990125 Eh     change       -0.6587685E-03 Eh
 * total energy  :   -83.5992851 Eh     change       -0.2725459E-03 Eh
 * total energy  :   -83.5994736 Eh     change       -0.1885649E-03 Eh
 * total energy  :   -83.5996320 Eh     change       -0.1584023E-03 Eh
 * total energy  :   -83.5997558 Eh     change       -0.1237676E-03 Eh
 * total energy  :   -83.5998641 Eh     change       -0.1083093E-03 Eh
 * total energy  :   -83.6022866 Eh     change       -0.9357344E-05 Eh
 * total energy  :   -83.6022969 Eh     change       -0.1033686E-04 Eh
 * total energy  :   -83.6023047 Eh     change       -0.7726746E-05 Eh
 * total energy  :   -83.6023115 Eh     change       -0.6891645E-05 Eh
 * total energy  :   -83.6023232 Eh     change       -0.1169602E-04 Eh
 * total energy  :   -83.6023288 Eh     change       -0.5560272E-05 Eh
 * total energy  :   -83.6023352 Eh     change       -0.6345233E-05 Eh
 * total energy  :   -83.6023398 Eh     change       -0.4686165E-05 Eh
 * total energy  :   -83.6023442 Eh     change       -0.4396972E-05 Eh
   *** GEOMETRY OPTIMIZATION CONVERGED AFTER 82 ITERATIONS ***

 final structure:
================
42
 xtb: 6.5.1 (579679a)
C           -2.34187865787571        2.41599577295104        2.79586802815605
O           -2.02915992065140        1.50215019979269        1.75460996018210
C           -2.68139694734403        1.69632144652511        0.58054603487768
O           -3.46050247338976        2.63103187679229        0.43834885870390
C           -2.48914628572133        0.55230984565900       -0.42858341604825
C           -2.69830989212910        1.10175995712734       -1.85190272874682
N           -1.17258952730464       -0.04436001572879       -0.31460716576848
C           -1.06935991558216       -1.15045630030500        0.38507854184010
C            0.35708364382323       -1.70438174734860        0.55234215605586
C            0.42873829607741       -3.09434279387664       -0.09817112439250
C            0.67946615735658       -1.79913601602625        2.05094822159508
N            1.27962679608214       -0.78802187595244       -0.10709383503635
C            2.61710381440916       -0.93846555413199       -0.18608253939838
O            3.25746915738122       -1.87431431977785        0.31463901360858
C            3.23890704468231        0.15383878872153       -0.94003275107190
N            2.61476852117292        1.17070489621501       -1.49699748666109
N            3.57460048356069        1.94199486029884       -2.09206572061372
C            4.71123962797985        1.36519625287197       -1.87078370684296
C            6.04984991480127        1.82381338890784       -2.31210943897569
O            4.58620063315222        0.23183155893336       -1.15073088103874
N           -1.99303602901295       -1.90096201078495        0.96714783507049
C           -3.33062584182436       -1.54887198199964        0.74452357625688
O           -4.27994870800344       -2.29829388459355        1.14559439614575
C           -3.56958049069820       -0.38530252514013        0.01375119491796
O           -4.90203321793924       -0.03318390647316       -0.29035926159844
H           -1.79394697270321        2.09844326834499        3.68230577567888
H           -3.41637999640072        2.41625149319399        3.00576902473137
H           -2.03939820554401        3.43207073577475        2.52242068708429
H           -1.91039575092771        1.81489354897655       -2.09516411921238
H           -2.66341830892375        0.28192228117276       -2.56836100498579
H           -3.66513824542176        1.59922834242811       -1.92418351692749
H            0.26645747925265       -3.01323507745942       -1.17337429766371
H            1.39714903348907       -3.56138291133586        0.07809785534329
H           -0.35425548498808       -3.72173647964690        0.32971847690486
H            0.70013591540426       -0.80230167403966        2.49270756311855
H           -0.09899413096348       -2.38566289351422        2.54054959717974
H            1.64407027867583       -2.27802869188856        2.21569129269733
H            0.83685029724443        0.00837558474529       -0.56762184294194
H            6.66662610896738        2.07797093174327       -1.44999597271290
H            5.94221081434393        2.70026363751172       -2.94589718451644
H            6.55574018766110        1.03437316594353       -2.86661866963719
H           -5.44479620216363       -0.72830117460749        0.12007457463679

          :  Hamiltonian                  GFN1-xTB          :
         :: total energy             -83.602344234252 Eh    ::
         :: gradient norm              0.000608487715 Eh/a0 ::
         :: HOMO-LUMO gap              0.090136259235 eV    ::
         :: SCC energy               -84.326709210637 Eh    ::
         :: -> Gsolv                  -0.274498467603 Eh    ::
         :: repulsion energy           0.750851520819 Eh    ::

    * Orbital Energies and Occupations

         #    Occupation            Energy/Eh            Energy/eV
      -------------------------------------------------------------
         1        2.0000           -0.8248374             -22.4450
       ...           ...                  ...                  ...
        56        2.0000           -0.4401374             -11.9767
        57        2.0000           -0.4334458             -11.7947
        58        2.0000           -0.4240049             -11.5378
        59        2.0000           -0.4234402             -11.5224
        60        2.0000           -0.4215293             -11.4704
        61        2.0000           -0.4091907             -11.1346
        62        2.0000           -0.4033488             -10.9757
        63        2.0000           -0.3930823             -10.6963
        64        2.0000           -0.3834611             -10.4345
        65        2.0000           -0.3518445              -9.5742
        66        2.0000           -0.3242491              -8.8233
        67        2.0000           -0.3232924              -8.7972
        68        1.7022           -0.2771222              -7.5409 (HOMO)
        69        0.2978           -0.2738098              -7.4507 (LUMO)
        70                         -0.2271396              -6.1808
        71                         -0.2136179              -5.8128
        72                         -0.1703406              -4.6352
        73                         -0.1549204              -4.2156
        74                         -0.1315157              -3.5787
        75                         -0.1196422              -3.2556
        76                         -0.0941500              -2.5620
        77                         -0.0901462              -2.4530
        78                         -0.0881571              -2.3989
        79                         -0.0822223              -2.2374
       ...                                ...                  ...
       134                          0.7107597              19.3408
      -------------------------------------------------------------
                  HL-Gap            0.0033124 Eh            0.0901 eV

Wiberg/Mayer (AO) data.
largest (>0.10) Wiberg bond orders for each atom

     #   Z sym  total        # sym  WBO       # sym  WBO       # sym  WBO
 ---------------------------------------------------------------------------
     1   6 C    3.902 --    26 H    0.987    28 H    0.981    27 H    0.980
                             2 O    0.926
     2   8 O    2.155 --     3 C    1.052     1 C    0.926     4 O    0.107
     3   6 C    3.768 --     4 O    1.596     2 O    1.052     5 C    0.911
                            24 C    0.103
     4   8 O    1.861 --     3 C    1.596     2 O    0.107
     5   6 C    3.972 --     7 N    0.992     6 C    0.976    24 C    0.964
                             3 C    0.911
     6   6 C    3.984 --    29 H    0.988    30 H    0.988    31 H    0.986
                             5 C    0.976
     7   7 N    2.886 --     8 C    1.488     5 C    0.992    21 N    0.174
     8   6 C    3.958 --     7 N    1.488    21 N    1.398     9 C    0.953
     9   6 C    3.925 --    11 C    0.986    10 C    0.985     8 C    0.953
                            12 N    0.927
    10   6 C    3.994 --    32 H    0.987     9 C    0.985    33 H    0.985
                            34 H    0.984
    11   6 C    3.994 --    35 H    0.987     9 C    0.986    37 H    0.985
                            36 H    0.984
    12   7 N    3.308 --    13 C    1.247     9 C    0.927    38 H    0.879
                            14 O    0.162
    13   6 C    3.850 --    14 O    1.488    12 N    1.247    15 C    1.044
    14   8 O    1.771 --    13 C    1.488    12 N    0.162
    15   6 C    3.747 --    16 N    1.509    13 C    1.044    20 O    1.014
    16   7 N    2.865 --    15 C    1.509    17 N    1.185
    17   7 N    2.980 --    18 C    1.625    16 N    1.185
    18   6 C    3.844 --    17 N    1.625    20 O    1.064    19 C    1.026
    19   6 C    3.992 --    18 C    1.026    40 H    0.985    41 H    0.970
                            39 H    0.967
    20   8 O    2.243 --    18 C    1.064    15 C    1.014
    21   7 N    2.868 --     8 C    1.398    22 C    1.089     7 N    0.174
    22   6 C    3.912 --    23 O    1.357    24 C    1.345    21 N    1.089
    23   8 O    1.653 --    22 C    1.357    24 C    0.103
    24   6 C    3.604 --    22 C    1.345     5 C    0.964    25 O    0.955
                            23 O    0.103     3 C    0.103
    25   8 O    1.898 --    24 C    0.955    42 H    0.853
    26   1 H    1.016 --     1 C    0.987
    27   1 H    1.014 --     1 C    0.980
    28   1 H    1.015 --     1 C    0.981
    29   1 H    1.013 --     6 C    0.988
    30   1 H    1.016 --     6 C    0.988
    31   1 H    1.018 --     6 C    0.986
    32   1 H    1.009 --    10 C    0.987
    33   1 H    1.016 --    10 C    0.985
    34   1 H    1.026 --    10 C    0.984
    35   1 H    1.010 --    11 C    0.987
    36   1 H    1.027 --    11 C    0.984
    37   1 H    1.017 --    11 C    0.985
    38   1 H    1.001 --    12 N    0.879
    39   1 H    0.999 --    19 C    0.967
    40   1 H    1.002 --    19 C    0.985
    41   1 H    1.000 --    19 C    0.970
    42   1 H    0.905 --    25 O    0.853
 ---------------------------------------------------------------------------

           -------------------------------------------------
          | TOTAL ENERGY              -83.602344234252 Eh   |
          | GRADIENT NORM               0.000608487715 Eh/α |
          | HOMO-LUMO GAP               0.090136259235 eV   |
           -------------------------------------------------

 * finished run on 2023/06/20 at 17:37:50.793
