   * xtb version 6.5.1 (579679a) compiled by 'ehlert@majestix' on 2022-07-11
          program call               : /lustre/hpc/kemi/ree/PhD/git/ReactivityQM/dep/xtb-6.5.1/bin/xtb --gfn 1 /lustre/hpc/kemi/ree/PhD/git/ReactivityQM/calculations/RaltegravirCLI/reac02prodN16/conf12/RaltegravirCLI_reac02prodN16_conf12_gfn1.xyz --opt --vfukui --chrg 1 --uhf 0 --alpb DMSO

   ID    Z sym.   atoms
    1    6 C      1, 3-7, 9, 11, 13-16, 19, 20, 22, 24, 25
    2    9 F      2
    3    7 N      8, 12, 17, 18
    4    8 O      10, 21, 23
    5    1 H      26-47

      * Solvation model:               ALPB
        Solvent                        DMSO
        Solvent mass                       7.8130E+01 g/mol
          :  Hamiltonian                  GFN1-xTB          :
 * total energy  :   -79.4271851 Eh     change       -0.1132605E-10 Eh
 * total energy  :   -79.4428930 Eh     change       -0.1570781E-01 Eh
 * total energy  :   -79.4477942 Eh     change       -0.4901194E-02 Eh
 * total energy  :   -79.4486962 Eh     change       -0.9020310E-03 Eh
 * total energy  :   -79.4492538 Eh     change       -0.5575829E-03 Eh
 * total energy  :   -79.4495320 Eh     change       -0.2782378E-03 Eh
 * total energy  :   -79.4497073 Eh     change       -0.1752546E-03 Eh
 * total energy  :   -79.4498294 Eh     change       -0.1221134E-03 Eh
 * total energy  :   -79.4499208 Eh     change       -0.9146366E-04 Eh
 * total energy  :   -79.4499943 Eh     change       -0.7348789E-04 Eh
 * total energy  :   -79.4504254 Eh     change       -0.5946510E-05 Eh
 * total energy  :   -79.4504329 Eh     change       -0.7537059E-05 Eh
 * total energy  :   -79.4504404 Eh     change       -0.7449463E-05 Eh
 * total energy  :   -79.4504473 Eh     change       -0.6972643E-05 Eh
 * total energy  :   -79.4504535 Eh     change       -0.6206243E-05 Eh
 * total energy  :   -79.4504609 Eh     change       -0.7403003E-05 Eh
 * total energy  :   -79.4504583 Eh     change        0.2674873E-05 Eh
 * total energy  :   -79.4504671 Eh     change       -0.8814598E-05 Eh
 * total energy  :   -79.4504709 Eh     change       -0.3860145E-05 Eh
   *** GEOMETRY OPTIMIZATION CONVERGED AFTER 37 ITERATIONS ***

 final structure:
================
47
 xtb: 6.5.1 (579679a)
C            6.35488092811643        2.06115242451388       -1.58124951472845
F            6.12652758888834        0.63910327636439       -1.60529769222920
C            5.14620570406119       -0.12615456856050       -0.82323159741371
C            4.04804923915003       -0.57591758737406       -1.50980719426782
C            3.14203976654900       -1.33107879911551       -0.77444580350531
C            3.36189538015071       -1.58931699154079        0.57926952098055
C            2.34468730640639       -2.38511349362608        1.36936262427223
N            1.17399322255800       -1.56761458749557        1.65025556243990
C            0.16460703217543       -1.50133227644681        0.75081474727832
O            0.14912306290375       -2.19095192305851       -0.26105008918028
C           -0.94853597936530       -0.55455880722989        1.07568974238583
N           -1.97030204902954       -0.57669001966154        0.16955788243010
C           -3.00408726534620        0.19677754716086        0.27784734851965
C           -4.04480713093294        0.07229569724082       -0.82854530898344
C           -3.77817842763991        1.16018260037547       -1.87997716966445
C           -3.91165023862208       -1.31082348941530       -1.48944361566636
N           -5.39099076035968        0.23329014631842       -0.29088231599038
N           -3.12278203748788        1.10599593369346        1.29997582204930
C           -4.25385942233736        2.02802742779538        1.43848222021249
C           -2.16153583255556        1.19010710328170        2.28775924420251
O           -2.23797267878618        1.97416030350000        3.23234494520215
C           -1.02680428603505        0.29733848446059        2.13845710354718
O           -0.09428794878086        0.39970282098623        3.10769070051748
C            4.50400650639853       -1.09464459017957        1.20609521592692
C            5.43447664942563       -0.33954748559597        0.49879025658644
H            7.04496966523291        2.22317056558690       -2.40347142062936
H            6.78501750997800        2.28007727393571       -0.60894420157623
H            5.38531799755774        2.52482518055298       -1.73529242415536
H            3.90103672279974       -0.35997923780176       -2.55846330048913
H            2.25570204519299       -1.71836232845001       -1.26400806729719
H            2.77075642964142       -2.71208085217551        2.31941264112042
H            2.02063574963166       -3.25725831878298        0.79287913712293
H            1.26040436780424       -0.88886282092719        2.38883813108715
H           -3.91117755560887        2.15560121276902       -1.46023069480632
H           -4.46963454827030        1.03956807037226       -2.71273972572537
H           -2.75848980896386        1.07087708456361       -2.25266301051607
H           -2.92715448747101       -1.42293745625332       -1.94183747117134
H           -4.04781779810318       -2.09528229974723       -0.74627884604520
H           -4.67305897186071       -1.41604581168220       -2.26023343730761
H           -5.64792081279761       -0.59547988625658        0.23027990103799
H           -6.04338620749463        0.32863841726240       -1.05674368690462
H           -4.53559116106285        2.42376493826574        0.46832599579305
H           -5.10336168116708        1.50440049530133        1.87424558353342
H           -3.94708902726144        2.84243650693766        2.09450025084938
H           -0.37254161286446        1.09898632344768        3.73174945012835
H            4.68201261197517       -1.29349863078559        2.25551954612621
H            6.32666924352401        0.05305342741485        0.96438901478104

          :  Hamiltonian                  GFN1-xTB          :
         :: total energy             -79.450470940197 Eh    ::
         :: gradient norm              0.000521508178 Eh/a0 ::
         :: HOMO-LUMO gap              2.586146453763 eV    ::
         :: SCC energy               -80.349025655878 Eh    ::
         :: -> Gsolv                  -0.111251288163 Eh    ::
         :: repulsion energy           0.927714885892 Eh    ::

    * Orbital Energies and Occupations

         #    Occupation            Energy/Eh            Energy/eV
      -------------------------------------------------------------
         1        2.0000           -1.0105278             -27.4979
       ...           ...                  ...                  ...
        55        2.0000           -0.5106309             -13.8950
        56        2.0000           -0.5031915             -13.6925
        57        2.0000           -0.4951476             -13.4737
        58        2.0000           -0.4925029             -13.4017
        59        2.0000           -0.4892724             -13.3138
        60        2.0000           -0.4870558             -13.2535
        61        2.0000           -0.4721688             -12.8484
        62        2.0000           -0.4688392             -12.7578
        63        2.0000           -0.4527919             -12.3211
        64        2.0000           -0.4479950             -12.1906
        65        2.0000           -0.4393578             -11.9555
        66        2.0000           -0.4245755             -11.5533
        67        2.0000           -0.4144155             -11.2768 (HOMO)
        68                         -0.3193764              -8.6907 (LUMO)
        69                         -0.3153724              -8.5817
        70                         -0.3146841              -8.5630
        71                         -0.2772660              -7.5448
        72                         -0.2615016              -7.1158
        73                         -0.2337114              -6.3596
        74                         -0.1933533              -5.2614
        75                         -0.1851197              -5.0374
        76                         -0.1526054              -4.1526
        77                         -0.1467478              -3.9932
        78                         -0.1436424              -3.9087
       ...                                ...                  ...
       144                          0.7109308              19.3454
      -------------------------------------------------------------
                  HL-Gap            0.0950391 Eh            2.5861 eV

Wiberg/Mayer (AO) data.
largest (>0.10) Wiberg bond orders for each atom

     #   Z sym  total        # sym  WBO       # sym  WBO       # sym  WBO
 ---------------------------------------------------------------------------
     1   6 C    3.676 --    27 H    0.980    28 H    0.980    26 H    0.974
                             2 F    0.716
     2   9 F    1.438 --     1 C    0.716     3 C    0.635
     3   6 C    3.690 --    25 C    1.437     4 C    1.430     2 F    0.635
     4   6 C    3.984 --     3 C    1.430     5 C    1.426    29 H    0.961
                            24 C    0.110
     5   6 C    3.983 --     4 C    1.426     6 C    1.414    30 H    0.960
                            25 C    0.112
     6   6 C    3.983 --    24 C    1.423     5 C    1.414     7 C    0.995
     7   6 C    3.952 --     6 C    0.995    31 H    0.976    32 H    0.964
                             8 N    0.949
     8   7 N    3.328 --     9 C    1.243     7 C    0.949    33 H    0.883
                            10 O    0.163
     9   6 C    3.902 --    10 O    1.579     8 N    1.243    11 C    0.998
    10   8 O    1.889 --     9 C    1.579     8 N    0.163
    11   6 C    3.965 --    22 C    1.505    12 N    1.196     9 C    0.998
    12   7 N    3.031 --    13 C    1.565    11 C    1.196
    13   6 C    3.921 --    12 N    1.565    18 N    1.171    14 C    0.976
    14   6 C    3.966 --    16 C    0.988    17 N    0.985    15 C    0.981
                            13 C    0.976
    15   6 C    3.993 --    36 H    0.986    35 H    0.982    14 C    0.981
                            34 H    0.979
    16   6 C    3.994 --    14 C    0.988    39 H    0.986    38 H    0.985
                            37 H    0.983
    17   7 N    2.977 --    14 C    0.985    40 H    0.941    41 H    0.938
    18   7 N    3.517 --    13 C    1.171    20 C    1.140    19 C    0.926
                            21 O    0.134
    19   6 C    3.920 --    42 H    0.978    44 H    0.976    43 H    0.975
                            18 N    0.926
    20   6 C    3.918 --    21 O    1.538    18 N    1.140    22 C    1.089
    21   8 O    1.888 --    20 C    1.538    18 N    0.134
    22   6 C    3.916 --    11 C    1.505    20 C    1.089    23 O    1.072
    23   8 O    2.066 --    22 C    1.072    45 H    0.798
    24   6 C    3.987 --     6 C    1.423    25 C    1.418    46 H    0.965
                             4 C    0.110
    25   6 C    3.984 --     3 C    1.437    24 C    1.418    47 H    0.961
                             5 C    0.112
    26   1 H    0.991 --     1 C    0.974
    27   1 H    0.993 --     1 C    0.980
    28   1 H    0.993 --     1 C    0.980
    29   1 H    0.990 --     4 C    0.961
    30   1 H    1.008 --     5 C    0.960
    31   1 H    1.000 --     7 C    0.976
    32   1 H    1.007 --     7 C    0.964
    33   1 H    0.941 --     8 N    0.883
    34   1 H    1.005 --    15 C    0.979
    35   1 H    0.999 --    15 C    0.982
    36   1 H    1.004 --    15 C    0.986
    37   1 H    1.015 --    16 C    0.983
    38   1 H    1.007 --    16 C    0.985
    39   1 H    1.003 --    16 C    0.986
    40   1 H    0.957 --    17 N    0.941
    41   1 H    0.953 --    17 N    0.938
    42   1 H    1.022 --    19 C    0.978
    43   1 H    1.017 --    19 C    0.975
    44   1 H    1.009 --    19 C    0.976
    45   1 H    0.844 --    23 O    0.798
    46   1 H    0.994 --    24 C    0.965
    47   1 H    0.989 --    25 C    0.961
 ---------------------------------------------------------------------------

           -------------------------------------------------
          | TOTAL ENERGY              -79.450470940197 Eh   |
          | GRADIENT NORM               0.000521508178 Eh/α |
          | HOMO-LUMO GAP               2.586146453763 eV   |
           -------------------------------------------------

 * finished run on 2023/06/20 at 15:39:08.878
