   * xtb version 6.5.1 (579679a) compiled by 'ehlert@majestix' on 2022-07-11
          program call               : /lustre/hpc/kemi/ree/PhD/git/ReactivityQM/dep/xtb-6.5.1/bin/xtb --gfn 1 /lustre/hpc/kemi/ree/PhD/git/ReactivityQM/calculations/R02oxygendeprot/reac01prodE13/conf16/R02oxygendeprot_reac01prodE13_conf16_gfn1.xyz --opt --vfukui --chrg -2 --uhf 0 --alpb DMSO

   ID    Z sym.   atoms
    1    6 C      1, 3, 5, 6, 8, 10, 12-15, 17, 19, 22, 23
    2    8 O      2, 4, 7, 9, 18, 24
    3    7 N      11, 16, 20, 21, 25
    4    1 H      26-42

      * Solvation model:               ALPB
        Solvent                        DMSO
        Solvent mass                       7.8130E+01 g/mol
          :  Hamiltonian                  GFN1-xTB          :
 * total energy  :   -83.5648229 Eh     change       -0.2714273E-11 Eh
 * total energy  :   -83.5771457 Eh     change       -0.1232284E-01 Eh
 * total energy  :   -83.5816136 Eh     change       -0.4467811E-02 Eh
 * total energy  :   -83.5823072 Eh     change       -0.6936871E-03 Eh
 * total energy  :   -83.5828688 Eh     change       -0.5615332E-03 Eh
 * total energy  :   -83.5831831 Eh     change       -0.3143665E-03 Eh
 * total energy  :   -83.5835192 Eh     change       -0.3360511E-03 Eh
 * total energy  :   -83.5838010 Eh     change       -0.2818140E-03 Eh
 * total energy  :   -83.5839871 Eh     change       -0.1861387E-03 Eh
 * total energy  :   -83.5841415 Eh     change       -0.1543200E-03 Eh
 * total energy  :   -83.5911453 Eh     change       -0.1722902E-04 Eh
 * total energy  :   -83.5911628 Eh     change       -0.1750801E-04 Eh
 * total energy  :   -83.5911707 Eh     change       -0.7867145E-05 Eh
 * total energy  :   -83.5911796 Eh     change       -0.8954312E-05 Eh
 * total energy  :   -83.5911867 Eh     change       -0.7096170E-05 Eh
 * total energy  :   -83.5911950 Eh     change       -0.8297749E-05 Eh
 * total energy  :   -83.5912046 Eh     change       -0.9550006E-05 Eh
 * total energy  :   -83.5912100 Eh     change       -0.5472676E-05 Eh
 * total energy  :   -83.5912148 Eh     change       -0.4774353E-05 Eh
   *** GEOMETRY OPTIMIZATION CONVERGED AFTER 88 ITERATIONS ***

 final structure:
================
42
 xtb: 6.5.1 (579679a)
C           -2.02646994197766       -3.09894376437896        1.96138161719744
O           -1.64026681532193       -1.92082223783044        1.29161455402530
C           -2.61972894057336       -0.89627842670002        1.28426149091535
O           -3.70239394329773       -1.12617533050070        1.85548679527029
C           -2.19366611334263        0.25869216908436        0.60183220857144
C           -3.04181429556707        1.46036841655783        0.43573851636532
O           -4.21074540614536        1.56135199655267        0.92235244621731
C           -2.44702332267924        2.47993300609877       -0.31316366637512
O           -3.04203446893714        3.69611585050927       -0.65143990175758
C           -3.46802862029003        4.50239443192085        0.43893897314999
N           -1.13162870589212        2.36722248764445       -0.80599728630402
C           -0.42808974993718        1.20696825023902       -0.61312966926891
C            0.97141643350291        1.13977767017938       -1.20977719153766
C            0.88905522614945        1.28998043295770       -2.73904854884880
C            1.84258320233922        2.25886166783890       -0.60792864005244
N            1.51092898321575       -0.16829836461016       -0.87228378379226
C            2.80893653866194       -0.54414956036018       -1.14162918047029
O            3.56548243706503        0.10753466176015       -1.89924371883327
C            3.21017654852873       -1.77408794455525       -0.51990045203616
N            4.38985312084025       -2.39069729414159       -0.62711918918611
N            4.31248885404535       -3.51315226915176        0.14966804040889
C            3.13336290804412       -3.53860540876918        0.68103975035392
C            2.59477200400365       -4.56769465254106        1.60483237815498
O            2.36649721512073       -2.48226484825036        0.31649359138534
N           -0.90544855298876        0.21459855637419        0.04678074162023
H           -2.91209880790757       -3.55572483222028        1.49894885430381
H           -1.19213007634049       -3.80042222251898        1.89908115978087
H           -2.25272651739277       -2.90730406708255        3.01895816719759
H           -3.85091038213613        5.43340523111682        0.01631923646447
H           -4.26600090145519        4.00982241703445        1.01004841371536
H           -2.63408281226208        4.73397574650389        1.11444052258379
H           -0.77450274598991        3.12724792756097       -1.35441377388200
H            1.88476959767533        1.24520511018988       -3.17792095549320
H            0.43883203030242        2.24703428237081       -2.99682421608553
H            0.28003510338623        0.48904918464130       -3.15874849552050
H            2.84023567428074        2.24093818551644       -1.04451639680252
H            1.92352019819221        2.12812070288870        0.47094655566335
H            1.39327937690123        3.22938874561629       -0.81043473064522
H            1.00734451810708       -0.66195719533486       -0.13885272317231
H            2.32454697082517       -4.11841410782467        2.56099846269113
H            3.34994975076309       -5.33213540130350        1.77047759884624
H            1.70172242848079       -5.03085720305332        1.18404744517099

          :  Hamiltonian                  GFN1-xTB          :
         :: total energy             -83.591214806183 Eh    ::
         :: gradient norm              0.000505640024 Eh/a0 ::
         :: HOMO-LUMO gap              0.045073414859 eV    ::
         :: SCC energy               -84.318095325878 Eh    ::
         :: -> Gsolv                  -0.272573137313 Eh    ::
         :: repulsion energy           0.752244523553 Eh    ::

    * Orbital Energies and Occupations

         #    Occupation            Energy/Eh            Energy/eV
      -------------------------------------------------------------
         1        2.0000           -0.8033994             -21.8616
       ...           ...                  ...                  ...
        56        2.0000           -0.4322385             -11.7618
        57        2.0000           -0.4286148             -11.6632
        58        2.0000           -0.4237730             -11.5314
        59        2.0000           -0.4077485             -11.0954
        60        2.0000           -0.4050727             -11.0226
        61        2.0000           -0.4036391             -10.9836
        62        2.0000           -0.3966536             -10.7935
        63        2.0000           -0.3892459             -10.5919
        64        2.0000           -0.3875693             -10.5463
        65        2.0000           -0.3832113             -10.4277
        66        2.0000           -0.3390192              -9.2252
        67        2.0000           -0.3335453              -9.0762
        68        1.4102           -0.2659572              -7.2371 (HOMO)
        69        0.5898           -0.2643008              -7.1920 (LUMO)
        70                         -0.2109518              -5.7403
        71                         -0.1988496              -5.4110
        72                         -0.1601092              -4.3568
        73                         -0.1393758              -3.7926
        74                         -0.1273024              -3.4641
        75                         -0.1061235              -2.8878
        76                         -0.1042521              -2.8368
        77                         -0.1006495              -2.7388
        78                         -0.0973105              -2.6480
        79                         -0.0728892              -1.9834
       ...                                ...                  ...
       134                          0.7364912              20.0409
      -------------------------------------------------------------
                  HL-Gap            0.0016564 Eh            0.0451 eV

Wiberg/Mayer (AO) data.
largest (>0.10) Wiberg bond orders for each atom

     #   Z sym  total        # sym  WBO       # sym  WBO       # sym  WBO
 ---------------------------------------------------------------------------
     1   6 C    3.924 --    27 H    0.986    26 H    0.980    28 H    0.980
                             2 O    0.957
     2   8 O    2.049 --     1 C    0.957     3 C    0.921
     3   6 C    3.786 --     4 O    1.461     5 C    1.301     2 O    0.921
     4   8 O    1.717 --     3 C    1.461
     5   6 C    3.754 --     3 C    1.301    25 N    1.101     6 C    1.068
     6   6 C    3.924 --     7 O    1.390     8 C    1.341     5 C    1.068
     7   8 O    1.686 --     6 C    1.390     8 C    0.119
     8   6 C    3.525 --     6 C    1.341    11 N    1.007     9 O    0.947
                             7 O    0.119
     9   8 O    2.008 --     8 C    0.947    10 C    0.935
    10   6 C    3.910 --    29 H    0.987    31 H    0.983    30 H    0.979
                             9 O    0.935
    11   7 N    3.243 --    12 C    1.129     8 C    1.007    32 H    0.910
                            25 N    0.108
    12   6 C    3.929 --    25 N    1.614    11 N    1.129    13 C    0.973
    13   6 C    3.952 --    14 C    0.984    15 C    0.981    12 C    0.973
                            16 N    0.951
    14   6 C    3.991 --    35 H    0.987    34 H    0.986    13 C    0.984
                            33 H    0.981
    15   6 C    3.989 --    37 H    0.987    38 H    0.986    36 H    0.981
                            13 C    0.981
    16   7 N    3.200 --    17 C    1.143    13 C    0.951    39 H    0.893
                            18 O    0.124
    17   6 C    3.776 --    18 O    1.430    16 N    1.143    19 C    1.134
    18   8 O    1.688 --    17 C    1.430    16 N    0.124
    19   6 C    3.689 --    20 N    1.413    17 C    1.134    24 O    0.973
    20   7 N    2.740 --    19 C    1.413    21 N    1.190
    21   7 N    2.980 --    22 C    1.625    20 N    1.190
    22   6 C    3.816 --    21 N    1.625    24 O    1.045    23 C    1.024
    23   6 C    3.994 --    22 C    1.024    41 H    0.986    42 H    0.971
                            40 H    0.971
    24   8 O    2.187 --    22 C    1.045    19 C    0.973
    25   7 N    2.980 --    12 C    1.614     5 C    1.101    11 N    0.108
    26   1 H    1.022 --     1 C    0.980
    27   1 H    1.021 --     1 C    0.986
    28   1 H    1.022 --     1 C    0.980
    29   1 H    1.020 --    10 C    0.987
    30   1 H    1.038 --    10 C    0.979
    31   1 H    1.014 --    10 C    0.983
    32   1 H    0.960 --    11 N    0.910
    33   1 H    1.020 --    14 C    0.981
    34   1 H    1.006 --    14 C    0.986
    35   1 H    1.010 --    14 C    0.987
    36   1 H    1.017 --    15 C    0.981
    37   1 H    1.008 --    15 C    0.987
    38   1 H    1.006 --    15 C    0.986
    39   1 H    0.984 --    16 N    0.893
    40   1 H    1.001 --    23 C    0.971
    41   1 H    1.005 --    23 C    0.986
    42   1 H    1.001 --    23 C    0.971
 ---------------------------------------------------------------------------

           -------------------------------------------------
          | TOTAL ENERGY              -83.591214806183 Eh   |
          | GRADIENT NORM               0.000505640024 Eh/α |
          | HOMO-LUMO GAP               0.045073414859 eV   |
           -------------------------------------------------

 * finished run on 2023/06/21 at 17:14:33.852
