   * xtb version 6.5.1 (579679a) compiled by 'ehlert@majestix' on 2022-07-11
          program call               : /lustre/hpc/kemi/ree/PhD/git/ReactivityQM/dep/xtb-6.5.1/bin/xtb --gfn 1 /lustre/hpc/kemi/ree/PhD/git/ReactivityQM/calculations/R02methylcation/reac01prodN03/conf11/R02methylcation_reac01prodN03_conf11_gfn1.xyz --opt --vfukui --chrg 0 --uhf 0 --alpb DMSO

   ID    Z sym.   atoms
    1    6 C      1, 3, 5, 6, 8-11, 13, 15, 18, 19, 22, 24
    2    8 O      2, 4, 14, 20, 23, 25
    3    7 N      7, 12, 16, 17, 21
    4    1 H      26-42

      * Solvation model:               ALPB
        Solvent                        DMSO
        Solvent mass                       7.8130E+01 g/mol
          :  Hamiltonian                  GFN1-xTB          :
 * total energy  :   -82.9817885 Eh     change       -0.6409095E-11 Eh
 * total energy  :   -82.9934120 Eh     change       -0.1162346E-01 Eh
 * total energy  :   -82.9980471 Eh     change       -0.4635103E-02 Eh
 * total energy  :   -82.9990656 Eh     change       -0.1018480E-02 Eh
 * total energy  :   -82.9996430 Eh     change       -0.5773962E-03 Eh
 * total energy  :   -82.9998868 Eh     change       -0.2438728E-03 Eh
 * total energy  :   -83.0000047 Eh     change       -0.1178613E-03 Eh
 * total energy  :   -83.0000699 Eh     change       -0.6518857E-04 Eh
 * total energy  :   -83.0001176 Eh     change       -0.4769128E-04 Eh
 * total energy  :   -83.0001645 Eh     change       -0.4693072E-04 Eh
 * total energy  :   -83.0003605 Eh     change       -0.1778503E-04 Eh
 * total energy  :   -83.0003764 Eh     change       -0.1588581E-04 Eh
 * total energy  :   -83.0003875 Eh     change       -0.1114733E-04 Eh
 * total energy  :   -83.0004012 Eh     change       -0.1365515E-04 Eh
 * total energy  :   -83.0004068 Eh     change       -0.5640952E-05 Eh
 * total energy  :   -83.0004130 Eh     change       -0.6221495E-05 Eh
 * total energy  :   -83.0004206 Eh     change       -0.7558082E-05 Eh
 * total energy  :   -83.0004261 Eh     change       -0.5548722E-05 Eh
 * total energy  :   -83.0004301 Eh     change       -0.3933107E-05 Eh
   *** GEOMETRY OPTIMIZATION CONVERGED AFTER 24 ITERATIONS ***

 final structure:
================
42
 xtb: 6.5.1 (579679a)
C           -3.49568447056064        2.48709990266382        0.52703404094183
O           -2.99387909012812        1.21263897954800        0.08945642400515
C           -3.79764454579820        0.17936983618219        0.24927963695478
O           -4.90626412890107        0.22831426415463        0.70731554733779
C           -3.14613902389714       -1.13853856569174       -0.25755612013756
C           -4.05369293127317       -2.31187480223603        0.12638919086504
N           -1.88244111131658       -1.27646067932136        0.42706112249369
C           -0.77996976378594       -1.06991816739846       -0.16023481203801
C            0.52205907503153       -1.29052456571419        0.58300404435360
C            1.07276094164975       -2.65567040735980        0.14320288468936
C            0.28817855168716       -1.24646853969795        2.09523225282677
N            1.44185869679138       -0.21864936723623        0.19064973736175
C            2.73535338993158       -0.17116260249882        0.59455877578989
O            3.32862216848525       -1.05266927639960        1.18504670482994
C            3.35758620822079        1.11552701248940        0.19335038437742
N            2.74947449229127        2.11406861634203       -0.37433663376029
N            3.68220027727021        3.08821951086292       -0.55910306956835
C            4.80157303892153        2.62232361709033       -0.09149099120011
C            6.11943594499067        3.29421781107158       -0.06934044570979
O            4.65969180522437        1.38217038540119        0.39833462156641
N           -0.65958919462629       -0.71284324331637       -1.49619220883188
C           -1.70440176804700       -0.60864380814236       -2.36432443164671
O           -1.56190206263223       -0.27675448327223       -3.51900052259059
C           -3.06373678109778       -0.99003530773548       -1.76632251839616
O           -4.02216638221203       -1.14969991995096       -2.47682498710630
H           -2.69466648380049        3.20527608270866        0.37122620033189
H           -4.37460890001411        2.75949734658065       -0.06050885324451
H           -3.76334255166142        2.43472598383121        1.58380250180658
H           -3.59189953982356       -3.24623589195256       -0.18404716243680
H           -4.19332110527626       -2.32077390888312        1.20503570346067
H           -5.01931811975567       -2.20125226774592       -0.36379256843440
H            1.32086078489841       -2.63483487376038       -0.91595255413419
H            1.96425583066791       -2.90547506917640        0.71388742060247
H            0.31625345914252       -3.41861374979734        0.31765322175490
H            1.22534751821163       -1.42523333801554        2.61902240602193
H           -0.43254452474112       -2.01352439009117        2.37337571006287
H           -0.10457555435076       -0.27239375918952        2.38163572813016
H            1.04049009587333        0.64534960436713       -0.14357969564464
H            6.57685407245147        3.18687820818999        0.91334312589548
H            5.99712756333907        4.34817206405127       -0.30839151396402
H            6.78185275587321        2.83479704674748       -0.80422705791749
H            0.25995236274251       -0.53039528769767       -1.86958423969785

          :  Hamiltonian                  GFN1-xTB          :
         :: total energy             -83.000430055763 Eh    ::
         :: gradient norm              0.000803319884 Eh/a0 ::
         :: HOMO-LUMO gap              2.417106275022 eV    ::
         :: SCC energy               -83.788091922603 Eh    ::
         :: -> Gsolv                  -0.051170531912 Eh    ::
         :: repulsion energy           0.814264183608 Eh    ::

    * Orbital Energies and Occupations

         #    Occupation            Energy/Eh            Energy/eV
      -------------------------------------------------------------
         1        2.0000           -0.8655392             -23.5525
       ...           ...                  ...                  ...
        55        2.0000           -0.5126477             -13.9499
        56        2.0000           -0.5093209             -13.8593
        57        2.0000           -0.5078134             -13.8183
        58        2.0000           -0.5042337             -13.7209
        59        2.0000           -0.4988161             -13.5735
        60        2.0000           -0.4848831             -13.1943
        61        2.0000           -0.4732596             -12.8780
        62        2.0000           -0.4662020             -12.6860
        63        2.0000           -0.4642386             -12.6326
        64        2.0000           -0.4595510             -12.5050
        65        2.0000           -0.4545444             -12.3688
        66        2.0000           -0.4503838             -12.2556
        67        2.0000           -0.4430015             -12.0547 (HOMO)
        68                         -0.3541745              -9.6376 (LUMO)
        69                         -0.3143345              -8.5535
        70                         -0.2980269              -8.1097
        71                         -0.2734262              -7.4403
        72                         -0.2585399              -7.0352
        73                         -0.2272327              -6.1833
        74                         -0.2024832              -5.5098
        75                         -0.1475000              -4.0137
        76                         -0.1426064              -3.8805
        77                         -0.1302582              -3.5445
        78                         -0.1283880              -3.4936
       ...                                ...                  ...
       134                          0.7575642              20.6144
      -------------------------------------------------------------
                  HL-Gap            0.0888270 Eh            2.4171 eV

Wiberg/Mayer (AO) data.
largest (>0.10) Wiberg bond orders for each atom

     #   Z sym  total        # sym  WBO       # sym  WBO       # sym  WBO
 ---------------------------------------------------------------------------
     1   6 C    3.855 --    26 H    0.985    28 H    0.980    27 H    0.980
                             2 O    0.877
     2   8 O    2.214 --     3 C    1.150     1 C    0.877     4 O    0.139
     3   6 C    3.842 --     4 O    1.705     2 O    1.150     5 C    0.869
     4   8 O    1.981 --     3 C    1.705     2 O    0.139
     5   6 C    3.964 --     7 N    0.983     6 C    0.971    24 C    0.955
                             3 C    0.869
     6   6 C    3.983 --    29 H    0.985    30 H    0.983    31 H    0.982
                             5 C    0.971
     7   7 N    3.026 --     8 C    1.756     5 C    0.983
     8   6 C    3.928 --     7 N    1.756    21 N    1.070     9 C    0.977
     9   6 C    3.933 --    11 C    0.990     8 C    0.977    10 C    0.976
                            12 N    0.925
    10   6 C    3.987 --    34 H    0.985    32 H    0.985    33 H    0.976
                             9 C    0.976
    11   6 C    3.989 --     9 C    0.990    37 H    0.985    36 H    0.983
                            35 H    0.982
    12   7 N    3.324 --    13 C    1.230     9 C    0.925    38 H    0.895
                            14 O    0.171
    13   6 C    3.914 --    14 O    1.609    12 N    1.230    15 C    0.991
    14   8 O    1.923 --    13 C    1.609    12 N    0.171
    15   6 C    3.876 --    16 N    1.607    20 O    1.065    13 C    0.991
    16   7 N    3.019 --    15 C    1.607    17 N    1.203
    17   7 N    2.981 --    18 C    1.601    16 N    1.203
    18   6 C    3.870 --    17 N    1.601    20 O    1.084    19 C    1.032
    19   6 C    3.986 --    18 C    1.032    40 H    0.981    39 H    0.968
                            41 H    0.958
    20   8 O    2.332 --    18 C    1.084    15 C    1.065
    21   7 N    3.431 --    22 C    1.183     8 C    1.070    42 H    0.880
                            23 O    0.148
    22   6 C    3.892 --    23 O    1.673    21 N    1.183    24 C    0.908
    23   8 O    1.956 --    22 C    1.673    21 N    0.148
    24   6 C    3.847 --    25 O    1.810     5 C    0.955    22 C    0.908
    25   8 O    2.021 --    24 C    1.810
    26   1 H    1.008 --     1 C    0.985
    27   1 H    1.004 --     1 C    0.980
    28   1 H    1.004 --     1 C    0.980
    29   1 H    1.000 --     6 C    0.985
    30   1 H    1.004 --     6 C    0.983
    31   1 H    1.006 --     6 C    0.982
    32   1 H    1.000 --    10 C    0.985
    33   1 H    1.010 --    10 C    0.976
    34   1 H    1.001 --    10 C    0.985
    35   1 H    1.004 --    11 C    0.982
    36   1 H    1.009 --    11 C    0.983
    37   1 H    1.004 --    11 C    0.985
    38   1 H    0.952 --    12 N    0.895
    39   1 H    0.996 --    19 C    0.968
    40   1 H    0.998 --    19 C    0.981
    41   1 H    0.996 --    19 C    0.958
    42   1 H    0.927 --    21 N    0.880
 ---------------------------------------------------------------------------

           -------------------------------------------------
          | TOTAL ENERGY              -83.000430055763 Eh   |
          | GRADIENT NORM               0.000803319884 Eh/α |
          | HOMO-LUMO GAP               2.417106275022 eV   |
           -------------------------------------------------

 * finished run on 2023/06/21 at 17:32:48.730
