                         Program Version 5.0.1 -  RELEASE  -
|  1> # ORCA input file
|  2> ! SP r2SCAN-3c CPCM
|  3>
|  4> %maxcore 1875.0
|  5> %pal nprocs 4 end
|  6> %cpcm smd true SMDsolvent "DMSO" end
|  7>
|  8> *xyz 1 1
|  9> C       3.534366   -0.428519    0.818906
| 10> Cl      1.775400   -0.142270    0.922221
| 11> C       1.241262   -0.221650   -0.836904
| 12> O       2.058335   -0.443323   -1.658391
| 13> C      -0.163071    0.014472   -0.926260
| 14> N      -0.907536    0.038657   -2.007076
| 15> N      -2.152349    0.294940   -1.614178
| 16> C      -2.134529    0.418918   -0.305196
| 17> C      -3.270886    0.694369    0.589580
| 18> O      -0.905434    0.251375    0.177598
| 19> H       4.039398    0.457509    1.192539
| 20> H       3.792688   -0.608220   -0.223960
| 21> H       3.764649   -1.298976    1.426209
| 22> H      -3.737107   -0.248723    0.883666
| 23> H      -4.013044    1.300505    0.072898
| 24> H      -2.922145    1.198500    1.488347
| 25> **                         ****END OF INPUT****

CARTESIAN COORDINATES (ANGSTROEM)
---------------------------------
  C      3.534366   -0.428519    0.818906
  Cl     1.775400   -0.142270    0.922221
  C      1.241262   -0.221650   -0.836904
  O      2.058335   -0.443323   -1.658391
  C     -0.163071    0.014472   -0.926260
  N     -0.907536    0.038657   -2.007076
  N     -2.152349    0.294940   -1.614178
  C     -2.134529    0.418918   -0.305196
  C     -3.270886    0.694369    0.589580
  O     -0.905434    0.251375    0.177598
  H      4.039398    0.457509    1.192539
  H      3.792688   -0.608220   -0.223960
  H      3.764649   -1.298976    1.426209
  H     -3.737107   -0.248723    0.883666
  H     -4.013044    1.300505    0.072898
  H     -2.922145    1.198500    1.488347

 Total Charge           Charge          ....    1
 Multiplicity           Mult            ....    1
 Number of Electrons    NEL             ....   82
 Basis Dimension        Dim             ....  248

ORBITAL ENERGIES
----------------

  NO   OCC          E(Eh)            E(eV)
   0   2.0000    -101.356332     -2758.0460
   1   2.0000     -19.107439      -519.9398
   2   2.0000     -19.052598      -518.4475
   3   2.0000     -14.255001      -387.8983
   4   2.0000     -14.233893      -387.3239
   5   2.0000     -10.251845      -278.9669
   6   2.0000     -10.194416      -277.4042
   7   2.0000     -10.188554      -277.2447
   8   2.0000     -10.128254      -275.6038
   9   2.0000     -10.060461      -273.7591
  10   2.0000      -9.510576      -258.7959
  11   2.0000      -7.255091      -197.4211
  12   2.0000      -7.250815      -197.3047
  13   2.0000      -7.244349      -197.1288
  14   2.0000      -1.199414       -32.6377
  15   2.0000      -1.130900       -30.7733
  16   2.0000      -1.023327       -27.8461
  17   2.0000      -0.954177       -25.9645
  18   2.0000      -0.872061       -23.7300
  19   2.0000      -0.763150       -20.7664
  20   2.0000      -0.735768       -20.0213
  21   2.0000      -0.696282       -18.9468
  22   2.0000      -0.643630       -17.5141
  23   2.0000      -0.619463       -16.8564
  24   2.0000      -0.566737       -15.4217
  25   2.0000      -0.536280       -14.5929
  26   2.0000      -0.516054       -14.0425
  27   2.0000      -0.492622       -13.4049
  28   2.0000      -0.487945       -13.2777
  29   2.0000      -0.473108       -12.8739
  30   2.0000      -0.451444       -12.2844
  31   2.0000      -0.434556       -11.8249
  32   2.0000      -0.416573       -11.3355
  33   2.0000      -0.406689       -11.0666
  34   2.0000      -0.398099       -10.8328
  35   2.0000      -0.385182       -10.4813
  36   2.0000      -0.367190        -9.9918
  37   2.0000      -0.356977        -9.7138
  38   2.0000      -0.352026        -9.5791
  39   2.0000      -0.299914        -8.1611
  40   2.0000      -0.292858        -7.9691
  41   0.0000      -0.167432        -4.5560
  42   0.0000      -0.093173        -2.5354
  43   0.0000      -0.067502        -1.8368
  44   0.0000      -0.057404        -1.5620
  45   0.0000      -0.008674        -0.2360

MULLIKEN ATOMIC CHARGES
-----------------------
   0 C :   -0.308462
   1 Cl:    0.227554
   2 C :    0.097763
   3 O :   -0.273548
   4 C :    0.414114
   5 N :   -0.114938
   6 N :   -0.181469
   7 C :    0.408934
   8 C :   -0.609224
   9 O :   -0.041770
  10 H :    0.243359
  11 H :    0.242137
  12 H :    0.242131
  13 H :    0.228998
  14 H :    0.215792
  15 H :    0.208629
Sum of atomic charges:    1.0000000

LOEWDIN ATOMIC CHARGES
----------------------
   0 C :   -0.308520
   1 Cl:    0.594209
   2 C :    0.281881
   3 O :   -0.320619
   4 C :    0.359930
   5 N :   -0.262962
   6 N :   -0.293855
   7 C :    0.428044
   8 C :   -0.302137
   9 O :   -0.392970
  10 H :    0.198411
  11 H :    0.210896
  12 H :    0.198717
  13 H :    0.209720
  14 H :    0.202171
  15 H :    0.197083

  Mayer bond orders larger than 0.100000
B(  0-C ,  1-Cl) :   0.8526 B(  0-C , 10-H ) :   0.9171 B(  0-C , 11-H ) :   0.8998
B(  0-C , 12-H ) :   0.9165 B(  1-Cl,  2-C ) :   0.6715 B(  1-Cl,  3-O ) :   0.1326
B(  2-C ,  3-O ) :   2.0033 B(  2-C ,  4-C ) :   1.0466 B(  4-C ,  5-N ) :   1.4979
B(  4-C ,  9-O ) :   1.0653 B(  5-N ,  6-N ) :   1.3058 B(  6-N ,  7-C ) :   1.4612
B(  7-C ,  8-C ) :   0.8760 B(  7-C ,  9-O ) :   1.1374 B(  8-C , 13-H ) :   0.9090
B(  8-C , 14-H ) :   0.9564 B(  8-C , 15-H ) :   0.9628

Dispersion correction           -0.004923226
FINAL SINGLE POINT ENERGY      -913.912682254884

DIPOLE MOMENT
-------------
                                X             Y             Z
Electronic contribution:      4.31898      -0.90443      -1.24274
Nuclear contribution   :     -2.31732       0.85799       4.45985
                        -----------------------------------------
Total Dipole Moment    :      2.00167      -0.04643       3.21711
                        -----------------------------------------
Magnitude (a.u.)       :      3.78928
Magnitude (Debye)      :      9.63158

Rotational constants in cm-1:     0.092136     0.022903     0.018472
Rotational constants in MHz :  2762.153935   686.610918   553.763806

                             ****ORCA TERMINATED NORMALLY****
TOTAL RUN TIME: 0 days 0 hours 0 minutes 21 seconds 47 msec
