   * xtb version 6.5.1 (579679a) compiled by 'ehlert@majestix' on 2022-07-11
          program call               : /lustre/hpc/kemi/ree/PhD/git/ReactivityQM/dep/xtb-6.5.1/bin/xtb --gfn 1 /lustre/hpc/kemi/ree/PhD/git/ReactivityQM/calculations/RaltegravirCLI/reac01prodN08/conf03/RaltegravirCLI_reac01prodN08_conf03_gfn1.xyz --opt --vfukui --chrg 1 --uhf 0 --alpb DMSO

   ID    Z sym.   atoms
    1    6 C      1, 3, 5, 8, 9
    2   17 Cl     2
    3    8 O      4, 10
    4    7 N      6, 7
    5    1 H      11-16

      * Solvation model:               ALPB
        Solvent                        DMSO
        Solvent mass                       7.8130E+01 g/mol
          :  Hamiltonian                  GFN1-xTB          :
 * total energy  :   -33.3907193 Eh     change       -0.9286794E-11 Eh
 * total energy  :   -33.3949421 Eh     change       -0.4222790E-02 Eh
 * total energy  :   -33.3965901 Eh     change       -0.1647985E-02 Eh
 * total energy  :   -33.3974123 Eh     change       -0.8222535E-03 Eh
 * total energy  :   -33.3979376 Eh     change       -0.5252712E-03 Eh
 * total energy  :   -33.3983337 Eh     change       -0.3960966E-03 Eh
 * total energy  :   -33.3985625 Eh     change       -0.2287757E-03 Eh
 * total energy  :   -33.3986764 Eh     change       -0.1139336E-03 Eh
 * total energy  :   -33.3987344 Eh     change       -0.5800515E-04 Eh
 * total energy  :   -33.3987620 Eh     change       -0.2757772E-04 Eh
 * total energy  :   -33.3987721 Eh     change       -0.1014581E-04 Eh
 * total energy  :   -33.3987766 Eh     change       -0.4483589E-05 Eh
 * total energy  :   -33.3987793 Eh     change       -0.2741855E-05 Eh
   *** GEOMETRY OPTIMIZATION CONVERGED AFTER 13 ITERATIONS ***

 final structure:
================
16
 xtb: 6.5.1 (579679a)
C            3.53436636377035       -0.42851949106024        0.81890637566099
Cl           1.77539994821052       -0.14227037160283        0.92222063232472
C            1.24126162293806       -0.22165034485482       -0.83690386166086
O            2.05833514399535       -0.44332299102301       -1.65839090066790
C           -0.16307114983243        0.01447248894573       -0.92626007817731
N           -0.90753555438354        0.03865659724291       -2.00707566055997
N           -2.15234932865998        0.29493985237055       -1.61417802880683
C           -2.13452888565092        0.41891793689042       -0.30519608273878
C           -3.27088591086085        0.69436935638171        0.58957990566392
O           -0.90543382813922        0.25137517974559        0.17759796975346
H            4.03939814998339        0.45750875619322        1.19253868526046
H            3.79268771999709       -0.60822028225934       -0.22396042736011
H            3.76464933008648       -1.29897605767112        1.42620922573287
H           -3.73710650439706       -0.24872254664770        0.88366625650137
H           -4.01304360018484        1.30050511784054        0.07289770116392
H           -2.92214451687325        1.19849979950742        1.48834728790952

          :  Hamiltonian                  GFN1-xTB          :
         :: total energy             -33.398779338996 Eh    ::
         :: gradient norm              0.000652998658 Eh/a0 ::
         :: HOMO-LUMO gap              2.755828164673 eV    ::
         :: SCC energy               -33.693427240025 Eh    ::
         :: -> Gsolv                  -0.088088667276 Eh    ::
         :: repulsion energy           0.301432250879 Eh    ::

    * Orbital Energies and Occupations

         #    Occupation            Energy/Eh            Energy/eV
      -------------------------------------------------------------
         1        2.0000           -1.0682002             -29.0672
       ...           ...                  ...                  ...
        15        2.0000           -0.6280001             -17.0888
        16        2.0000           -0.6108779             -16.6228
        17        2.0000           -0.6048924             -16.4600
        18        2.0000           -0.5833908             -15.8749
        19        2.0000           -0.5769219             -15.6988
        20        2.0000           -0.5724606             -15.5774
        21        2.0000           -0.5592689             -15.2185
        22        2.0000           -0.5556144             -15.1190
        23        2.0000           -0.5499900             -14.9660
        24        2.0000           -0.5440436             -14.8042
        25        2.0000           -0.5264657             -14.3259
        26        2.0000           -0.5003474             -13.6151
        27        2.0000           -0.4961561             -13.5011 (HOMO)
        28                         -0.3948813             -10.7453 (LUMO)
        29                         -0.3162064              -8.6044
        30                         -0.3003025              -8.1716
        31                         -0.2983085              -8.1174
        32                         -0.2714788              -7.3873
        33                         -0.1860907              -5.0638
        34                         -0.1805133              -4.9120
        35                         -0.1624905              -4.4216
        36                         -0.1597251              -4.3463
        37                         -0.1595620              -4.3419
        38                         -0.1100518              -2.9947
       ...                                ...                  ...
        57                          0.7715434              20.9948
      -------------------------------------------------------------
                  HL-Gap            0.1012748 Eh            2.7558 eV

Wiberg/Mayer (AO) data.
largest (>0.10) Wiberg bond orders for each atom

     #   Z sym  total        # sym  WBO       # sym  WBO       # sym  WBO
 ---------------------------------------------------------------------------
     1   6 C    3.860 --    11 H    0.979    13 H    0.978    12 H    0.967
                             2 Cl   0.912
     2  17 Cl   1.920 --     1 C    0.912     3 C    0.787     4 O    0.146
     3   6 C    3.874 --     4 O    1.836     5 C    1.115     2 Cl   0.787
     4   8 O    2.158 --     3 C    1.836     2 Cl   0.146
     5   6 C    3.883 --     6 N    1.498     3 C    1.115    10 O    1.037
     6   7 N    3.023 --     5 C    1.498     7 N    1.309
     7   7 N    2.997 --     8 C    1.493     6 N    1.309
     8   6 C    3.845 --     7 N    1.493    10 O    1.112     9 C    1.045
     9   6 C    3.974 --     8 C    1.045    16 H    0.970    15 H    0.968
                            14 H    0.938
    10   8 O    2.338 --     8 C    1.112     5 C    1.037
    11   1 H    0.994 --     1 C    0.979
    12   1 H    0.994 --     1 C    0.967
    13   1 H    0.994 --     1 C    0.978
    14   1 H    0.988 --     9 C    0.938
    15   1 H    0.991 --     9 C    0.968
    16   1 H    0.991 --     9 C    0.970
 ---------------------------------------------------------------------------

           -------------------------------------------------
          | TOTAL ENERGY              -33.398779338996 Eh   |
          | GRADIENT NORM               0.000652998658 Eh/α |
          | HOMO-LUMO GAP               2.755828164673 eV   |
           -------------------------------------------------

 * finished run on 2023/06/20 at 14:55:57.950
