   * xtb version 6.5.1 (579679a) compiled by 'ehlert@majestix' on 2022-07-11
          program call               : /lustre/hpc/kemi/ree/PhD/git/ReactivityQM/dep/xtb-6.5.1/bin/xtb --gfn 1 /lustre/hpc/kemi/ree/PhD/git/ReactivityQM/calculations/R02methylcation/reac01prodN13/conf16/R02methylcation_reac01prodN13_conf16_gfn1.xyz --opt --vfukui --chrg 0 --uhf 0 --alpb DMSO

   ID    Z sym.   atoms
    1    6 C      1, 3, 5, 7-10, 12, 14, 17-19, 22, 24
    2    8 O      2, 4, 13, 20, 23, 25
    3    7 N      6, 11, 15, 16, 21
    4    1 H      26-42

      * Solvation model:               ALPB
        Solvent                        DMSO
        Solvent mass                       7.8130E+01 g/mol
          :  Hamiltonian                  GFN1-xTB          :
 * total energy  :   -82.9275343 Eh     change       -0.2835066E-10 Eh
 * total energy  :   -82.9378206 Eh     change       -0.1028627E-01 Eh
 * total energy  :   -82.9418942 Eh     change       -0.4073635E-02 Eh
 * total energy  :   -82.9426943 Eh     change       -0.8000872E-03 Eh
 * total energy  :   -82.9434454 Eh     change       -0.7510577E-03 Eh
 * total energy  :   -82.9439829 Eh     change       -0.5375172E-03 Eh
 * total energy  :   -82.9444093 Eh     change       -0.4263679E-03 Eh
 * total energy  :   -82.9446879 Eh     change       -0.2786198E-03 Eh
 * total energy  :   -82.9448433 Eh     change       -0.1554517E-03 Eh
 * total energy  :   -82.9449388 Eh     change       -0.9547540E-04 Eh
 * total energy  :   -82.9464070 Eh     change       -0.3826638E-04 Eh
 * total energy  :   -82.9464405 Eh     change       -0.3356336E-04 Eh
 * total energy  :   -82.9464648 Eh     change       -0.2424058E-04 Eh
 * total energy  :   -82.9464854 Eh     change       -0.2065124E-04 Eh
 * total energy  :   -82.9464989 Eh     change       -0.1348603E-04 Eh
 * total energy  :   -82.9465093 Eh     change       -0.1035970E-04 Eh
 * total energy  :   -82.9465199 Eh     change       -0.1057229E-04 Eh
 * total energy  :   -82.9465251 Eh     change       -0.5224641E-05 Eh
 * total energy  :   -82.9465276 Eh     change       -0.2546490E-05 Eh
   *** GEOMETRY OPTIMIZATION CONVERGED AFTER 44 ITERATIONS ***

 final structure:
================
42
 xtb: 6.5.1 (579679a)
C           -7.06269465462144        0.52528825287882       -0.68136326790171
O           -5.82467832139925        0.60849143437121        0.02512746114298
C           -4.77403980970055        0.02136439409831       -0.55008889736202
O           -4.84425294576891       -0.54765540806874       -1.62084566018726
C           -3.51959346186892        0.11491064008470        0.24069429916147
N           -2.49038336311282       -0.55957010683768       -0.31249011555817
C           -1.33117715505553       -0.60790417991149        0.27673873417637
C           -0.21195996084869       -1.41661446344416       -0.33382913335605
C           -0.46121103531152       -1.62877797292004       -1.83026109477943
C           -0.10027289397525       -2.75558684840105        0.40276442835155
N            1.04536417665099       -0.69252226018840       -0.13907402557168
C            1.16497314028654        0.60590511846186       -0.49388256693973
O            0.25022271262500        1.30308494428402       -0.89984883692290
C            2.54343949423584        1.11994540416622       -0.32790292969779
N            2.94430270470470        2.36943039575436       -0.61006222393372
N            4.20597514452136        2.45121526503759       -0.39860417697886
C            4.69870331229798        1.17337957455295        0.04127835870756
C            5.69579861309077        0.60979722208309       -0.97457847888329
C            5.29300147656030        1.27675681433686        1.44714927629071
O            3.52975120554103        0.34785907046172        0.06998637383926
N           -1.10463424423505       -0.01413363070290        1.47623314810628
C           -2.04211085925623        0.74427088151045        2.15406338773217
O           -1.75891373085291        1.26170785777660        3.21678084731563
C           -3.39417146904523        0.84860491201712        1.47485538114636
O           -4.27727482907652        1.52534640900739        1.99710896892209
H           -7.32263744986259       -0.52021696683464       -0.86452043079269
H           -6.98830637311927        1.04896792643511       -1.63770015122995
H           -7.81542426216382        0.99589572953830       -0.05181706409626
H           -0.54588785265286       -0.66747482092767       -2.33550790862529
H           -1.38905639639556       -2.18274751575797       -1.96485964044266
H            0.36267985010467       -2.19196388325218       -2.26178266990849
H            0.71313254862262       -3.34081804135358       -0.02054511822918
H           -1.03006764598981       -3.31232553698531        0.29697845719649
H            0.09582269502142       -2.58779605002326        1.45988670511650
H            1.86444964506189       -1.21066544224784        0.12591217560163
H            5.21708705806866        0.54174416027996       -1.94920515879718
H            6.00987613549482       -0.38015793352620       -0.65394666106135
H            6.55792957591832        1.26940610179305       -1.03359026435212
H            5.58616392655898        0.28547417687798        1.78330555233820
H            6.16281135639046        1.92853824936230        1.42037736423475
H            4.54833076213844        1.68578403822078        2.12660067895460
H           -0.20106781958256       -0.11302491203345        1.91046687726100

          :  Hamiltonian                  GFN1-xTB          :
         :: total energy             -82.946527624043 Eh    ::
         :: gradient norm              0.000273357882 Eh/a0 ::
         :: HOMO-LUMO gap              0.060086494214 eV    ::
         :: SCC energy               -83.713736894020 Eh    ::
         :: -> Gsolv                  -0.081259419767 Eh    ::
         :: repulsion energy           0.793199255077 Eh    ::

    * Orbital Energies and Occupations

         #    Occupation            Energy/Eh            Energy/eV
      -------------------------------------------------------------
         1        2.0000           -0.8801552             -23.9502
       ...           ...                  ...                  ...
        55        2.0000           -0.5160596             -14.0427
        56        2.0000           -0.5117784             -13.9262
        57        2.0000           -0.5074183             -13.8076
        58        2.0000           -0.5027487             -13.6805
        59        2.0000           -0.4917757             -13.3819
        60        2.0000           -0.4864901             -13.2381
        61        2.0000           -0.4837088             -13.1624
        62        2.0000           -0.4750781             -12.9275
        63        2.0000           -0.4721181             -12.8470
        64        2.0000           -0.4662138             -12.6863
        65        2.0000           -0.4583067             -12.4712
        66        2.0000           -0.4241858             -11.5427
        67        1.5234           -0.4069424             -11.0735 (HOMO)
        68        0.4766           -0.4047342             -11.0134 (LUMO)
        69                         -0.3219116              -8.7597
        70                         -0.3100992              -8.4382
        71                         -0.2831327              -7.7044
        72                         -0.2355919              -6.4108
        73                         -0.2215927              -6.0298
        74                         -0.1574685              -4.2849
        75                         -0.1421428              -3.8679
        76                         -0.1387897              -3.7767
        77                         -0.1366914              -3.7196
        78                         -0.1349880              -3.6732
       ...                                ...                  ...
       134                          0.7458363              20.2952
      -------------------------------------------------------------
                  HL-Gap            0.0022081 Eh            0.0601 eV

Wiberg/Mayer (AO) data.
largest (>0.10) Wiberg bond orders for each atom

     #   Z sym  total        # sym  WBO       # sym  WBO       # sym  WBO
 ---------------------------------------------------------------------------
     1   6 C    3.875 --    28 H    0.986    26 H    0.979    27 H    0.979
                             2 O    0.902
     2   8 O    2.193 --     3 C    1.108     1 C    0.902     4 O    0.132
     3   6 C    3.841 --     4 O    1.633     2 O    1.108     5 C    1.022
     4   8 O    1.878 --     3 C    1.633     2 O    0.132
     5   6 C    3.718 --     6 N    1.302    24 C    1.161     3 C    1.022
     6   7 N    2.982 --     7 C    1.470     5 C    1.302
     7   6 C    3.799 --     6 N    1.470    21 N    1.190     8 C    0.982
     8   6 C    3.928 --     9 C    0.983     7 C    0.982    10 C    0.977
                            11 N    0.923
     9   6 C    3.983 --    31 H    0.985     8 C    0.983    30 H    0.982
                            29 H    0.982
    10   6 C    3.978 --    34 H    0.984    33 H    0.983    32 H    0.981
                             8 C    0.977
    11   7 N    3.332 --    12 C    1.246     8 C    0.923    35 H    0.886
                            13 O    0.186
    12   6 C    3.910 --    13 O    1.578    11 N    1.246    14 C    0.999
    13   8 O    1.876 --    12 C    1.578    11 N    0.186
    14   6 C    3.635 --    15 N    1.315    20 O    1.170    12 C    0.999
    15   7 N    3.001 --    16 N    1.543    14 C    1.315
    16   7 N    2.687 --    15 N    1.543    17 C    1.023
    17   6 C    3.834 --    16 N    1.023    19 C    0.941    18 C    0.938
                            20 O    0.871
    18   6 C    3.937 --    36 H    0.982    38 H    0.982    37 H    0.980
                            17 C    0.938
    19   6 C    3.939 --    41 H    0.982    40 H    0.982    39 H    0.980
                            17 C    0.941
    20   8 O    2.196 --    14 C    1.170    17 C    0.871
    21   7 N    3.432 --     7 C    1.190    22 C    1.111    42 H    0.883
                            23 O    0.113
    22   6 C    3.841 --    23 O    1.650    21 N    1.111    24 C    0.948
    23   8 O    1.872 --    22 C    1.650    21 N    0.113
    24   6 C    3.863 --    25 O    1.614     5 C    1.161    22 C    0.948
    25   8 O    1.790 --    24 C    1.614
    26   1 H    1.008 --     1 C    0.979
    27   1 H    1.007 --     1 C    0.979
    28   1 H    1.011 --     1 C    0.986
    29   1 H    1.006 --     9 C    0.982
    30   1 H    1.008 --     9 C    0.982
    31   1 H    1.000 --     9 C    0.985
    32   1 H    0.995 --    10 C    0.981
    33   1 H    0.998 --    10 C    0.983
    34   1 H    0.997 --    10 C    0.984
    35   1 H    0.925 --    11 N    0.886
    36   1 H    0.996 --    18 C    0.982
    37   1 H    0.996 --    18 C    0.980
    38   1 H    0.997 --    18 C    0.982
    39   1 H    0.996 --    19 C    0.980
    40   1 H    0.997 --    19 C    0.982
    41   1 H    0.996 --    19 C    0.982
    42   1 H    0.931 --    21 N    0.883
 ---------------------------------------------------------------------------

           -------------------------------------------------
          | TOTAL ENERGY              -82.946527624043 Eh   |
          | GRADIENT NORM               0.000273357882 Eh/α |
          | HOMO-LUMO GAP               0.060086494214 eV   |
           -------------------------------------------------

 * finished run on 2023/06/21 at 17:46:47.858
