   * xtb version 6.5.1 (579679a) compiled by 'ehlert@majestix' on 2022-07-11
          program call               : /lustre/hpc/kemi/ree/PhD/git/ReactivityQM/dep/xtb-6.5.1/bin/xtb --gfn 1 /lustre/hpc/kemi/ree/PhD/git/ReactivityQM/calculations/R02oxygendeprot/reac01prodN10/conf11/R02oxygendeprot_reac01prodN10_conf11_gfn1.xyz --opt --vfukui --chrg 0 --uhf 0 --alpb DMSO

   ID    Z sym.   atoms
    1    6 C      1, 3, 5, 6, 8, 11-15, 17, 19, 22, 23
    2    8 O      2, 4, 7, 9, 18, 24
    3    7 N      10, 16, 20, 21, 25
    4    1 H      26-42

      * Solvation model:               ALPB
        Solvent                        DMSO
        Solvent mass                       7.8130E+01 g/mol
          :  Hamiltonian                  GFN1-xTB          :
 * total energy  :   -82.9625258 Eh     change       -0.1554668E-10 Eh
 * total energy  :   -82.9748876 Eh     change       -0.1236182E-01 Eh
 * total energy  :   -82.9800375 Eh     change       -0.5149900E-02 Eh
 * total energy  :   -82.9809231 Eh     change       -0.8856404E-03 Eh
 * total energy  :   -82.9814335 Eh     change       -0.5103917E-03 Eh
 * total energy  :   -82.9817215 Eh     change       -0.2880044E-03 Eh
 * total energy  :   -82.9819383 Eh     change       -0.2167501E-03 Eh
 * total energy  :   -82.9820971 Eh     change       -0.1587807E-03 Eh
 * total energy  :   -82.9822212 Eh     change       -0.1240852E-03 Eh
 * total energy  :   -82.9823184 Eh     change       -0.9728660E-04 Eh
 * total energy  :   -82.9826973 Eh     change       -0.1540577E-04 Eh
 * total energy  :   -82.9827115 Eh     change       -0.1421268E-04 Eh
 * total energy  :   -82.9827187 Eh     change       -0.7215460E-05 Eh
 * total energy  :   -82.9827265 Eh     change       -0.7776580E-05 Eh
 * total energy  :   -82.9827316 Eh     change       -0.5140235E-05 Eh
 * total energy  :   -82.9827464 Eh     change       -0.1478078E-04 Eh
 * total energy  :   -82.9827544 Eh     change       -0.8006720E-05 Eh
 * total energy  :   -82.9827594 Eh     change       -0.5017357E-05 Eh
 * total energy  :   -82.9827639 Eh     change       -0.4530357E-05 Eh
   *** GEOMETRY OPTIMIZATION CONVERGED AFTER 28 ITERATIONS ***

 final structure:
================
42
 xtb: 6.5.1 (579679a)
C           -4.25348284776914        3.20510912708964       -1.21673079000953
O           -3.59845983027046        2.26013947383746       -0.35983454475661
C           -3.12700080162102        1.16702082295904       -0.92991064983205
O           -3.19302606429727        0.92305565332450       -2.10791420438928
C           -2.46442859664539        0.23522930665368        0.06703848971388
C           -2.74298637335899        0.33125478462410        1.52979302870309
O           -3.75414290996978        0.78607113104102        1.99770532125505
C           -1.62863691744573       -0.25650476007878        2.40086608813851
O           -1.45843480916901        0.06059531182349        3.55942155903203
N           -0.83203708835716       -1.13091878926068        1.74864749363274
C           -1.02857382471985       -1.61993608319835        0.39328589837660
C           -1.93212628760094       -2.86068369194821        0.43542068027510
C            0.36720950926264       -1.87775573765414       -0.25935179318322
C            1.14586367770311       -2.99286348779848        0.44406369411753
C            0.20911606059850       -2.19818079193442       -1.74912854099869
N            1.08893338824579       -0.61068527853201       -0.10549959342226
C            2.34464060204447       -0.39514971692003       -0.55212455301389
O            3.00513986933340       -1.16407871654021       -1.22672403280595
C            2.82633165583783        0.94365635637776       -0.12320597332693
N            2.16199674666911        1.80487528079663        0.58768932815189
N            2.97544070333767        2.88473823799016        0.75679865551594
C            4.08499051203093        2.61249683218000        0.13859424023163
C            5.28989074786803        3.46324084068081        0.02453009686502
O            4.05071752642543        1.40213180355303       -0.43780026449692
N           -1.69804739967532       -0.65495808366757       -0.42649879401901
H           -4.54789877236765        4.04167762756125       -0.58717227943600
H           -3.56646345960612        3.53594521409173       -1.99805085907230
H           -5.12999715117511        2.74268127663756       -1.67476673134283
H           -0.16837474296759       -1.62918099711274        2.32115791471244
H           -1.47360505432661       -3.63181092496894        1.04840178072040
H           -2.88815029014611       -2.58046485457462        0.87459583283779
H           -2.10063645710118       -3.24260727515380       -0.56831384961912
H            0.62183884989642       -3.94092142318135        0.34660003381636
H            2.12589201165557       -3.09116573832087       -0.02109792958140
H            1.28674233912192       -2.76941896613977        1.49937203665066
H           -0.32485491045803       -1.39527042205671       -2.25507678767035
H           -0.34231032117819       -3.12765778452740       -1.87425099049522
H            1.19065079168590       -2.31705874560086       -2.20393273223304
H            0.69650120186102        0.07126622697244        0.52959607240947
H            5.46752582882256        3.71831164530535       -1.02013218569543
H            5.15173680765323        4.37376330134544        0.60202748671789
H            6.16251508016791        2.92401401433546        0.39191034752784

          :  Hamiltonian                  GFN1-xTB          :
         :: total energy             -82.982763938222 Eh    ::
         :: gradient norm              0.000542157299 Eh/a0 ::
         :: HOMO-LUMO gap              1.766553869202 eV    ::
         :: SCC energy               -83.763828884588 Eh    ::
         :: -> Gsolv                  -0.054960482157 Eh    ::
         :: repulsion energy           0.808429844415 Eh    ::

    * Orbital Energies and Occupations

         #    Occupation            Energy/Eh            Energy/eV
      -------------------------------------------------------------
         1        2.0000           -0.8661987             -23.5705
       ...           ...                  ...                  ...
        55        2.0000           -0.5084670             -13.8361
        56        2.0000           -0.5082513             -13.8302
        57        2.0000           -0.5076561             -13.8140
        58        2.0000           -0.5042246             -13.7206
        59        2.0000           -0.4981149             -13.5544
        60        2.0000           -0.4853237             -13.2063
        61        2.0000           -0.4837684             -13.1640
        62        2.0000           -0.4720577             -12.8453
        63        2.0000           -0.4649032             -12.6507
        64        2.0000           -0.4631698             -12.6035
        65        2.0000           -0.4545287             -12.3684
        66        2.0000           -0.4502497             -12.2519
        67        2.0000           -0.4404382             -11.9849 (HOMO)
        68                         -0.3755185             -10.2184 (LUMO)
        69                         -0.3227425              -8.7823
        70                         -0.3134781              -8.5302
        71                         -0.2592816              -7.0554
        72                         -0.2528444              -6.8802
        73                         -0.2077532              -5.6533
        74                         -0.2016129              -5.4862
        75                         -0.1458248              -3.9681
        76                         -0.1445160              -3.9325
        77                         -0.1436643              -3.9093
        78                         -0.1390150              -3.7828
       ...                                ...                  ...
       134                          0.7651287              20.8202
      -------------------------------------------------------------
                  HL-Gap            0.0649197 Eh            1.7666 eV

Wiberg/Mayer (AO) data.
largest (>0.10) Wiberg bond orders for each atom

     #   Z sym  total        # sym  WBO       # sym  WBO       # sym  WBO
 ---------------------------------------------------------------------------
     1   6 C    3.859 --    26 H    0.985    27 H    0.979    28 H    0.978
                             2 O    0.884
     2   8 O    2.226 --     3 C    1.148     1 C    0.884     4 O    0.147
     3   6 C    3.854 --     4 O    1.684     2 O    1.148     5 C    0.945
     4   8 O    1.949 --     3 C    1.684     2 O    0.147
     5   6 C    3.954 --    25 N    1.797     6 C    0.991     3 C    0.945
     6   6 C    3.855 --     7 O    1.808     5 C    0.991     8 C    0.905
     7   8 O    2.013 --     6 C    1.808
     8   6 C    3.903 --     9 O    1.639    10 N    1.243     6 C    0.905
     9   8 O    1.931 --     8 C    1.639    10 N    0.183
    10   7 N    3.359 --     8 C    1.243    11 C    0.934    29 H    0.881
                             9 O    0.183
    11   6 C    3.913 --    25 N    0.998    12 C    0.950    10 N    0.934
                            13 C    0.934
    12   6 C    3.982 --    31 H    0.982    32 H    0.980    30 H    0.979
                            11 C    0.950
    13   6 C    3.927 --    15 C    0.997    14 C    0.995    11 C    0.934
                            16 N    0.927
    14   6 C    3.989 --    13 C    0.995    33 H    0.982    35 H    0.980
                            34 H    0.975
    15   6 C    3.988 --    13 C    0.997    36 H    0.982    37 H    0.982
                            38 H    0.977
    16   7 N    3.342 --    17 C    1.249    13 C    0.927    39 H    0.894
                            18 O    0.177
    17   6 C    3.917 --    18 O    1.596    16 N    1.249    19 C    0.988
    18   8 O    1.915 --    17 C    1.596    16 N    0.177
    19   6 C    3.875 --    20 N    1.609    24 O    1.065    17 C    0.988
    20   7 N    3.017 --    19 C    1.609    21 N    1.200
    21   7 N    2.980 --    22 C    1.604    20 N    1.200
    22   6 C    3.870 --    21 N    1.604    24 O    1.083    23 C    1.031
    23   6 C    3.986 --    22 C    1.031    41 H    0.982    42 H    0.964
                            40 H    0.962
    24   8 O    2.331 --    22 C    1.083    19 C    1.065
    25   7 N    3.052 --     5 C    1.797    11 C    0.998
    26   1 H    1.008 --     1 C    0.985
    27   1 H    1.005 --     1 C    0.979
    28   1 H    1.004 --     1 C    0.978
    29   1 H    0.928 --    10 N    0.881
    30   1 H    0.999 --    12 C    0.979
    31   1 H    0.999 --    12 C    0.982
    32   1 H    0.999 --    12 C    0.980
    33   1 H    1.000 --    14 C    0.982
    34   1 H    1.005 --    14 C    0.975
    35   1 H    0.999 --    14 C    0.980
    36   1 H    1.014 --    15 C    0.982
    37   1 H    1.001 --    15 C    0.982
    38   1 H    1.009 --    15 C    0.977
    39   1 H    0.961 --    16 N    0.894
    40   1 H    0.997 --    23 C    0.962
    41   1 H    0.998 --    23 C    0.982
    42   1 H    0.996 --    23 C    0.964
 ---------------------------------------------------------------------------

           -------------------------------------------------
          | TOTAL ENERGY              -82.982763938222 Eh   |
          | GRADIENT NORM               0.000542157299 Eh/α |
          | HOMO-LUMO GAP               1.766553869202 eV   |
           -------------------------------------------------

 * finished run on 2023/06/21 at 17:25:24.033
