   * xtb version 6.5.1 (579679a) compiled by 'ehlert@majestix' on 2022-07-11
          program call               : /lustre/hpc/kemi/ree/PhD/git/ReactivityQM/dep/xtb-6.5.1/bin/xtb --gfn 1 /lustre/hpc/kemi/ree/PhD/git/ReactivityQM/calculations/R02methylcation/reac01prodN10/conf02/R02methylcation_reac01prodN10_conf02_gfn1.xyz --opt --vfukui --chrg 0 --uhf 0 --alpb DMSO

   ID    Z sym.   atoms
    1    6 C      1, 3, 5, 6, 8, 11-15, 17, 19, 22, 23
    2    8 O      2, 4, 7, 9, 18, 24
    3    7 N      10, 16, 20, 21, 25
    4    1 H      26-42

      * Solvation model:               ALPB
        Solvent                        DMSO
        Solvent mass                       7.8130E+01 g/mol
          :  Hamiltonian                  GFN1-xTB          :
 * total energy  :   -82.9661126 Eh     change       -0.1533351E-10 Eh
 * total energy  :   -82.9768460 Eh     change       -0.1073334E-01 Eh
 * total energy  :   -82.9812789 Eh     change       -0.4432918E-02 Eh
 * total energy  :   -82.9821375 Eh     change       -0.8586433E-03 Eh
 * total energy  :   -82.9828860 Eh     change       -0.7484456E-03 Eh
 * total energy  :   -82.9834705 Eh     change       -0.5845185E-03 Eh
 * total energy  :   -82.9839661 Eh     change       -0.4956597E-03 Eh
 * total energy  :   -82.9842904 Eh     change       -0.3242237E-03 Eh
 * total energy  :   -82.9844578 Eh     change       -0.1673915E-03 Eh
 * total energy  :   -82.9845742 Eh     change       -0.1164195E-03 Eh
 * total energy  :   -82.9854002 Eh     change       -0.2069978E-04 Eh
 * total energy  :   -82.9854116 Eh     change       -0.1135363E-04 Eh
 * total energy  :   -82.9854359 Eh     change       -0.2432276E-04 Eh
 * total energy  :   -82.9854494 Eh     change       -0.1353572E-04 Eh
 * total energy  :   -82.9854626 Eh     change       -0.1315944E-04 Eh
 * total energy  :   -82.9854772 Eh     change       -0.1464046E-04 Eh
 * total energy  :   -82.9854838 Eh     change       -0.6620545E-05 Eh
 * total energy  :   -82.9854893 Eh     change       -0.5460925E-05 Eh
 * total energy  :   -82.9854927 Eh     change       -0.3365218E-05 Eh
   *** GEOMETRY OPTIMIZATION CONVERGED AFTER 38 ITERATIONS ***

 final structure:
================
42
 xtb: 6.5.1 (579679a)
C            3.62249940183126       -2.50443134355516       -2.93283562867237
O            3.44842177244486       -1.41434220922951       -2.01794386279963
C            2.21399329227219       -0.98581852845442       -1.83040352224646
O            1.23732084146644       -1.44970055248725       -2.36139781658478
C            2.14643968784805        0.15984929836528       -0.83839879614296
C            3.33482430143275        1.01612408144537       -0.55968886570467
O            4.26762251791651        1.13956866580306       -1.31097112461360
C            3.25338715079032        1.77914719664900        0.76499221558682
O            4.22959851317582        2.24445030959961        1.31648129874357
N            2.00756648287233        1.86924145369350        1.27586132842742
C            0.78392358336492        1.40797882853913        0.64957141524122
C            0.14805429858474        2.56838713661485       -0.13266787071975
C           -0.16649460883845        0.81924406444874        1.74193533287409
C           -0.68320206084761        1.89972032417665        2.69364519037192
C            0.56836902518856       -0.28693236545302        2.50870483699664
N           -1.28650252150815        0.23399193360180        1.00480624142830
C           -2.34758924046743       -0.34807374634173        1.60072377132034
O           -2.55893623638305       -0.38065169807666        2.80181185941909
C           -3.29018211928881       -0.95081193177004        0.62436839761016
N           -4.40322038522129       -1.56491928464093        0.88153253434848
N           -4.93323858866776       -1.93805957223850       -0.31617805234393
C           -4.11118959722298       -1.52940089213645       -1.23254274213308
C           -4.23855519533573       -1.69434670774137       -2.69691972490530
O           -3.04964931326361       -0.89805455831143       -0.70435174154341
N            1.01090988161712        0.35796427854371       -0.29357317044054
H            3.27826527296250       -2.21242373245652       -3.92693316100502
H            3.05210195813408       -3.37029448026527       -2.59080688214770
H            4.68662463104472       -2.72925187194348       -2.94682559935471
H            1.91017520619693        2.46735831776668        2.08250040478436
H            0.80793265064598        2.84545505591836       -0.95260842450851
H            0.01799423591096        3.42490810059861        0.52368799905063
H           -0.81696354344148        2.26620420947880       -0.53281083061760
H            0.14601432658700        2.46824642468702        3.10849661957103
H           -1.22561116023609        1.43557183274595        3.51591481402597
H           -1.35591738814743        2.57874684600420        2.17373869007004
H            1.41658234612237        0.13413071677837        3.04481021811071
H            0.92578235673422       -1.04576545953241        1.81395656143512
H           -0.10882656285478       -0.74836628093698        3.22574599919788
H           -1.14434696580728        0.07613938989409        0.01655508294293
H           -5.23399447856848       -2.05908183147481       -2.93824996958323
H           -3.49721765784118       -2.40760068062497       -3.05780626266998
H           -4.06276811120511       -0.74256073768381       -3.19592376281239

          :  Hamiltonian                  GFN1-xTB          :
         :: total energy             -82.985492660285 Eh    ::
         :: gradient norm              0.000718915184 Eh/a0 ::
         :: HOMO-LUMO gap              1.752237335216 eV    ::
         :: SCC energy               -83.766505156770 Eh    ::
         :: -> Gsolv                  -0.056434072938 Eh    ::
         :: repulsion energy           0.808402337685 Eh    ::

    * Orbital Energies and Occupations

         #    Occupation            Energy/Eh            Energy/eV
      -------------------------------------------------------------
         1        2.0000           -0.8660254             -23.5658
       ...           ...                  ...                  ...
        55        2.0000           -0.5058798             -13.7657
        56        2.0000           -0.5058690             -13.7654
        57        2.0000           -0.5042129             -13.7203
        58        2.0000           -0.5009287             -13.6310
        59        2.0000           -0.4954904             -13.4830
        60        2.0000           -0.4819157             -13.1136
        61        2.0000           -0.4807767             -13.0826
        62        2.0000           -0.4698733             -12.7859
        63        2.0000           -0.4642189             -12.6320
        64        2.0000           -0.4599772             -12.5166
        65        2.0000           -0.4523920             -12.3102
        66        2.0000           -0.4482415             -12.1973
        67        2.0000           -0.4384333             -11.9304 (HOMO)
        68                         -0.3740398             -10.1781 (LUMO)
        69                         -0.3196383              -8.6978
        70                         -0.3115652              -8.4781
        71                         -0.2575033              -7.0070
        72                         -0.2505164              -6.8169
        73                         -0.2032399              -5.5304
        74                         -0.1994689              -5.4278
        75                         -0.1429918              -3.8910
        76                         -0.1422135              -3.8698
        77                         -0.1415804              -3.8526
        78                         -0.1375727              -3.7435
       ...                                ...                  ...
       134                          0.7677474              20.8915
      -------------------------------------------------------------
                  HL-Gap            0.0643935 Eh            1.7522 eV

Wiberg/Mayer (AO) data.
largest (>0.10) Wiberg bond orders for each atom

     #   Z sym  total        # sym  WBO       # sym  WBO       # sym  WBO
 ---------------------------------------------------------------------------
     1   6 C    3.859 --    28 H    0.985    27 H    0.979    26 H    0.978
                             2 O    0.885
     2   8 O    2.226 --     3 C    1.147     1 C    0.885     4 O    0.147
     3   6 C    3.854 --     4 O    1.686     2 O    1.147     5 C    0.944
     4   8 O    1.950 --     3 C    1.686     2 O    0.147
     5   6 C    3.952 --    25 N    1.788     6 C    0.994     3 C    0.944
     6   6 C    3.857 --     7 O    1.804     5 C    0.994     8 C    0.907
     7   8 O    2.011 --     6 C    1.804
     8   6 C    3.903 --     9 O    1.635    10 N    1.247     6 C    0.907
     9   8 O    1.928 --     8 C    1.635    10 N    0.185
    10   7 N    3.363 --     8 C    1.247    11 C    0.939    29 H    0.882
                             9 O    0.185
    11   6 C    3.913 --    25 N    1.002    12 C    0.947    10 N    0.939
                            13 C    0.928
    12   6 C    3.982 --    30 H    0.982    32 H    0.981    31 H    0.980
                            11 C    0.947
    13   6 C    3.929 --    14 C    0.999    15 C    0.991    16 N    0.934
                            11 C    0.928
    14   6 C    3.988 --    13 C    0.999    35 H    0.982    33 H    0.981
                            34 H    0.974
    15   6 C    3.989 --    13 C    0.991    36 H    0.984    37 H    0.984
                            38 H    0.980
    16   7 N    3.349 --    17 C    1.255    13 C    0.934    39 H    0.886
                            18 O    0.175
    17   6 C    3.917 --    18 O    1.585    16 N    1.255    19 C    0.992
    18   8 O    1.903 --    17 C    1.585    16 N    0.175
    19   6 C    3.872 --    20 N    1.622    24 O    1.047    17 C    0.992
    20   7 N    3.000 --    19 C    1.622    21 N    1.200
    21   7 N    2.981 --    22 C    1.610    20 N    1.200
    22   6 C    3.869 --    21 N    1.610    24 O    1.073    23 C    1.032
    23   6 C    3.986 --    22 C    1.032    40 H    0.982    42 H    0.968
                            41 H    0.959
    24   8 O    2.317 --    22 C    1.073    19 C    1.047
    25   7 N    3.062 --     5 C    1.788    11 C    1.002
    26   1 H    1.004 --     1 C    0.978
    27   1 H    1.005 --     1 C    0.979
    28   1 H    1.009 --     1 C    0.985
    29   1 H    0.930 --    10 N    0.882
    30   1 H    0.999 --    12 C    0.982
    31   1 H    0.999 --    12 C    0.980
    32   1 H    0.998 --    12 C    0.981
    33   1 H    0.998 --    14 C    0.981
    34   1 H    1.009 --    14 C    0.974
    35   1 H    1.001 --    14 C    0.982
    36   1 H    1.002 --    15 C    0.984
    37   1 H    1.004 --    15 C    0.984
    38   1 H    1.006 --    15 C    0.980
    39   1 H    0.956 --    16 N    0.886
    40   1 H    0.999 --    23 C    0.982
    41   1 H    0.996 --    23 C    0.959
    42   1 H    0.997 --    23 C    0.968
 ---------------------------------------------------------------------------

           -------------------------------------------------
          | TOTAL ENERGY              -82.985492660285 Eh   |
          | GRADIENT NORM               0.000718915184 Eh/α |
          | HOMO-LUMO GAP               1.752237335216 eV   |
           -------------------------------------------------

 * finished run on 2023/06/21 at 17:41:56.927
