   * xtb version 6.5.1 (579679a) compiled by 'ehlert@majestix' on 2022-07-11
          program call               : /lustre/hpc/kemi/ree/PhD/git/ReactivityQM/dep/xtb-6.5.1/bin/xtb --gfn 1 /lustre/hpc/kemi/ree/PhD/git/ReactivityQM/calculations/RaltegravirCLI/reac02prodN09/conf02/RaltegravirCLI_reac02prodN09_conf02_gfn1.xyz --opt --vfukui --chrg 1 --uhf 0 --alpb DMSO

   ID    Z sym.   atoms
    1    6 C      1-4, 6-9, 11, 13, 15-18, 21, 22, 24
    2    9 F      5
    3    7 N      10, 14, 19, 20
    4    8 O      12, 23, 25
    5    1 H      26-47

      * Solvation model:               ALPB
        Solvent                        DMSO
        Solvent mass                       7.8130E+01 g/mol
          :  Hamiltonian                  GFN1-xTB          :
 * total energy  :   -79.4636322 Eh     change       -0.2157208E-10 Eh
 * total energy  :   -79.4727895 Eh     change       -0.9157242E-02 Eh
 * total energy  :   -79.4751358 Eh     change       -0.2346312E-02 Eh
 * total energy  :   -79.4755158 Eh     change       -0.3800055E-03 Eh
 * total energy  :   -79.4758048 Eh     change       -0.2889809E-03 Eh
 * total energy  :   -79.4759221 Eh     change       -0.1172943E-03 Eh
 * total energy  :   -79.4760030 Eh     change       -0.8091262E-04 Eh
 * total energy  :   -79.4760520 Eh     change       -0.4906434E-04 Eh
 * total energy  :   -79.4760825 Eh     change       -0.3049782E-04 Eh
 * total energy  :   -79.4760969 Eh     change       -0.1434449E-04 Eh
 * total energy  :   -79.4761260 Eh     change       -0.2907651E-04 Eh
 * total energy  :   -79.4761351 Eh     change       -0.9154751E-05 Eh
 * total energy  :   -79.4761635 Eh     change       -0.2835285E-04 Eh
 * total energy  :   -79.4761698 Eh     change       -0.6318601E-05 Eh
 * total energy  :   -79.4761781 Eh     change       -0.8313471E-05 Eh
 * total energy  :   -79.4761813 Eh     change       -0.3201789E-05 Eh
   *** GEOMETRY OPTIMIZATION CONVERGED AFTER 16 ITERATIONS ***

 final structure:
================
47
 xtb: 6.5.1 (579679a)
C            4.05507851982460        2.00406763448066        0.29036004322433
C            4.86483578962661        0.71423929935679        0.63201250425262
C            6.10593409926218        0.67742278331574       -0.16331743374573
C            6.37343880175002       -0.38305994161405       -0.97205687465887
F            7.48664647365617       -0.39442806007137       -1.69342773255949
C            5.50752447318737       -1.48099107232822       -1.08674054706017
C            4.34513275769662       -1.52200842417237       -0.32304494569373
C            4.01426383010195       -0.49068055998793        0.53366341601572
C            2.76723904880675       -0.56664609156169        1.35004958987282
N            1.62543773122133       -0.26379714311695        0.48620799992028
C            0.38891185679436       -0.29811751895473        1.04906952661578
O            0.24077232882637       -0.46470367776618        2.24746215195988
C           -0.75555626939279       -0.08331104549351        0.11084717402892
N           -1.97824585789723       -0.13860930580280        0.71320279922656
C           -3.08176043695181        0.02278130235404        0.05265753081597
C           -4.36886869713211       -0.13387131849523        0.85452109915298
C           -4.03057642820384       -0.14851262857907        2.35543309318984
C           -5.04909349379377       -1.45550322240152        0.47137878176755
N           -5.27547324147760        0.97209678006657        0.58133233768379
N           -3.08140916388245        0.26106495924330       -1.29725574510258
C           -4.28303553725388        0.44049309511665       -2.11766370574308
C           -1.89916537519944        0.32224517133428       -2.00903836401918
O           -1.86850085279996        0.51500451096452       -3.22153748731195
C           -0.68575046765920        0.14262499578500       -1.23335412657839
O            0.45935135294214        0.21318370310937       -1.94066922582678
H            4.69587480363994        2.87221328974051        0.42484160689335
H            3.71828883441479        1.95170756286801       -0.74197595557382
H            3.19501671186692        2.08088616969881        0.95035550323045
H            5.14601791147648        0.84869667518532        1.69014699417710
H            6.78058545368651        1.52248830208738       -0.10419006177209
H            5.75849924660795       -2.28956637797912       -1.76288597377764
H            3.69421400562415       -2.38527502996918       -0.40011804421506
H            2.64479192651279       -1.57790931896202        1.75774707244825
H            2.77545718794946        0.14300198270575        2.18210171218411
H            1.75854636407116       -0.29700080078078       -0.51054283041390
H           -3.40615858302440       -1.00890999669928        2.59154333058469
H           -4.95249910248731       -0.20431508468479        2.93115166452913
H           -3.49519873166930        0.75947887199605        2.62712390803935
H           -5.38283048618068       -1.43617707900231       -0.56386592060063
H           -4.35271187996694       -2.28284851611149        0.60225580962859
H           -5.91451919687554       -1.61853912595300        1.11207629323659
H           -4.89968745841188        1.84297770272780        0.92632411582916
H           -6.17437240353066        0.80378720723217        1.00758762941516
H           -4.51107039994210       -0.49499978662304       -2.62898100832584
H           -4.07223986287097        1.21132773798276       -2.85920669976688
H           -5.11761726193947        0.74595191408438       -1.49298686126728
H            0.23448267899743        0.35203947567861       -2.88231214390986

          :  Hamiltonian                  GFN1-xTB          :
         :: total energy             -79.476181307468 Eh    ::
         :: gradient norm              0.000544623503 Eh/a0 ::
         :: HOMO-LUMO gap              0.146655873170 eV    ::
         :: SCC energy               -80.358606007776 Eh    ::
         :: -> Gsolv                  -0.106807486310 Eh    ::
         :: repulsion energy           0.912476367646 Eh    ::

    * Orbital Energies and Occupations

         #    Occupation            Energy/Eh            Energy/eV
      -------------------------------------------------------------
         1        2.0000           -0.9137811             -24.8652
       ...           ...                  ...                  ...
        55        2.0000           -0.5211719             -14.1818
        56        2.0000           -0.5173749             -14.0785
        57        2.0000           -0.5100968             -13.8804
        58        2.0000           -0.5028460             -13.6831
        59        2.0000           -0.5024109             -13.6713
        60        2.0000           -0.4941863             -13.4475
        61        2.0000           -0.4794597             -13.0468
        62        2.0000           -0.4756888             -12.9442
        63        2.0000           -0.4608055             -12.5392
        64        2.0000           -0.4577293             -12.4554
        65        2.0000           -0.4465549             -12.1514
        66        1.9999           -0.4315421             -11.7429
        67        1.8893           -0.4242673             -11.5449 (HOMO)
        68        0.1108           -0.4188778             -11.3982 (LUMO)
        69                         -0.3258119              -8.8658
        70                         -0.3234083              -8.8004
        71                         -0.2840134              -7.7284
        72                         -0.2426125              -6.6018
        73                         -0.2402773              -6.5383
        74                         -0.1595079              -4.3404
        75                         -0.1574218              -4.2837
        76                         -0.1519756              -4.1355
        77                         -0.1449262              -3.9436
        78                         -0.1398649              -3.8059
       ...                                ...                  ...
       144                          0.7110796              19.3495
      -------------------------------------------------------------
                  HL-Gap            0.0053895 Eh            0.1467 eV

Wiberg/Mayer (AO) data.
largest (>0.10) Wiberg bond orders for each atom

     #   Z sym  total        # sym  WBO       # sym  WBO       # sym  WBO
 ---------------------------------------------------------------------------
     1   6 C    3.952 --    27 H    0.985    26 H    0.981    28 H    0.981
                             2 C    0.888
     2   6 C    3.987 --     3 C    1.083     8 C    1.081     1 C    0.888
                            29 H    0.868
     3   6 C    3.911 --     4 C    1.539     2 C    1.083    30 H    0.960
     4   6 C    3.882 --     3 C    1.539     6 C    1.288     5 F    0.965
     5   9 F    1.107 --     4 C    0.965
     6   6 C    3.885 --     7 C    1.411     4 C    1.288    31 H    0.960
     7   6 C    3.985 --     8 C    1.486     6 C    1.411    32 H    0.961
     8   6 C    3.887 --     7 C    1.486     2 C    1.081     9 C    1.031
     9   6 C    3.952 --     8 C    1.031    34 H    0.968    33 H    0.947
                            10 N    0.934
    10   7 N    3.294 --    11 C    1.211     9 C    0.934    35 H    0.882
                            12 O    0.159
    11   6 C    3.895 --    12 O    1.607    10 N    1.211    13 C    0.993
    12   8 O    1.900 --    11 C    1.607    10 N    0.159
    13   6 C    3.957 --    24 C    1.500    14 N    1.199    11 C    0.993
    14   7 N    3.026 --    15 C    1.559    13 C    1.199
    15   6 C    3.918 --    14 N    1.559    20 N    1.178    16 C    0.974
    16   6 C    3.952 --    18 C    0.983    17 C    0.981    19 N    0.980
                            15 C    0.974
    17   6 C    3.975 --    37 H    0.985    38 H    0.984    16 C    0.981
                            36 H    0.981
    18   6 C    3.991 --    40 H    0.985    16 C    0.983    41 H    0.982
                            39 H    0.982
    19   7 N    2.957 --    16 C    0.980    42 H    0.930    43 H    0.928
    20   7 N    3.516 --    15 C    1.178    22 C    1.135    21 C    0.924
                            23 O    0.133
    21   6 C    3.908 --    45 H    0.976    44 H    0.975    46 H    0.965
                            20 N    0.924
    22   6 C    3.915 --    23 O    1.546    20 N    1.135    24 C    1.086
    23   8 O    1.889 --    22 C    1.546    20 N    0.133
    24   6 C    3.911 --    13 C    1.500    22 C    1.086    25 O    1.076
    25   8 O    2.068 --    24 C    1.076    47 H    0.795
    26   1 H    0.993 --     1 C    0.981
    27   1 H    0.995 --     1 C    0.985
    28   1 H    0.996 --     1 C    0.981
    29   1 H    0.973 --     2 C    0.868
    30   1 H    0.986 --     3 C    0.960
    31   1 H    0.987 --     6 C    0.960
    32   1 H    0.989 --     7 C    0.961
    33   1 H    0.997 --     9 C    0.947
    34   1 H    1.005 --     9 C    0.968
    35   1 H    0.942 --    10 N    0.882
    36   1 H    1.009 --    17 C    0.981
    37   1 H    1.002 --    17 C    0.985
    38   1 H    1.008 --    17 C    0.984
    39   1 H    1.002 --    18 C    0.982
    40   1 H    1.002 --    18 C    0.985
    41   1 H    0.998 --    18 C    0.982
    42   1 H    0.946 --    19 N    0.930
    43   1 H    0.944 --    19 N    0.928
    44   1 H    1.001 --    21 C    0.975
    45   1 H    1.006 --    21 C    0.976
    46   1 H    1.021 --    21 C    0.965
    47   1 H    0.840 --    25 O    0.795
 ---------------------------------------------------------------------------

           -------------------------------------------------
          | TOTAL ENERGY              -79.476181307468 Eh   |
          | GRADIENT NORM               0.000544623503 Eh/α |
          | HOMO-LUMO GAP               0.146655873170 eV   |
           -------------------------------------------------

 * finished run on 2023/06/20 at 15:28:41.178
