   * xtb version 6.5.1 (579679a) compiled by 'ehlert@majestix' on 2022-07-11
          program call               : /lustre/hpc/kemi/ree/PhD/git/ReactivityQM/dep/xtb-6.5.1/bin/xtb --gfn 1 /lustre/hpc/kemi/ree/PhD/git/ReactivityQM/calculations/R02deprot/reac01prodN12/conf11/R02deprot_reac01prodN12_conf11_gfn1.xyz --opt --vfukui --chrg 0 --uhf 0 --alpb DMSO

   ID    Z sym.   atoms
    1    6 C      1, 3, 5, 7-10, 12, 13, 15, 18, 19, 22, 24
    2    8 O      2, 4, 14, 20, 23, 25
    3    7 N      6, 11, 16, 17, 21
    4    1 H      26-42

      * Solvation model:               ALPB
        Solvent                        DMSO
        Solvent mass                       7.8130E+01 g/mol
          :  Hamiltonian                  GFN1-xTB          :
 * total energy  :   -82.8439176 Eh     change       -0.3579714E-09 Eh
 * total energy  :   -82.8584617 Eh     change       -0.1454404E-01 Eh
 * total energy  :   -82.8656959 Eh     change       -0.7234177E-02 Eh
 * total energy  :   -82.8679151 Eh     change       -0.2219213E-02 Eh
 * total energy  :   -82.8698497 Eh     change       -0.1934588E-02 Eh
 * total energy  :   -82.8711164 Eh     change       -0.1266741E-02 Eh
 * total energy  :   -82.8719943 Eh     change       -0.8778866E-03 Eh
 * total energy  :   -82.8725629 Eh     change       -0.5686567E-03 Eh
 * total energy  :   -82.8729374 Eh     change       -0.3745105E-03 Eh
 * total energy  :   -82.8729738 Eh     change       -0.3637198E-04 Eh
 * total energy  :   -82.8755952 Eh     change       -0.9411002E-05 Eh
 * total energy  :   -82.8756047 Eh     change       -0.9569016E-05 Eh
 * total energy  :   -82.8756125 Eh     change       -0.7707394E-05 Eh
 * total energy  :   -82.8756192 Eh     change       -0.6729239E-05 Eh
 * total energy  :   -82.8756252 Eh     change       -0.6069669E-05 Eh
 * total energy  :   -82.8756312 Eh     change       -0.5907442E-05 Eh
 * total energy  :   -82.8756371 Eh     change       -0.5917534E-05 Eh
 * total energy  :   -82.8756426 Eh     change       -0.5522894E-05 Eh
 * total energy  :   -82.8756472 Eh     change       -0.4649460E-05 Eh
   *** GEOMETRY OPTIMIZATION CONVERGED AFTER 58 ITERATIONS ***

 final structure:
================
42
 xtb: 6.5.1 (579679a)
C           -6.44333502281258       -0.45449183578603       -0.65518654278925
O           -5.05454900904653       -0.34596578831547       -0.31736436086487
C           -4.74506452148371       -0.45371298231430        0.96075491647465
O           -5.56720438338533       -0.62327457309961        1.84328466345379
C           -3.28691873223466       -0.35175394445782        1.24152387742768
N           -2.45328710004865       -0.11340524742978        0.22527858122321
C           -1.13924116468463       -0.08452053594702        0.48964282478309
C           -0.23100003170477        0.21103805973368       -0.68126736562667
C           -0.26551944292010        1.73949166830508       -0.92351610689522
C           -0.70221246888494       -0.52497971819030       -1.94619344832915
N            1.09487230732080       -0.19095596212219       -0.31713965510833
C            2.24175501081373       -0.12325672833764       -1.18132584108429
C            2.66792218560581       -1.66774454797048       -1.36314103956032
O            2.11895783518940        0.46093036082418       -2.30895763968962
C            3.38845872190431        0.38387177515306       -0.28132220639320
N            3.27662514231456        0.95289182248652        0.87159248289093
N            4.55334559157795        1.24488251269327        1.27203955567383
C            5.34773884865869        0.82096626865058        0.34203093872844
C            6.82395370876989        0.89919034970219        0.29979895536040
O            4.66530574179113        0.25954491425389       -0.67499209142396
N           -0.57880459384361       -0.28654743076767        1.65540240184173
C           -1.34104845432432       -0.50472406170691        2.77959262053270
O           -0.85681706217149       -0.62720236673797        3.89455041304908
C           -2.80817534146175       -0.54916889477342        2.53874405008317
O           -3.58458884403008       -0.73941523503365        3.58367923717418
H           -6.81625774251869       -1.44042702531073       -0.37046709630155
H           -7.01497288457162        0.31511349948908       -0.13276202920092
H           -6.51114259209973       -0.31729069812995       -1.73207253613891
H            0.36431550128943        1.99451670165060       -1.77295742629936
H            0.09250860057819        2.25660065766496       -0.03491181147345
H           -1.29086640031949        2.03819027558558       -1.13030898364256
H           -1.73437688844652       -0.24203068062652       -2.14405361720265
H           -0.65036436533810       -1.60000421448339       -1.78640486228440
H           -0.08248566014113       -0.25481453865878       -2.79830177588006
H            1.21439760553353       -0.55341446709100        0.62486299985414
H            3.58696668648575       -1.65883817744424       -1.94010192825384
H            2.81324822186847       -2.13608902293345       -0.39646352206524
H            1.86794982069974       -2.14746511249173       -1.91624618353117
H            7.14352180239833        1.47319042680514       -0.56986343382604
H            7.19001282532261        1.37551050538818        1.20607028368668
H            7.24610322801050       -0.10204053020240        0.21589949258617
H           -4.53972867966033       -0.70892647802837        3.33057220904152

          :  Hamiltonian                  GFN1-xTB          :
         :: total energy             -82.875647246493 Eh    ::
         :: gradient norm              0.000270947323 Eh/a0 ::
         :: HOMO-LUMO gap              0.092879256905 eV    ::
         :: SCC energy               -83.632068930101 Eh    ::
         :: -> Gsolv                  -0.056156202812 Eh    ::
         :: repulsion energy           0.782389533769 Eh    ::

    * Orbital Energies and Occupations

         #    Occupation            Energy/Eh            Energy/eV
      -------------------------------------------------------------
         1        2.0000           -0.8703260             -23.6828
       ...           ...                  ...                  ...
        55        2.0000           -0.5075281             -13.8105
        56        2.0000           -0.5044004             -13.7254
        57        2.0000           -0.4970553             -13.5256
        58        2.0000           -0.4887339             -13.2991
        59        2.0000           -0.4859533             -13.2235
        60        2.0000           -0.4779468             -13.0056
        61        2.0000           -0.4661058             -12.6834
        62        2.0000           -0.4624038             -12.5826
        63        2.0000           -0.4596430             -12.5075
        64        2.0000           -0.4535997             -12.3431
        65        2.0000           -0.4494406             -12.2299
        66        1.9980           -0.4275196             -11.6334
        67        1.7164           -0.4226830             -11.5018 (HOMO)
        68        0.2856           -0.4192697             -11.4089 (LUMO)
        69                         -0.3235732              -8.8049
        70                         -0.2853618              -7.7651
        71                         -0.2758694              -7.5068
        72                         -0.2585012              -7.0342
        73                         -0.2386440              -6.4938
        74                         -0.1632148              -4.4413
        75                         -0.1449895              -3.9454
        76                         -0.1402418              -3.8162
        77                         -0.1384057              -3.7662
        78                         -0.1279347              -3.4813
       ...                                ...                  ...
       134                          0.7089875              19.2925
      -------------------------------------------------------------
                  HL-Gap            0.0034132 Eh            0.0929 eV

Wiberg/Mayer (AO) data.
largest (>0.10) Wiberg bond orders for each atom

     #   Z sym  total        # sym  WBO       # sym  WBO       # sym  WBO
 ---------------------------------------------------------------------------
     1   6 C    3.860 --    28 H    0.986    27 H    0.978    26 H    0.978
                             2 O    0.886
     2   8 O    2.226 --     3 C    1.151     1 C    0.886     4 O    0.134
     3   6 C    3.842 --     4 O    1.612     2 O    1.151     5 C    0.998
     4   8 O    1.944 --     3 C    1.612     2 O    0.134
     5   6 C    3.920 --     6 N    1.350    24 C    1.329     3 C    0.998
     6   7 N    2.901 --     5 C    1.350     7 C    1.297
     7   6 C    3.924 --    21 N    1.476     6 N    1.297     8 C    0.987
     8   6 C    3.926 --     7 C    0.987    11 N    0.979    10 C    0.951
                             9 C    0.923
     9   6 C    3.961 --    30 H    0.986    31 H    0.984    29 H    0.978
                             8 C    0.923
    10   6 C    3.967 --    33 H    0.984    32 H    0.979    34 H    0.979
                             8 C    0.951
    11   7 N    3.304 --     8 C    0.979    12 C    0.970    35 H    0.877
                            14 O    0.198
    12   6 C    3.893 --    14 O    1.276    11 N    0.970    15 C    0.847
                            13 C    0.729
    13   6 C    3.802 --    37 H    0.988    38 H    0.981    36 H    0.978
                            12 C    0.729
    14   8 O    1.679 --    12 C    1.276    11 N    0.198
    15   6 C    3.803 --    16 N    1.646    20 O    1.073    12 C    0.847
    16   7 N    2.986 --    15 C    1.646    17 N    1.164
    17   7 N    2.982 --    18 C    1.629    16 N    1.164
    18   6 C    3.858 --    17 N    1.629    20 O    1.057    19 C    1.031
    19   6 C    3.985 --    18 C    1.031    40 H    0.982    41 H    0.963
                            39 H    0.963
    20   8 O    2.321 --    15 C    1.073    18 C    1.057
    21   7 N    3.012 --     7 C    1.476    22 C    1.150
    22   6 C    3.877 --    23 O    1.607    21 N    1.150    24 C    1.008
    23   8 O    1.814 --    22 C    1.607
    24   6 C    3.737 --     5 C    1.329    25 O    1.193    22 C    1.008
    25   8 O    2.080 --    24 C    1.193    42 H    0.760
    26   1 H    1.004 --     1 C    0.978
    27   1 H    1.005 --     1 C    0.978
    28   1 H    1.009 --     1 C    0.986
    29   1 H    1.009 --     9 C    0.978
    30   1 H    1.002 --     9 C    0.986
    31   1 H    1.001 --     9 C    0.984
    32   1 H    1.011 --    10 C    0.979
    33   1 H    1.000 --    10 C    0.984
    34   1 H    1.010 --    10 C    0.979
    35   1 H    0.962 --    11 N    0.877
    36   1 H    1.000 --    13 C    0.978
    37   1 H    0.997 --    13 C    0.988
    38   1 H    0.997 --    13 C    0.981
    39   1 H    0.996 --    19 C    0.963
    40   1 H    0.998 --    19 C    0.982
    41   1 H    0.996 --    19 C    0.963
    42   1 H    0.841 --    25 O    0.760
 ---------------------------------------------------------------------------

           -------------------------------------------------
          | TOTAL ENERGY              -82.875647246493 Eh   |
          | GRADIENT NORM               0.000270947323 Eh/α |
          | HOMO-LUMO GAP               0.092879256905 eV   |
           -------------------------------------------------

 * finished run on 2023/06/20 at 18:21:10.892
