   * xtb version 6.5.1 (579679a) compiled by 'ehlert@majestix' on 2022-07-11
          program call               : /lustre/hpc/kemi/ree/PhD/git/ReactivityQM/dep/xtb-6.5.1/bin/xtb --gfn 1 /lustre/hpc/kemi/ree/PhD/git/ReactivityQM/calculations/R02/reac01/conf13/R02_reac01_conf13_gfn1.xyz --opt --vfukui --chrg 0 --uhf 0 --alpb DMSO

   ID    Z sym.   atoms
    1    6 C      1, 3, 5, 7-10, 12, 14, 17, 18, 21, 23
    2    8 O      2, 4, 13, 19, 22, 24
    3    7 N      6, 11, 15, 16, 20
    4    1 H      25-39

      * Solvation model:               ALPB
        Solvent                        DMSO
        Solvent mass                       7.8130E+01 g/mol
          :  Hamiltonian                  GFN1-xTB          :
 * total energy  :   -79.8150399 Eh     change       -0.1772094E-10 Eh
 * total energy  :   -79.8257910 Eh     change       -0.1075108E-01 Eh
 * total energy  :   -79.8297895 Eh     change       -0.3998573E-02 Eh
 * total energy  :   -79.8304595 Eh     change       -0.6699773E-03 Eh
 * total energy  :   -79.8308666 Eh     change       -0.4071293E-03 Eh
 * total energy  :   -79.8310282 Eh     change       -0.1615340E-03 Eh
 * total energy  :   -79.8311269 Eh     change       -0.9874418E-04 Eh
 * total energy  :   -79.8311764 Eh     change       -0.4949648E-04 Eh
 * total energy  :   -79.8312052 Eh     change       -0.2880784E-04 Eh
 * total energy  :   -79.8312326 Eh     change       -0.2739228E-04 Eh
 * total energy  :   -79.8312459 Eh     change       -0.1331327E-04 Eh
 * total energy  :   -79.8312652 Eh     change       -0.1926604E-04 Eh
 * total energy  :   -79.8312774 Eh     change       -0.1216686E-04 Eh
 * total energy  :   -79.8312899 Eh     change       -0.1259471E-04 Eh
 * total energy  :   -79.8313035 Eh     change       -0.1358845E-04 Eh
 * total energy  :   -79.8313110 Eh     change       -0.7488263E-05 Eh
 * total energy  :   -79.8313158 Eh     change       -0.4817340E-05 Eh
   *** GEOMETRY OPTIMIZATION CONVERGED AFTER 17 ITERATIONS ***

 final structure:
================
39
 xtb: 6.5.1 (579679a)
C           -5.85508419268675        1.31666869870931       -0.74877458157901
O           -4.54861280973162        0.89327061779793       -0.34403847684756
C           -4.44816775479609       -0.33266015785214        0.14716986947970
O           -5.39829125152661       -1.08884148202719        0.25347656655497
C           -3.07575666179816       -0.70339538203487        0.56300365638796
N           -2.09072711446361        0.23410013702842        0.37758097582833
C           -0.88606934772676       -0.04954348825956        0.73570766171023
C            0.21198891125472        0.98034055898068        0.58517188438128
C           -0.21307245929656        2.06416660620429       -0.40998479197933
C            0.49399574770501        1.57834498366349        1.97216958516347
N            1.40103814209933        0.28214880523002        0.08371293352252
C            2.58678129954473        0.90246108652785       -0.12097162853593
O            2.85685777808852        2.04313823331222        0.20492358486926
C            3.54484818910576       -0.00915800402530       -0.79629853346772
N            3.28547114662824       -1.20500817234018       -1.23364299703363
N            4.43390120539308       -1.67554869245902       -1.79456338185875
C            5.32105642686320       -0.73544561540586       -1.66503675014321
C            6.73193082486697       -0.75355212845162       -2.10921353539983
O            4.81899597873072        0.34207215188811       -1.04403868896983
N           -0.55875719018916       -1.24488550475477        1.30770161029974
C           -1.45464794778715       -2.27317035530200        1.54008489645031
O           -1.09205635411388       -3.31750111288169        2.05010980117193
C           -2.81818396785411       -1.93606420787443        1.11297674931751
O           -3.74181445472506       -2.87744707677019        1.30444209501835
H           -5.74557088467955        2.32230694502035       -1.14908449664280
H           -6.24699599070488        0.64163469295500       -1.51278042961752
H           -6.52787995938554        1.32008029337412        0.11164583253668
H           -0.39769297557743        1.62009481494490       -1.38686500053428
H           -1.12875158245852        2.53750195879907       -0.05933141210612
H            0.56946261565747        2.81539038633763       -0.49776680820675
H           -0.43048716344320        1.98101686993004        2.38320722566004
H            0.87453608536778        0.80718099757850        2.63946393261855
H            1.22693857821143        2.37877507759313        1.89622327314424
H            1.27400777634270       -0.62229703125221       -0.34550717059411
H            6.92884814012503        0.10109960122740       -2.75585544000012
H            7.39405480396921       -0.68273034937315       -1.24600015113133
H            6.93544474863834       -1.67584644452145       -2.64763555025282
H            0.39309504392981       -1.41295202675920        1.59839996991933
H           -4.62463337957789       -2.56133228475606        1.00021972086656

          :  Hamiltonian                  GFN1-xTB          :
         :: total energy             -79.831315840637 Eh    ::
         :: gradient norm              0.000654038664 Eh/a0 ::
         :: HOMO-LUMO gap              2.838237569457 eV    ::
         :: SCC energy               -80.577003933467 Eh    ::
         :: -> Gsolv                  -0.052958281995 Eh    ::
         :: repulsion energy           0.768928624165 Eh    ::

    * Orbital Energies and Occupations

         #    Occupation            Energy/Eh            Energy/eV
      -------------------------------------------------------------
         1        2.0000           -0.8651407             -23.5417
       ...           ...                  ...                  ...
        52        2.0000           -0.5074040             -13.8072
        53        2.0000           -0.5036411             -13.7048
        54        2.0000           -0.5017293             -13.6527
        55        2.0000           -0.4928777             -13.4119
        56        2.0000           -0.4900489             -13.3349
        57        2.0000           -0.4843521             -13.1799
        58        2.0000           -0.4697902             -12.7836
        59        2.0000           -0.4637517             -12.6193
        60        2.0000           -0.4614599             -12.5570
        61        2.0000           -0.4539169             -12.3517
        62        2.0000           -0.4517641             -12.2931
        63        2.0000           -0.4487387             -12.2108
        64        2.0000           -0.4330309             -11.7834 (HOMO)
        65                         -0.3287276              -8.9451 (LUMO)
        66                         -0.3133294              -8.5261
        67                         -0.2873131              -7.8182
        68                         -0.2582174              -7.0265
        69                         -0.2451072              -6.6697
        70                         -0.2014915              -5.4829
        71                         -0.1623280              -4.4172
        72                         -0.1426879              -3.8827
        73                         -0.1391964              -3.7877
        74                         -0.1299108              -3.5351
        75                         -0.1249866              -3.4011
       ...                                ...                  ...
       126                          0.7249721              19.7275
      -------------------------------------------------------------
                  HL-Gap            0.1043033 Eh            2.8382 eV

Wiberg/Mayer (AO) data.
largest (>0.10) Wiberg bond orders for each atom

     #   Z sym  total        # sym  WBO       # sym  WBO       # sym  WBO
 ---------------------------------------------------------------------------
     1   6 C    3.866 --    25 H    0.986    26 H    0.979    27 H    0.979
                             2 O    0.891
     2   8 O    2.218 --     3 C    1.137     1 C    0.891     4 O    0.130
     3   6 C    3.849 --     4 O    1.606     2 O    1.137     5 C    1.019
     4   8 O    1.944 --     3 C    1.606     2 O    0.130
     5   6 C    3.964 --    23 C    1.487     6 N    1.174     3 C    1.019
     6   7 N    3.026 --     7 C    1.593     5 C    1.174
     7   6 C    3.931 --     6 N    1.593    20 N    1.167     8 C    0.981
     8   6 C    3.933 --     9 C    0.990     7 C    0.981    10 C    0.976
                            11 N    0.922
     9   6 C    3.989 --     8 C    0.990    28 H    0.985    29 H    0.983
                            30 H    0.982
    10   6 C    3.987 --    31 H    0.985    32 H    0.985    33 H    0.977
                             8 C    0.976
    11   7 N    3.329 --    12 C    1.238     8 C    0.922    34 H    0.894
                            13 O    0.173
    12   6 C    3.915 --    13 O    1.604    11 N    1.238    14 C    0.990
    13   8 O    1.919 --    12 C    1.604    11 N    0.173
    14   6 C    3.876 --    15 N    1.609    19 O    1.065    12 C    0.990
    15   7 N    3.018 --    14 C    1.609    16 N    1.201
    16   7 N    2.981 --    17 C    1.603    15 N    1.201
    17   6 C    3.870 --    16 N    1.603    19 O    1.083    18 C    1.032
    18   6 C    3.986 --    17 C    1.032    37 H    0.982    35 H    0.965
                            36 H    0.961
    19   8 O    2.332 --    17 C    1.083    14 C    1.065
    20   7 N    3.459 --     7 C    1.167    21 C    1.118    38 H    0.884
                            22 O    0.135
    21   6 C    3.907 --    22 O    1.605    20 N    1.118    23 C    1.054
    22   8 O    1.903 --    21 C    1.605    20 N    0.135
    23   6 C    3.921 --     5 C    1.487    24 O    1.129    21 C    1.054
    24   8 O    2.096 --    23 C    1.129    39 H    0.775
    25   1 H    1.010 --     1 C    0.986
    26   1 H    1.006 --     1 C    0.979
    27   1 H    1.006 --     1 C    0.979
    28   1 H    1.004 --     9 C    0.985
    29   1 H    1.010 --     9 C    0.983
    30   1 H    1.006 --     9 C    0.982
    31   1 H    1.001 --    10 C    0.985
    32   1 H    1.001 --    10 C    0.985
    33   1 H    1.009 --    10 C    0.977
    34   1 H    0.952 --    11 N    0.894
    35   1 H    0.996 --    18 C    0.965
    36   1 H    0.996 --    18 C    0.961
    37   1 H    0.998 --    18 C    0.982
    38   1 H    0.929 --    20 N    0.884
    39   1 H    0.851 --    24 O    0.775
 ---------------------------------------------------------------------------

           -------------------------------------------------
          | TOTAL ENERGY              -79.831315840637 Eh   |
          | GRADIENT NORM               0.000654038664 Eh/α |
          | HOMO-LUMO GAP               2.838237569457 eV   |
           -------------------------------------------------

 * finished run on 2023/06/20 at 14:52:04.999
