   * xtb version 6.5.1 (579679a) compiled by 'ehlert@majestix' on 2022-07-11
          program call               : /lustre/hpc/kemi/ree/PhD/git/ReactivityQM/dep/xtb-6.5.1/bin/xtb --gfn 1 /lustre/hpc/kemi/ree/PhD/git/ReactivityQM/calculations/R02deprot/reac01prodE03/conf08/R02deprot_reac01prodE03_conf08_gfn1.xyz --opt --vfukui --chrg -2 --uhf 0 --alpb DMSO

   ID    Z sym.   atoms
    1    6 C      1, 3, 5, 6, 8-11, 13, 15, 18, 19, 22, 24
    2    8 O      2, 4, 14, 20, 23, 25
    3    7 N      7, 12, 16, 17, 21
    4    1 H      26-42

      * Solvation model:               ALPB
        Solvent                        DMSO
        Solvent mass                       7.8130E+01 g/mol
          :  Hamiltonian                  GFN1-xTB          :
 * total energy  :   -83.5504215 Eh     change       -0.5741896E-09 Eh
 * total energy  :   -83.5626547 Eh     change       -0.1223315E-01 Eh
 * total energy  :   -83.5677134 Eh     change       -0.5058772E-02 Eh
 * total energy  :   -83.5688939 Eh     change       -0.1180461E-02 Eh
 * total energy  :   -83.5697008 Eh     change       -0.8068607E-03 Eh
 * total energy  :   -83.5701672 Eh     change       -0.4664021E-03 Eh
 * total energy  :   -83.5705643 Eh     change       -0.3970855E-03 Eh
 * total energy  :   -83.5709135 Eh     change       -0.3492923E-03 Eh
 * total energy  :   -83.5712161 Eh     change       -0.3025595E-03 Eh
 * total energy  :   -83.5714891 Eh     change       -0.2729764E-03 Eh
 * total energy  :   -83.5775736 Eh     change       -0.1099963E-04 Eh
 * total energy  :   -83.5775838 Eh     change       -0.1016626E-04 Eh
 * total energy  :   -83.5775935 Eh     change       -0.9762231E-05 Eh
 * total energy  :   -83.5776034 Eh     change       -0.9846198E-05 Eh
 * total energy  :   -83.5776133 Eh     change       -0.9954531E-05 Eh
 * total energy  :   -83.5776236 Eh     change       -0.1024849E-04 Eh
 * total energy  :   -83.5776346 Eh     change       -0.1104209E-04 Eh
 * total energy  :   -83.5776463 Eh     change       -0.1165329E-04 Eh
 * total energy  :   -83.5776490 Eh     change       -0.2746096E-05 Eh
   *** GEOMETRY OPTIMIZATION CONVERGED AFTER 94 ITERATIONS ***

 final structure:
================
42
 xtb: 6.5.1 (579679a)
C           -0.96003052587187        2.58369299594407       -0.18048271952476
O           -2.08945454270127        1.84591288183938       -0.64183267695438
C           -2.81068484769955        1.14575931639908        0.32981707532693
O           -3.92616861584026        1.84660270358276        0.82576695194460
C           -4.95291729656951        2.08027354359286       -0.13030642800476
C           -2.38813032084074       -0.06911567749040        0.84990410800817
N           -1.17314633865000       -0.54956125457776        0.37299055924460
C           -0.77815775720396       -1.72847173291263        0.81322371215098
C            0.56525836351375       -2.21763131628327        0.25042310484515
C            0.30089520999646       -2.97540029876823       -1.06231714573540
C            1.27558277356351       -3.12364631329934        1.26225094246158
N            1.36416141864600       -1.02498821985500       -0.01630962441322
C            2.62050828738544       -1.00588682777555       -0.52086612428422
O            3.31046391961409       -2.01359527493341       -0.74297019560081
C            3.08360081784226        0.36101968912563       -0.74204075765157
N            2.39261095464922        1.46694733084439       -0.53155210932536
N            3.21331369508558        2.51040236091640       -0.85657676698927
C            4.33888807984970        2.00083077081682       -1.23955139782926
C            5.54899336750190        2.73337454861033       -1.68297312587345
O            4.34039508072002        0.65166296003121       -1.19896136899593
N           -1.39055254953067       -2.54736382016407        1.64625363444742
C           -2.60360309272863       -2.14028543731648        2.20001084465092
O           -3.20041498065160       -2.89930972517718        3.01636763277262
C           -3.08455028515373       -0.86502521944402        1.79316551987409
O           -4.30495067775234       -0.43753520439381        2.34317557461221
H           -0.63787939335970        3.23108960480864       -0.99991784233110
H           -1.21484186385140        3.20551191741504        0.68684259799181
H           -0.13352958204617        1.91046694254228        0.08937725183126
H           -5.71750195745452        2.68916847349161        0.35411107427759
H           -4.56234083882747        2.62178717506758       -1.00009824567086
H           -5.40267156822730        1.13774328971244       -0.46972756373070
H           -0.33916804105443       -3.83485141163610       -0.86274060371550
H           -0.20254769926419       -2.31834175558022       -1.77205517130394
H            1.23438746362168       -3.32480515854306       -1.50297852983821
H            2.18175368725283       -3.55173381519893        0.83610238850549
H            1.53779504802153       -2.55357875317454        2.15406765216805
H            0.60097300301899       -3.93041211097625        1.55170921029343
H            0.84198633103761       -0.15080042383513        0.01472209911727
H            6.39765000669146        2.47911153361339       -1.04821813350873
H            5.36579503909213        3.80355662448892       -1.62759095548461
H            5.80250144637797        2.46310481829614       -2.70797934689442
H           -4.44427021818869        0.49432227020981        2.11437489914542

          :  Hamiltonian                  GFN1-xTB          :
         :: total energy             -83.577649012482 Eh    ::
         :: gradient norm              0.000177563994 Eh/a0 ::
         :: HOMO-LUMO gap              0.078283833346 eV    ::
         :: SCC energy               -84.298754961083 Eh    ::
         :: -> Gsolv                  -0.273099855829 Eh    ::
         :: repulsion energy           0.747283497809 Eh    ::

    * Orbital Energies and Occupations

         #    Occupation            Energy/Eh            Energy/eV
      -------------------------------------------------------------
         1        2.0000           -0.8199069             -22.3108
       ...           ...                  ...                  ...
        56        2.0000           -0.4284096             -11.6576
        57        2.0000           -0.4249715             -11.5641
        58        2.0000           -0.4219170             -11.4809
        59        2.0000           -0.4189071             -11.3990
        60        2.0000           -0.4139192             -11.2633
        61        2.0000           -0.4067454             -11.0681
        62        2.0000           -0.3954966             -10.7620
        63        2.0000           -0.3844037             -10.4602
        64        2.0000           -0.3785480             -10.3008
        65        2.0000           -0.3522249              -9.5845
        66        2.0000           -0.3260709              -8.8728
        67        2.0000           -0.3227392              -8.7822
        68        1.6393           -0.2743235              -7.4647 (HOMO)
        69        0.3607           -0.2714466              -7.3864 (LUMO)
        70                         -0.2232217              -6.0742
        71                         -0.1784329              -4.8554
        72                         -0.1600059              -4.3540
        73                         -0.1515967              -4.1252
        74                         -0.1293108              -3.5187
        75                         -0.1068117              -2.9065
        76                         -0.1008136              -2.7433
        77                         -0.0937481              -2.5510
        78                         -0.0869293              -2.3655
        79                         -0.0619337              -1.6853
       ...                                ...                  ...
       134                          0.7086459              19.2832
      -------------------------------------------------------------
                  HL-Gap            0.0028769 Eh            0.0783 eV

Wiberg/Mayer (AO) data.
largest (>0.10) Wiberg bond orders for each atom

     #   Z sym  total        # sym  WBO       # sym  WBO       # sym  WBO
 ---------------------------------------------------------------------------
     1   6 C    3.912 --    26 H    0.986    27 H    0.983    28 H    0.976
                             2 O    0.933
     2   8 O    1.999 --     3 C    0.939     1 C    0.933
     3   6 C    3.481 --     6 C    1.402     2 O    0.939     4 O    0.918
     4   8 O    2.026 --     5 C    0.938     3 C    0.918
     5   6 C    3.914 --    29 H    0.987    30 H    0.983    31 H    0.982
                             4 O    0.938
     6   6 C    3.966 --     3 C    1.402    24 C    1.250     7 N    1.131
     7   7 N    2.961 --     8 C    1.438     6 C    1.131    21 N    0.125
     8   6 C    3.959 --     7 N    1.438    21 N    1.423     9 C    0.956
     9   6 C    3.930 --    11 C    0.995    10 C    0.980     8 C    0.956
                            12 N    0.927
    10   6 C    3.993 --    32 H    0.987    33 H    0.987    34 H    0.985
                             9 C    0.980
    11   6 C    3.995 --     9 C    0.995    36 H    0.987    35 H    0.985
                            37 H    0.983
    12   7 N    3.282 --    13 C    1.224     9 C    0.927    38 H    0.885
                            14 O    0.155
    13   6 C    3.834 --    14 O    1.481    12 N    1.224    15 C    1.059
    14   8 O    1.757 --    13 C    1.481    12 N    0.155
    15   6 C    3.730 --    16 N    1.485    13 C    1.059    20 O    1.008
    16   7 N    2.859 --    15 C    1.485    17 N    1.185
    17   7 N    2.981 --    18 C    1.626    16 N    1.185
    18   6 C    3.839 --    17 N    1.626    20 O    1.061    19 C    1.026
    19   6 C    3.992 --    18 C    1.026    40 H    0.985    39 H    0.969
                            41 H    0.969
    20   8 O    2.231 --    18 C    1.061    15 C    1.008
    21   7 N    2.914 --     8 C    1.423    22 C    1.125     7 N    0.125
    22   6 C    3.911 --    23 O    1.405    24 C    1.252    21 N    1.125
    23   8 O    1.660 --    22 C    1.405
    24   6 C    3.708 --    22 C    1.252     6 C    1.250    25 O    0.963
    25   8 O    1.917 --    24 C    0.963    42 H    0.853
    26   1 H    1.022 --     1 C    0.986
    27   1 H    1.017 --     1 C    0.983
    28   1 H    1.050 --     1 C    0.976
    29   1 H    1.020 --     5 C    0.987
    30   1 H    1.023 --     5 C    0.983
    31   1 H    1.018 --     5 C    0.982
    32   1 H    1.010 --    10 C    0.987
    33   1 H    1.013 --    10 C    0.987
    34   1 H    1.014 --    10 C    0.985
    35   1 H    1.019 --    11 C    0.985
    36   1 H    1.012 --    11 C    0.987
    37   1 H    1.032 --    11 C    0.983
    38   1 H    0.998 --    12 N    0.885
    39   1 H    1.000 --    19 C    0.969
    40   1 H    1.003 --    19 C    0.985
    41   1 H    1.000 --    19 C    0.969
    42   1 H    0.906 --    25 O    0.853
 ---------------------------------------------------------------------------

           -------------------------------------------------
          | TOTAL ENERGY              -83.577649012482 Eh   |
          | GRADIENT NORM               0.000177563994 Eh/α |
          | HOMO-LUMO GAP               0.078283833346 eV   |
           -------------------------------------------------

 * finished run on 2023/06/20 at 17:35:07.973
