   * xtb version 6.5.1 (579679a) compiled by 'ehlert@majestix' on 2022-07-11
          program call               : /lustre/hpc/kemi/ree/PhD/git/ReactivityQM/dep/xtb-6.5.1/bin/xtb --gfn 1 /lustre/hpc/kemi/ree/PhD/git/ReactivityQM/calculations/R02deprot/reac01prodN13/conf14/R02deprot_reac01prodN13_conf14_gfn1.xyz --opt --vfukui --chrg 0 --uhf 0 --alpb DMSO

   ID    Z sym.   atoms
    1    6 C      1, 3, 5, 7-10, 12, 14, 15, 18, 19, 22, 24
    2    8 O      2, 4, 13, 20, 23, 25
    3    7 N      6, 11, 16, 17, 21
    4    1 H      26-42

      * Solvation model:               ALPB
        Solvent                        DMSO
        Solvent mass                       7.8130E+01 g/mol
          :  Hamiltonian                  GFN1-xTB          :
 * total energy  :   -82.9222872 Eh     change       -0.1875122E-09 Eh
 * total energy  :   -82.9346254 Eh     change       -0.1233824E-01 Eh
 * total energy  :   -82.9391498 Eh     change       -0.4524378E-02 Eh
 * total energy  :   -82.9399126 Eh     change       -0.7628240E-03 Eh
 * total energy  :   -82.9403936 Eh     change       -0.4810079E-03 Eh
 * total energy  :   -82.9406255 Eh     change       -0.2318789E-03 Eh
 * total energy  :   -82.9408564 Eh     change       -0.2308594E-03 Eh
 * total energy  :   -82.9410953 Eh     change       -0.2389719E-03 Eh
 * total energy  :   -82.9412955 Eh     change       -0.2002065E-03 Eh
 * total energy  :   -82.9414379 Eh     change       -0.1423915E-03 Eh
 * total energy  :   -82.9419052 Eh     change       -0.7648366E-05 Eh
 * total energy  :   -82.9419161 Eh     change       -0.1092250E-04 Eh
 * total energy  :   -82.9419288 Eh     change       -0.1273144E-04 Eh
 * total energy  :   -82.9419386 Eh     change       -0.9740745E-05 Eh
 * total energy  :   -82.9419468 Eh     change       -0.8246551E-05 Eh
 * total energy  :   -82.9419583 Eh     change       -0.1144045E-04 Eh
 * total energy  :   -82.9419676 Eh     change       -0.9317940E-05 Eh
 * total energy  :   -82.9419761 Eh     change       -0.8497726E-05 Eh
 * total energy  :   -82.9419802 Eh     change       -0.4097415E-05 Eh
   *** GEOMETRY OPTIMIZATION CONVERGED AFTER 44 ITERATIONS ***

 final structure:
================
42
 xtb: 6.5.1 (579679a)
C           -6.82339231326605       -0.75594546524600        0.02074958448926
O           -5.49972067019951       -0.62184903567442        0.54124480584999
C           -4.55110342765470       -0.26300708375678       -0.32597762266099
O           -4.77792417521338       -0.04858695035318       -1.49676382528856
C           -3.19754380309834       -0.15495369725689        0.29016924578263
N           -2.21374280083227        0.20248876097380       -0.57320615064625
C           -0.98056084874741        0.31123241666643       -0.10505870095118
C            0.07031134062172        0.72326139910969       -1.12486420432115
C            0.08424579715450       -0.26879472148611       -2.29110632552028
C           -0.22442086707416        2.14622542539104       -1.61156947301547
N            1.35758373688808        0.68691467636249       -0.41996478662556
C            2.51279892075774        0.99721571518925       -0.95716675532222
O            2.76119333932160        1.36933747828751       -2.07934799432718
C            3.73688683843799        0.81159817686981        0.07795614078878
C            4.82913884252358        1.80855337651047       -0.28320010407708
N            3.27259873619963        0.91386368769370        1.40677893790375
N            3.36230527205426       -0.24074674938661        1.97635206802017
C            3.90516817816925       -1.09840690874580        1.09637350565809
C            4.19622958991035       -2.51561047626118        1.34609141940639
O            4.16856773498431       -0.52985537452121       -0.04542924350369
N           -0.58059893216662        0.11590628980943        1.13984376618113
C           -1.50083732787058       -0.24032073612758        2.07837897217942
O           -1.23904260604284       -0.44413883688331        3.26890495418999
C           -2.88933680463983       -0.38538800784834        1.61376788469172
O           -3.76919587553246       -0.74232896255790        2.55368003828605
H           -7.46978877457394       -0.98575597574361        0.86548086194702
H           -6.85876512341998       -1.56541000611334       -0.71264792860134
H           -7.13909373050815        0.17559293530810       -0.45572562756509
H            0.36678984563161       -1.25818066620055       -1.93551778231836
H            0.79175784206224        0.05185145719709       -3.05386021732562
H           -0.91440657143486       -0.31814069630905       -2.72364417953670
H           -1.22945185405167        2.17272322629775       -2.03090827810237
H            0.49114110915702        2.44209043579792       -2.37672671762668
H           -0.16739641788144        2.84595368225849       -0.77906687057775
H            1.28743580106638        0.42093725598979        0.56332621167670
H            4.46077353145768        2.81602172863343       -0.10540059913680
H            5.70509926627952        1.62040229369259        0.33226947568918
H            5.08022222963350        1.68942347753381       -1.33518875491640
H            4.23708014505776       -3.06553346115438        0.40846928645996
H            3.45204732466190       -2.94185788981411        2.01631995761000
H            5.17114072763823       -2.59423983342947        1.83277047302410
H           -3.27419422547511       -0.84098336070351        3.39341255212825

          :  Hamiltonian                  GFN1-xTB          :
         :: total energy             -82.941980179771 Eh    ::
         :: gradient norm              0.000639875341 Eh/a0 ::
         :: HOMO-LUMO gap              0.086304757336 eV    ::
         :: SCC energy               -83.707144789779 Eh    ::
         :: -> Gsolv                  -0.058416745488 Eh    ::
         :: repulsion energy           0.791493679313 Eh    ::

    * Orbital Energies and Occupations

         #    Occupation            Energy/Eh            Energy/eV
      -------------------------------------------------------------
         1        2.0000           -0.8964257             -24.3930
       ...           ...                  ...                  ...
        55        2.0000           -0.5080192             -13.8239
        56        2.0000           -0.5012811             -13.6406
        57        2.0000           -0.4995791             -13.5942
        58        2.0000           -0.4913456             -13.3702
        59        2.0000           -0.4877390             -13.2721
        60        2.0000           -0.4792525             -13.0411
        61        2.0000           -0.4748519             -12.9214
        62        2.0000           -0.4689974             -12.7621
        63        2.0000           -0.4683155             -12.7435
        64        2.0000           -0.4538324             -12.3494
        65        2.0000           -0.4378749             -11.9152
        66        1.9995           -0.4094845             -11.1426
        67        1.6832           -0.4032565             -10.9732 (HOMO)
        68        0.3173           -0.4000848             -10.8869 (LUMO)
        69                         -0.3017731              -8.2117
        70                         -0.2977424              -8.1020
        71                         -0.2748634              -7.4794
        72                         -0.2626590              -7.1473
        73                         -0.2177905              -5.9264
        74                         -0.1613261              -4.3899
        75                         -0.1424705              -3.8768
        76                         -0.1381521              -3.7593
        77                         -0.1348712              -3.6700
        78                         -0.1225333              -3.3343
       ...                                ...                  ...
       134                          0.7317178              19.9111
      -------------------------------------------------------------
                  HL-Gap            0.0031716 Eh            0.0863 eV

Wiberg/Mayer (AO) data.
largest (>0.10) Wiberg bond orders for each atom

     #   Z sym  total        # sym  WBO       # sym  WBO       # sym  WBO
 ---------------------------------------------------------------------------
     1   6 C    3.876 --    26 H    0.986    28 H    0.980    27 H    0.980
                             2 O    0.901
     2   8 O    2.198 --     3 C    1.108     1 C    0.901     4 O    0.132
     3   6 C    3.842 --     4 O    1.652     2 O    1.108     5 C    1.000
     4   8 O    1.910 --     3 C    1.652     2 O    0.132
     5   6 C    3.930 --    24 C    1.422     6 N    1.263     3 C    1.000
     6   7 N    2.895 --     7 C    1.393     5 C    1.263
     7   6 C    3.924 --    21 N    1.412     6 N    1.393     8 C    0.971
     8   6 C    3.914 --     9 C    0.985    10 C    0.982     7 C    0.971
                            11 N    0.900
     9   6 C    3.988 --    29 H    0.986     8 C    0.985    30 H    0.982
                            31 H    0.982
    10   6 C    3.988 --    34 H    0.986    32 H    0.983     8 C    0.982
                            33 H    0.981
    11   7 N    3.403 --    12 C    1.383     8 C    0.900    35 H    0.855
                            13 O    0.186
    12   6 C    3.880 --    13 O    1.626    11 N    1.383    14 C    0.757
    13   8 O    1.994 --    12 C    1.626    11 N    0.186
    14   6 C    3.835 --    16 N    1.093    15 C    0.943    20 O    0.898
                            12 C    0.757
    15   6 C    3.945 --    36 H    0.980    37 H    0.980    38 H    0.976
                            14 C    0.943
    16   7 N    2.799 --    17 N    1.501    14 C    1.093
    17   7 N    2.971 --    16 N    1.501    18 C    1.308
    18   6 C    3.733 --    17 N    1.308    20 O    1.213    19 C    1.055
    19   6 C    3.971 --    18 C    1.055    39 H    0.970    40 H    0.963
                            41 H    0.927
    20   8 O    2.279 --    18 C    1.213    14 C    0.898
    21   7 N    2.990 --     7 C    1.412    22 C    1.198
    22   6 C    3.890 --    23 O    1.525    21 N    1.198    24 C    1.046
    23   8 O    1.784 --    22 C    1.525
    24   6 C    3.792 --     5 C    1.422    25 O    1.117    22 C    1.046
    25   8 O    2.051 --    24 C    1.117    42 H    0.803
    26   1 H    1.011 --     1 C    0.986
    27   1 H    1.008 --     1 C    0.980
    28   1 H    1.009 --     1 C    0.980
    29   1 H    1.002 --     9 C    0.986
    30   1 H    1.004 --     9 C    0.982
    31   1 H    1.010 --     9 C    0.982
    32   1 H    1.007 --    10 C    0.983
    33   1 H    1.005 --    10 C    0.981
    34   1 H    1.002 --    10 C    0.986
    35   1 H    0.966 --    11 N    0.855
    36   1 H    0.996 --    15 C    0.980
    37   1 H    0.994 --    15 C    0.980
    38   1 H    1.002 --    15 C    0.976
    39   1 H    0.989 --    19 C    0.970
    40   1 H    0.989 --    19 C    0.963
    41   1 H    0.978 --    19 C    0.927
    42   1 H    0.856 --    25 O    0.803
 ---------------------------------------------------------------------------

           -------------------------------------------------
          | TOTAL ENERGY              -82.941980179771 Eh   |
          | GRADIENT NORM               0.000639875341 Eh/α |
          | HOMO-LUMO GAP               0.086304757336 eV   |
           -------------------------------------------------

 * finished run on 2023/06/20 at 18:21:33.933
