   * xtb version 6.5.1 (579679a) compiled by 'ehlert@majestix' on 2022-07-11
          program call               : /lustre/hpc/kemi/ree/PhD/git/ReactivityQM/dep/xtb-6.5.1/bin/xtb --gfn 1 /lustre/hpc/kemi/ree/PhD/git/ReactivityQM/calculations/R02deprot/reac01prodE10/conf15/R02deprot_reac01prodE10_conf15_gfn1.xyz --opt --vfukui --chrg -2 --uhf 0 --alpb DMSO

   ID    Z sym.   atoms
    1    6 C      1, 3, 5, 7-10, 12, 14, 17-19, 22, 24
    2    8 O      2, 4, 13, 20, 23, 25
    3    7 N      6, 11, 15, 16, 21
    4    1 H      26-42

      * Solvation model:               ALPB
        Solvent                        DMSO
        Solvent mass                       7.8130E+01 g/mol
          :  Hamiltonian                  GFN1-xTB          :
 * total energy  :   -83.5545439 Eh     change       -0.4143601E-08 Eh
 * total energy  :   -83.5681227 Eh     change       -0.1357880E-01 Eh
 * total energy  :   -83.5733065 Eh     change       -0.5183756E-02 Eh
 * total energy  :   -83.5739466 Eh     change       -0.6401373E-03 Eh
 * total energy  :   -83.5744919 Eh     change       -0.5452562E-03 Eh
 * total energy  :   -83.5746484 Eh     change       -0.1565628E-03 Eh
 * total energy  :   -83.5748005 Eh     change       -0.1520859E-03 Eh
 * total energy  :   -83.5748661 Eh     change       -0.6556919E-04 Eh
 * total energy  :   -83.5749101 Eh     change       -0.4407304E-04 Eh
 * total energy  :   -83.5749367 Eh     change       -0.2653674E-04 Eh
 * total energy  :   -83.5750203 Eh     change       -0.2740420E-04 Eh
 * total energy  :   -83.5750496 Eh     change       -0.2934850E-04 Eh
 * total energy  :   -83.5750724 Eh     change       -0.2277645E-04 Eh
 * total energy  :   -83.5750955 Eh     change       -0.2307815E-04 Eh
 * total energy  :   -83.5751139 Eh     change       -0.1839176E-04 Eh
 * total energy  :   -83.5751349 Eh     change       -0.2102552E-04 Eh
 * total energy  :   -83.5751438 Eh     change       -0.8946324E-05 Eh
 * total energy  :   -83.5751504 Eh     change       -0.6601723E-05 Eh
 * total energy  :   -83.5751538 Eh     change       -0.3356091E-05 Eh
   *** GEOMETRY OPTIMIZATION CONVERGED AFTER 22 ITERATIONS ***

 final structure:
================
42
 xtb: 6.5.1 (579679a)
C            4.91253402677230        3.08981706017356       -0.65057553678009
O            4.04860439186602        1.97625232588406       -0.48973500360564
C            4.31466510682528        1.17611406320400        0.58264709951431
O            5.25636105640439        1.44155215978037        1.34319006590375
C            3.42419771503312        0.04076382865762        0.72247175780463
N            2.42932450767134       -0.11666612906340       -0.20969781002558
C            1.63820910000244       -1.16116397617904       -0.06649574246103
C            0.53186168468060       -1.35811100816460       -1.10835982976897
C            0.61000765602576       -0.25562984940947       -2.17748203662506
C            0.73950332226290       -2.74267962837330       -1.74578481517215
N           -0.74345381070427       -1.32435770355096       -0.37750889578859
C           -1.96340287730353       -1.23716434676520       -1.14767392113303
O           -2.06496758819264       -1.81530136418759       -2.28350311338631
C           -2.98746589240839       -0.57380309785029       -0.51469085824398
N           -4.29410518195651       -0.34436286734295       -0.97824955562953
N           -4.83882657163136        0.40332098801136       -0.03075991333176
C           -6.20182898508895        0.84777119009218       -0.18709063160612
C           -4.03860612239887        0.67789532538503        0.97986935956894
C           -4.34100860318161        1.47474679545292        2.19428968794964
O           -2.82322084418525        0.08426935132996        0.78010982750814
N            1.70272685965894       -2.09050643673218        0.88565713000051
C            2.66104699643771       -2.01071507644715        1.85556424088356
O            2.74724199970065       -2.87176917700820        2.76153715394510
C            3.56595420421998       -0.87210495415421        1.76029666651365
O            4.54082105913715       -0.75666548216666        2.71180336855861
H            4.56408634968908        3.64426189370589       -1.52129060291610
H            5.94424779849395        2.76095589591727       -0.81148361765215
H            4.88456787835679        3.73496646311657        0.23330719670752
H           -0.13592822673379       -0.41800745911341       -2.95515191752278
H            1.60034483175441       -0.25535906864704       -2.63356078443983
H            0.44293774332660        0.72048410745597       -1.72100662979908
H            1.72057382399275       -2.78581082356742       -2.22106339563160
H            0.69195894753962       -3.50993637311472       -0.97061650849540
H           -0.02226940022344       -2.94789924640913       -2.49692418701020
H           -0.72225970931703       -0.57994813433119        0.31562516173524
H           -6.59680608114979        0.40746018094219       -1.09979699327709
H           -6.79602916269731        0.52859147658377        0.66789251308694
H           -6.23165684726035        1.93462775506063       -0.25778676199408
H           -5.00142788772952        0.93311716781143        2.87654200100392
H           -4.83411953870278        2.41062484662234        1.92976393302211
H           -3.41242877793964        1.69839910442199        2.71657892390914
H            5.07803704895657        0.04197222297363        2.52652897467528

          :  Hamiltonian                  GFN1-xTB          :
         :: total energy             -83.575153801709 Eh    ::
         :: gradient norm              0.000436829644 Eh/a0 ::
         :: HOMO-LUMO gap              0.098552955239 eV    ::
         :: SCC energy               -84.300871965391 Eh    ::
         :: -> Gsolv                  -0.295456814352 Eh    ::
         :: repulsion energy           0.750572932075 Eh    ::

    * Orbital Energies and Occupations

         #    Occupation            Energy/Eh            Energy/eV
      -------------------------------------------------------------
         1        2.0000           -0.8089389             -22.0123
       ...           ...                  ...                  ...
        56        2.0000           -0.4395103             -11.9597
        57        2.0000           -0.4334535             -11.7949
        58        2.0000           -0.4239558             -11.5364
        59        2.0000           -0.4131952             -11.2436
        60        2.0000           -0.4020864             -10.9413
        61        2.0000           -0.3892401             -10.5918
        62        2.0000           -0.3803629             -10.3502
        63        2.0000           -0.3723390             -10.1319
        64        2.0000           -0.3676983             -10.0056
        65        2.0000           -0.3503426              -9.5333
        66        2.0000           -0.3420432              -9.3075
        67        2.0000           -0.3418025              -9.3009
        68        1.7412           -0.2612793              -7.1098 (HOMO)
        69        0.2588           -0.2576576              -7.0112 (LUMO)
        70                         -0.2305938              -6.2748
        71                         -0.1973648              -5.3706
        72                         -0.1638333              -4.4581
        73                         -0.1421292              -3.8675
        74                         -0.1262696              -3.4360
        75                         -0.1165206              -3.1707
        76                         -0.1107080              -3.0125
        77                         -0.0841220              -2.2891
        78                         -0.0827280              -2.2511
        79                         -0.0788966              -2.1469
       ...                                ...                  ...
       134                          0.7201701              19.5968
      -------------------------------------------------------------
                  HL-Gap            0.0036218 Eh            0.0986 eV

Wiberg/Mayer (AO) data.
largest (>0.10) Wiberg bond orders for each atom

     #   Z sym  total        # sym  WBO       # sym  WBO       # sym  WBO
 ---------------------------------------------------------------------------
     1   6 C    3.901 --    26 H    0.987    27 H    0.980    28 H    0.980
                             2 O    0.928
     2   8 O    2.128 --     3 C    1.033     1 C    0.928
     3   6 C    3.724 --     4 O    1.508     5 C    1.107     2 O    1.033
     4   8 O    1.815 --     3 C    1.508
     5   6 C    3.927 --    24 C    1.396     6 N    1.190     3 C    1.107
     6   7 N    2.959 --     7 C    1.457     5 C    1.190
     7   6 C    3.953 --     6 N    1.457    21 N    1.370     8 C    0.967
     8   6 C    3.960 --     9 C    0.992    10 C    0.988     7 C    0.967
                            11 N    0.954
     9   6 C    3.995 --     8 C    0.992    30 H    0.987    31 H    0.986
                            29 H    0.984
    10   6 C    3.995 --    32 H    0.989     8 C    0.988    33 H    0.985
                            34 H    0.981
    11   7 N    3.067 --    12 C    0.979     8 C    0.954    35 H    0.940
    12   6 C    3.872 --    14 C    1.433    13 O    1.321    11 N    0.979
    13   8 O    1.625 --    12 C    1.321    14 C    0.125
    14   6 C    3.619 --    12 C    1.433    15 N    1.113    20 O    0.842
                            13 O    0.125
    15   7 N    2.732 --    16 N    1.188    14 C    1.113    18 C    0.283
    16   7 N    3.633 --    18 C    1.367    15 N    1.188    17 C    0.949
    17   6 C    3.952 --    36 H    0.985    37 H    0.982    38 H    0.980
                            16 N    0.949
    18   6 C    3.807 --    16 N    1.367    20 O    1.032    19 C    1.026
                            15 N    0.283
    19   6 C    3.993 --    18 C    1.026    41 H    0.982    40 H    0.975
                            39 H    0.968
    20   8 O    2.074 --    18 C    1.032    14 C    0.842
    21   7 N    2.928 --     7 C    1.370    22 C    1.221    23 O    0.117
    22   6 C    3.915 --    23 O    1.453    21 N    1.221    24 C    1.116
    23   8 O    1.727 --    22 C    1.453    21 N    0.117
    24   6 C    3.808 --     5 C    1.396    22 C    1.116    25 O    1.042
    25   8 O    2.002 --    24 C    1.042    42 H    0.811
    26   1 H    1.016 --     1 C    0.987
    27   1 H    1.013 --     1 C    0.980
    28   1 H    1.014 --     1 C    0.980
    29   1 H    1.022 --     9 C    0.984
    30   1 H    1.020 --     9 C    0.987
    31   1 H    1.018 --     9 C    0.986
    32   1 H    1.009 --    10 C    0.989
    33   1 H    1.028 --    10 C    0.985
    34   1 H    1.034 --    10 C    0.981
    35   1 H    0.986 --    11 N    0.940
    36   1 H    1.012 --    17 C    0.985
    37   1 H    1.002 --    17 C    0.982
    38   1 H    1.002 --    17 C    0.980
    39   1 H    1.001 --    19 C    0.968
    40   1 H    1.001 --    19 C    0.975
    41   1 H    1.002 --    19 C    0.982
    42   1 H    0.888 --    25 O    0.811
 ---------------------------------------------------------------------------

           -------------------------------------------------
          | TOTAL ENERGY              -83.575153801709 Eh   |
          | GRADIENT NORM               0.000436829644 Eh/α |
          | HOMO-LUMO GAP               0.098552955239 eV   |
           -------------------------------------------------

 * finished run on 2023/06/20 at 17:54:54.672
