   * xtb version 6.5.1 (579679a) compiled by 'ehlert@majestix' on 2022-07-11
          program call               : /lustre/hpc/kemi/ree/PhD/git/ReactivityQM/dep/xtb-6.5.1/bin/xtb --gfn 1 /lustre/hpc/kemi/ree/PhD/git/ReactivityQM/calculations/RaltegravirCLI/reac02prodE01/conf03/RaltegravirCLI_reac02prodE01_conf03_gfn1.xyz --opt --vfukui --chrg -1 --uhf 0 --alpb DMSO

   ID    Z sym.   atoms
    1    6 C      1, 3-6, 9-11, 14-18, 20-22, 24
    2    7 N      2, 7, 8, 13
    3    8 O      12, 23, 25
    4    9 F      19
    5    1 H      26-47

      * Solvation model:               ALPB
        Solvent                        DMSO
        Solvent mass                       7.8130E+01 g/mol
          :  Hamiltonian                  GFN1-xTB          :
 * total energy  :   -80.1844295 Eh     change       -0.4348522E-11 Eh
 * total energy  :   -80.1955930 Eh     change       -0.1116356E-01 Eh
 * total energy  :   -80.1984150 Eh     change       -0.2821913E-02 Eh
 * total energy  :   -80.1989847 Eh     change       -0.5697714E-03 Eh
 * total energy  :   -80.1993096 Eh     change       -0.3248466E-03 Eh
 * total energy  :   -80.1995141 Eh     change       -0.2045341E-03 Eh
 * total energy  :   -80.1996813 Eh     change       -0.1672189E-03 Eh
 * total energy  :   -80.1997902 Eh     change       -0.1089264E-03 Eh
 * total energy  :   -80.1998575 Eh     change       -0.6724878E-04 Eh
 * total energy  :   -80.1998907 Eh     change       -0.3315390E-04 Eh
 * total energy  :   -80.1999310 Eh     change       -0.2006066E-04 Eh
 * total energy  :   -80.1999413 Eh     change       -0.1022982E-04 Eh
 * total energy  :   -80.1999661 Eh     change       -0.2486600E-04 Eh
 * total energy  :   -80.1999750 Eh     change       -0.8884913E-05 Eh
 * total energy  :   -80.1999991 Eh     change       -0.2410680E-04 Eh
 * total energy  :   -80.2000040 Eh     change       -0.4864441E-05 Eh
 * total energy  :   -80.2000111 Eh     change       -0.7092887E-05 Eh
 * total energy  :   -80.2000182 Eh     change       -0.7078580E-05 Eh
 * total energy  :   -80.2000222 Eh     change       -0.4042977E-05 Eh
   *** GEOMETRY OPTIMIZATION CONVERGED AFTER 20 ITERATIONS ***

 final structure:
================
47
 xtb: 6.5.1 (579679a)
C           -3.78091100131007        1.44700977793325       -2.10075181145147
N           -2.63994405867201        1.18846939873539       -1.22486349827828
C           -2.66686505164754        0.37903384066043       -0.11527714013358
C           -3.91935322496584       -0.39248354823671        0.29560989077951
C           -3.68078612918974       -1.04898030247731        1.66570264008436
C           -4.21950909267300       -1.48558431353900       -0.73979053066880
N           -5.06976308529974        0.51025800953124        0.38094179569302
N           -1.61384326510423        0.19402132041399        0.61371176444467
C           -0.41561254902872        0.78963422798327        0.34407731575097
C            0.74229045193266        0.49676504587598        1.39223474414544
C            1.07184701511143        1.91404168082719        2.01512253160643
O            0.44736161776337       -0.40406012741198        2.27607813462751
N            1.93575428028311        0.10471275754228        0.49291848556136
C            3.02356595829843       -0.45068886992644        1.30631970236992
C            4.08761397767926       -1.01453933157217        0.39758547189723
C            4.09935538639317       -2.36776910741952        0.06201921189759
C            5.06484681373159       -2.88311957235703       -0.79307944816464
C            6.01058367678180       -2.01726517293328       -1.30991801417407
F            6.95358606666451       -2.50885267472079       -2.14076661488089
C            6.03247733107647       -0.66897769918851       -1.00432071381676
C            5.06105848243238       -0.17531098332362       -0.14436514391761
C           -0.33431395924598        1.60300111581133       -0.75045954134485
O            0.80827144782901        2.25766322764437       -1.12521810194625
C           -1.46796234462202        1.82749078496920       -1.60450436640677
O           -1.42316151440039        2.54429157007162       -2.61596420880610
H           -4.71285501451652        1.29893458625219       -1.56279976028885
H           -3.72004704340342        2.48058248589501       -2.44441946328923
H           -3.73838196416303        0.78664597595787       -2.96830079262514
H           -4.58260918989980       -1.57302011606595        1.97697633475438
H           -2.85549622567275       -1.75912377573224        1.60986062182102
H           -3.43938002223789       -0.29013124351720        2.40938040221348
H           -3.34128316193701       -2.11422903697896       -0.88656354365354
H           -4.50559717761907       -1.05296840929573       -1.69604443031958
H           -5.04064507162653       -2.10835932059132       -0.38786132067987
H           -5.90682843144093       -0.03385314968938        0.52982098403243
H           -4.96424986377614        1.13153122980067        1.17240286799945
H            0.17722040932754        2.28042931808813        2.51769850437888
H            1.86145432229920        1.79468169326769        2.75535721407852
H            1.38649495351900        2.63634295157989        1.26480983583334
H            2.28231113164384        0.95502330658464        0.04832964581973
H            3.47472414368357        0.31373183493988        1.96011845681793
H            2.60956285617585       -1.24535196931567        1.94065462291677
H            3.35210276994768       -3.03592248550111        0.47786750944476
H            5.08815571079871       -3.93362836389975       -1.05253452044901
H            6.79300615668698       -0.02567752319712       -1.42685462444432
H            5.06674979336412        0.87857130868967        0.11088640627347
H            0.60900268902799        2.77703164783549       -1.92183150550247

          :  Hamiltonian                  GFN1-xTB          :
         :: total energy             -80.200022207353 Eh    ::
         :: gradient norm              0.000857289746 Eh/a0 ::
         :: HOMO-LUMO gap              1.684337712711 eV    ::
         :: SCC energy               -81.055177301312 Eh    ::
         :: -> Gsolv                  -0.121331436895 Eh    ::
         :: repulsion energy           0.885033072972 Eh    ::

    * Orbital Energies and Occupations

         #    Occupation            Energy/Eh            Energy/eV
      -------------------------------------------------------------
         1        2.0000           -0.8518874             -23.1810
       ...           ...                  ...                  ...
        56        2.0000           -0.4563848             -12.4189
        57        2.0000           -0.4481410             -12.1945
        58        2.0000           -0.4369138             -11.8890
        59        2.0000           -0.4319006             -11.7526
        60        2.0000           -0.4301843             -11.7059
        61        2.0000           -0.4243182             -11.5463
        62        2.0000           -0.4182956             -11.3824
        63        2.0000           -0.4069293             -11.0731
        64        2.0000           -0.4000868             -10.8869
        65        2.0000           -0.3857205             -10.4960
        66        2.0000           -0.3636947              -9.8966
        67        2.0000           -0.3355094              -9.1297
        68        2.0000           -0.3263252              -8.8798 (HOMO)
        69                         -0.2644269              -7.1954 (LUMO)
        70                         -0.2589558              -7.0465
        71                         -0.2487184              -6.7680
        72                         -0.2382825              -6.4840
        73                         -0.1335687              -3.6346
        74                         -0.1296148              -3.5270
        75                         -0.1262075              -3.4343
        76                         -0.1151219              -3.1326
        77                         -0.1073024              -2.9198
        78                         -0.0979778              -2.6661
        79                         -0.0923103              -2.5119
       ...                                ...                  ...
       144                          0.6969236              18.9643
      -------------------------------------------------------------
                  HL-Gap            0.0618983 Eh            1.6843 eV

Wiberg/Mayer (AO) data.
largest (>0.10) Wiberg bond orders for each atom

     #   Z sym  total        # sym  WBO       # sym  WBO       # sym  WBO
 ---------------------------------------------------------------------------
     1   6 C    3.935 --    28 H    0.979    27 H    0.977    26 H    0.971
                             2 N    0.938
     2   7 N    3.497 --     3 C    1.168    24 C    1.117     1 C    0.938
                            25 O    0.122
     3   6 C    3.931 --     8 N    1.568     2 N    1.168     4 C    0.974
     4   6 C    3.965 --     5 C    0.992     6 C    0.988     7 N    0.976
                             3 C    0.974
     5   6 C    3.996 --     4 C    0.992    29 H    0.987    31 H    0.984
                            30 H    0.983
     6   6 C    3.995 --     4 C    0.988    32 H    0.986    34 H    0.984
                            33 H    0.982
     7   7 N    2.993 --     4 C    0.976    35 H    0.943    36 H    0.943
     8   7 N    3.037 --     3 C    1.568     9 C    1.211
     9   6 C    3.913 --    22 C    1.511     8 N    1.211    10 C    0.882
    10   6 C    3.935 --    12 O    1.240    11 C    0.914     9 C    0.882
                            13 N    0.845
    11   6 C    3.986 --    39 H    0.988    37 H    0.987    38 H    0.984
                            10 C    0.914
    12   8 O    1.511 --    10 C    1.240
    13   7 N    2.956 --    14 C    0.982    40 H    0.959    10 C    0.845
    14   6 C    3.982 --    15 C    1.003    13 N    0.982    42 H    0.970
                            41 H    0.968
    15   6 C    3.984 --    16 C    1.414    21 C    1.411    14 C    1.003
    16   6 C    3.993 --    17 C    1.441    15 C    1.414    43 H    0.973
                            20 C    0.109
    17   6 C    3.992 --    16 C    1.441    18 C    1.404    44 H    0.971
                            21 C    0.110
    18   6 C    3.854 --    17 C    1.404    20 C    1.401    19 F    0.911
    19   9 F    1.035 --    18 C    0.911
    20   6 C    3.992 --    21 C    1.444    18 C    1.401    45 H    0.971
                            16 C    0.109
    21   6 C    3.994 --    20 C    1.444    15 C    1.411    46 H    0.973
                            17 C    0.110
    22   6 C    3.907 --     9 C    1.511    24 C    1.142    23 O    1.026
    23   8 O    2.024 --    22 C    1.026    47 H    0.828
    24   6 C    3.914 --    25 O    1.490    22 C    1.142     2 N    1.117
    25   8 O    1.837 --    24 C    1.490     2 N    0.122
    26   1 H    1.032 --     1 C    0.971
    27   1 H    1.013 --     1 C    0.977
    28   1 H    1.007 --     1 C    0.979
    29   1 H    1.005 --     5 C    0.987
    30   1 H    1.017 --     5 C    0.983
    31   1 H    1.013 --     5 C    0.984
    32   1 H    1.005 --     6 C    0.986
    33   1 H    1.006 --     6 C    0.982
    34   1 H    1.002 --     6 C    0.984
    35   1 H    0.958 --     7 N    0.943
    36   1 H    0.959 --     7 N    0.943
    37   1 H    1.017 --    11 C    0.987
    38   1 H    1.016 --    11 C    0.984
    39   1 H    1.013 --    11 C    0.988
    40   1 H    0.996 --    13 N    0.959
    41   1 H    1.009 --    14 C    0.968
    42   1 H    1.041 --    14 C    0.970
    43   1 H    1.003 --    16 C    0.973
    44   1 H    1.000 --    17 C    0.971
    45   1 H    1.000 --    20 C    0.971
    46   1 H    1.002 --    21 C    0.973
    47   1 H    0.872 --    23 O    0.828
 ---------------------------------------------------------------------------

           -------------------------------------------------
          | TOTAL ENERGY              -80.200022207353 Eh   |
          | GRADIENT NORM               0.000857289746 Eh/α |
          | HOMO-LUMO GAP               1.684337712711 eV   |
           -------------------------------------------------

 * finished run on 2023/06/20 at 14:56:17.023
