   * xtb version 6.5.1 (579679a) compiled by 'ehlert@majestix' on 2022-07-11
          program call               : /lustre/hpc/kemi/ree/PhD/git/ReactivityQM/dep/xtb-6.5.1/bin/xtb --gfn 1 /lustre/hpc/kemi/ree/PhD/git/ReactivityQM/calculations/R02oxygendeprot/reac01prodE05/conf03/R02oxygendeprot_reac01prodE05_conf03_gfn1.xyz --opt --vfukui --chrg -2 --uhf 0 --alpb DMSO

   ID    Z sym.   atoms
    1    6 C      1, 3, 5, 6, 8, 11-14, 16, 18, 21, 22, 25
    2    8 O      2, 4, 7, 9, 17, 23
    3    7 N      10, 15, 19, 20, 24
    4    1 H      26-42

      * Solvation model:               ALPB
        Solvent                        DMSO
        Solvent mass                       7.8130E+01 g/mol
          :  Hamiltonian                  GFN1-xTB          :
 * total energy  :   -83.5574342 Eh     change       -0.3545608E-10 Eh
 * total energy  :   -83.5685701 Eh     change       -0.1113589E-01 Eh
 * total energy  :   -83.5731748 Eh     change       -0.4604742E-02 Eh
 * total energy  :   -83.5743355 Eh     change       -0.1160628E-02 Eh
 * total energy  :   -83.5753405 Eh     change       -0.1005079E-02 Eh
 * total energy  :   -83.5758399 Eh     change       -0.4994037E-03 Eh
 * total energy  :   -83.5761497 Eh     change       -0.3097234E-03 Eh
 * total energy  :   -83.5763426 Eh     change       -0.1929819E-03 Eh
 * total energy  :   -83.5764775 Eh     change       -0.1348845E-03 Eh
 * total energy  :   -83.5765866 Eh     change       -0.1090444E-03 Eh
 * total energy  :   -83.5873874 Eh     change       -0.9176303E-05 Eh
 * total energy  :   -83.5873960 Eh     change       -0.8592869E-05 Eh
 * total energy  :   -83.5874051 Eh     change       -0.9060794E-05 Eh
 * total energy  :   -83.5874168 Eh     change       -0.1174387E-04 Eh
 * total energy  :   -83.5874311 Eh     change       -0.1425428E-04 Eh
 * total energy  :   -83.5874452 Eh     change       -0.1414152E-04 Eh
 * total energy  :   -83.5874545 Eh     change       -0.9264441E-05 Eh
 * total energy  :   -83.5874603 Eh     change       -0.5795197E-05 Eh
 * total energy  :   -83.5874644 Eh     change       -0.4107873E-05 Eh
   *** GEOMETRY OPTIMIZATION CONVERGED AFTER 112 ITERATIONS ***

 final structure:
================
42
 xtb: 6.5.1 (579679a)
C           -1.12094036670589        1.53922268177468       -2.95226511855352
O           -1.11209409268508        1.15138654147238       -1.59468393824573
C           -2.30483994037237        0.59104309275626       -1.12514796361768
O           -3.23924495683396        0.44523182055443       -1.91820348986858
C           -2.24922111949827        0.27744748729707        0.25893389243844
C           -3.30354071873413       -0.32902760241669        0.97759869577998
O           -4.40480339852608       -0.70323214850867        0.50801587116129
C           -3.00745471055768       -0.60286638897774        2.44711190981072
O           -3.89680717309648       -0.73351151823343        3.31526130091997
N           -1.70672809188609       -0.77306309428642        2.75906431680137
C           -0.59303495285857       -0.28605776126011        1.98150845157742
C            0.24465719871418       -1.44034831111950        1.39084728678553
C           -0.58377680223766       -2.59409963982754        0.77832849561634
C            1.14818207021130       -1.99526719901612        2.50727931252356
N            1.07749379465980       -0.83367787673167        0.34659560926927
C            2.01360608593485       -1.46296169621395       -0.37311931269212
O            2.34408340412129       -2.64958078468331       -0.24552545143380
C            2.67588503810498       -0.60459733786606       -1.37724813003804
N            3.59654483723274       -0.96869267596589       -2.23532582246556
N            3.92378986119608        0.14572142221157       -2.95734995407525
C            3.19386404236746        1.11443429738973       -2.50398076726774
C            3.18873417951217        2.52304365705967       -2.96144196901934
O            2.37975478242946        0.71741856576474       -1.50797964228079
N           -1.02719893702831        0.64873664087732        0.95914203002919
C           -1.11714168762259        2.01203620652647        1.51066934122977
H           -0.13066201432344        1.93531072586502       -3.18249667285332
H           -1.33223571538331        0.68871120321610       -3.61311535265415
H           -1.87129968199342        2.31736528474410       -3.13889259505381
H           -1.51745280849459       -0.98667949505543        3.72599476647617
H            0.06652389189321       -3.39397109637936        0.42357397550517
H           -1.24944504868482       -2.99950733950770        1.54055936603882
H           -1.18192305482028       -2.22557904347000       -0.05625016354860
H            1.80990105632125       -2.78082818819677        2.14238064610808
H            1.74851362595540       -1.18510395644315        2.92066727602580
H            0.52573405244923       -2.40419738402793        3.30236684582971
H            0.84158734781124        0.13171896989908        0.12301849717911
H            3.92543490042206        2.65047153195239       -3.75001088051884
H            3.42681689620356        3.18868236047173       -2.13256647438532
H            2.20330241692456        2.79427269028570       -3.34045545310423
H           -0.18037561891990        2.23455566045959        2.02404124848147
H           -1.94703590363543        2.12033714816547        2.22491184557411
H           -1.25715568759121        2.72570554948766        0.69550217050745

          :  Hamiltonian                  GFN1-xTB          :
         :: total energy             -83.587464385177 Eh    ::
         :: gradient norm              0.000316413336 Eh/a0 ::
         :: HOMO-LUMO gap              0.120072909260 eV    ::
         :: SCC energy               -84.306558341927 Eh    ::
         :: -> Gsolv                  -0.272562349305 Eh    ::
         :: repulsion energy           0.748208024994 Eh    ::

    * Orbital Energies and Occupations

         #    Occupation            Energy/Eh            Energy/eV
      -------------------------------------------------------------
         1        2.0000           -0.8324767             -22.6528
       ...           ...                  ...                  ...
        56        2.0000           -0.4365780             -11.8799
        57        2.0000           -0.4328900             -11.7795
        58        2.0000           -0.4278081             -11.6412
        59        2.0000           -0.4272097             -11.6250
        60        2.0000           -0.4136402             -11.2557
        61        2.0000           -0.4115502             -11.1989
        62        2.0000           -0.4023835             -10.9494
        63        2.0000           -0.4002229             -10.8906
        64        2.0000           -0.3802654             -10.3475
        65        2.0000           -0.3552339              -9.6664
        66        2.0000           -0.3369300              -9.1683
        67        2.0000           -0.3187423              -8.6734
        68        1.8214           -0.2804445              -7.6313 (HOMO)
        69        0.1786           -0.2760319              -7.5112 (LUMO)
        70                         -0.2315428              -6.3006
        71                         -0.2247999              -6.1171
        72                         -0.1607575              -4.3744
        73                         -0.1596146              -4.3433
        74                         -0.1373453              -3.7374
        75                         -0.1080741              -2.9408
        76                         -0.0981154              -2.6699
        77                         -0.0920874              -2.5058
        78                         -0.0843901              -2.2964
        79                         -0.0767681              -2.0890
       ...                                ...                  ...
       134                          0.7711555              20.9842
      -------------------------------------------------------------
                  HL-Gap            0.0044126 Eh            0.1201 eV

Wiberg/Mayer (AO) data.
largest (>0.10) Wiberg bond orders for each atom

     #   Z sym  total        # sym  WBO       # sym  WBO       # sym  WBO
 ---------------------------------------------------------------------------
     1   6 C    3.917 --    26 H    0.984    28 H    0.980    27 H    0.980
                             2 O    0.947
     2   8 O    2.102 --     3 C    0.957     1 C    0.947
     3   6 C    3.852 --     4 O    1.518     5 C    1.246     2 O    0.957
     4   8 O    1.818 --     3 C    1.518
     5   6 C    3.889 --     6 C    1.308     3 C    1.246    24 N    0.967
                             7 O    0.128
     6   6 C    3.932 --     7 O    1.485     5 C    1.308     8 C    0.950
     7   8 O    1.782 --     6 C    1.485     5 C    0.128
     8   6 C    3.882 --     9 O    1.478    10 N    1.272     6 C    0.950
     9   8 O    1.754 --     8 C    1.478    10 N    0.155
    10   7 N    3.376 --     8 C    1.272    11 C    0.943    29 H    0.918
                             9 O    0.155
    11   6 C    3.197 --    24 N    0.967    12 C    0.956    10 N    0.943
    12   6 C    3.899 --    14 C    0.988    13 C    0.976    11 C    0.956
                            15 N    0.912
    13   6 C    3.986 --    31 H    0.986    30 H    0.985    32 H    0.985
                            12 C    0.976
    14   6 C    3.991 --    12 C    0.988    34 H    0.987    35 H    0.986
                            33 H    0.984
    15   7 N    3.359 --    16 C    1.296    12 C    0.912    36 H    0.884
                            17 O    0.175
    16   6 C    3.881 --    17 O    1.493    15 N    1.296    18 C    1.017
    17   8 O    1.796 --    16 C    1.493    15 N    0.175
    18   6 C    3.787 --    19 N    1.557    23 O    1.024    16 C    1.017
    19   7 N    2.900 --    18 C    1.557    20 N    1.187
    20   7 N    2.978 --    21 C    1.623    19 N    1.187
    21   6 C    3.853 --    20 N    1.623    23 O    1.066    22 C    1.028
    22   6 C    3.991 --    21 C    1.028    37 H    0.984    38 H    0.968
                            39 H    0.965
    23   8 O    2.273 --    21 C    1.066    18 C    1.024
    24   7 N    3.087 --    25 C    0.971    11 C    0.967     5 C    0.967
    25   6 C    3.984 --    40 H    0.989    42 H    0.988    41 H    0.982
                            24 N    0.971
    26   1 H    1.022 --     1 C    0.984
    27   1 H    1.020 --     1 C    0.980
    28   1 H    1.018 --     1 C    0.980
    29   1 H    0.983 --    10 N    0.918
    30   1 H    1.016 --    13 C    0.985
    31   1 H    1.014 --    13 C    0.986
    32   1 H    1.019 --    13 C    0.985
    33   1 H    1.017 --    14 C    0.984
    34   1 H    1.023 --    14 C    0.987
    35   1 H    1.010 --    14 C    0.986
    36   1 H    0.989 --    15 N    0.884
    37   1 H    1.002 --    22 C    0.984
    38   1 H    0.999 --    22 C    0.968
    39   1 H    1.002 --    22 C    0.965
    40   1 H    1.037 --    25 C    0.989
    41   1 H    1.013 --    25 C    0.982
    42   1 H    1.025 --    25 C    0.988
 ---------------------------------------------------------------------------

           -------------------------------------------------
          | TOTAL ENERGY              -83.587464385177 Eh   |
          | GRADIENT NORM               0.000316413336 Eh/α |
          | HOMO-LUMO GAP               0.120072909260 eV   |
           -------------------------------------------------

 * finished run on 2023/06/21 at 17:06:04.842
