   * xtb version 6.5.1 (579679a) compiled by 'ehlert@majestix' on 2022-07-11
          program call               : /lustre/hpc/kemi/ree/PhD/git/ReactivityQM/dep/xtb-6.5.1/bin/xtb --gfn 1 /lustre/hpc/kemi/ree/PhD/git/ReactivityQM/calculations/R03/reac02prodE10/conf01/R03_reac02prodE10_conf01_gfn1.xyz --opt --vfukui --chrg -1 --uhf 0 --alpb DMSO

   ID    Z sym.   atoms
    1    6 C      1, 3, 5, 7-10, 12, 14, 17-19, 22, 23, 25
    2    8 O      2, 4, 13, 20, 24, 26
    3    7 N      6, 11, 15, 16, 21
    4    1 H      27-46

      * Solvation model:               ALPB
        Solvent                        DMSO
        Solvent mass                       7.8130E+01 g/mol
          :  Hamiltonian                  GFN1-xTB          :
 * total energy  :   -86.9844057 Eh     change       -0.1793410E-09 Eh
 * total energy  :   -86.9983280 Eh     change       -0.1392229E-01 Eh
 * total energy  :   -87.0037893 Eh     change       -0.5461324E-02 Eh
 * total energy  :   -87.0045844 Eh     change       -0.7951278E-03 Eh
 * total energy  :   -87.0050821 Eh     change       -0.4976722E-03 Eh
 * total energy  :   -87.0051887 Eh     change       -0.1065500E-03 Eh
 * total energy  :   -87.0052852 Eh     change       -0.9657334E-04 Eh
 * total energy  :   -87.0053370 Eh     change       -0.5180738E-04 Eh
 * total energy  :   -87.0053774 Eh     change       -0.4033321E-04 Eh
 * total energy  :   -87.0054059 Eh     change       -0.2854965E-04 Eh
 * total energy  :   -87.0055020 Eh     change       -0.2289822E-04 Eh
 * total energy  :   -87.0055204 Eh     change       -0.1837878E-04 Eh
 * total energy  :   -87.0055388 Eh     change       -0.1844092E-04 Eh
 * total energy  :   -87.0055501 Eh     change       -0.1129643E-04 Eh
 * total energy  :   -87.0055600 Eh     change       -0.9914097E-05 Eh
 * total energy  :   -87.0055668 Eh     change       -0.6782631E-05 Eh
 * total energy  :   -87.0055735 Eh     change       -0.6658237E-05 Eh
 * total energy  :   -87.0055807 Eh     change       -0.7262741E-05 Eh
 * total energy  :   -87.0055839 Eh     change       -0.3217349E-05 Eh
   *** GEOMETRY OPTIMIZATION CONVERGED AFTER 22 ITERATIONS ***

 final structure:
================
46
 xtb: 6.5.1 (579679a)
C           -6.32723285361656       -1.77972208425057        2.13839361710818
O           -5.46175162565344       -1.48740282622952        1.05247264131155
C           -4.33770656195284       -0.77082950916040        1.37016171524509
O           -4.12267760129956       -0.42562628662576        2.53374036442226
C           -3.48238062503990       -0.47925969352035        0.24226470329173
N           -2.35335476538423        0.25298292726529        0.54923792117976
C           -1.49293349403064        0.60929260502647       -0.34330879241640
C           -0.32717660976849        1.46932417052005        0.15002884012269
C           -0.31779428601613        1.45304251017993        1.69008611808428
C           -0.54476993070068        2.91048677831229       -0.34333747535114
N            0.92219327431434        0.90836584932113       -0.37373410770721
C            2.17160982143474        1.46433240052856        0.05997457372754
O            2.26915358031330        2.64615972307811        0.48065296558634
C            3.21909495677425        0.56445467878378       -0.11526424679825
N            3.14713962348788       -0.73826193150733       -0.57525463002728
N            4.41439140101520       -1.15653997370064       -0.54351224449840
C            4.73106893291258       -2.49828468163376       -0.97359886640742
C            5.25082490546503       -0.24389326353536       -0.10708251490305
C            6.71995449066949       -0.35312251150057        0.04811175548604
O            4.57910233345488        0.88276974017174        0.18976401655224
N           -1.64603708637784        0.27947865848142       -1.67607763687047
C           -0.76227009962653        0.67092633634548       -2.77016255518398
C           -2.76616580429309       -0.45926398027028       -2.10124682341626
O           -2.91208896034786       -0.74197701616289       -3.30936190784289
C           -3.68520864304792       -0.84277639769607       -1.09554543583647
O           -4.76870335932214       -1.56376957082077       -1.52135861119532
H           -5.80961109971557       -2.36858132593459        2.90327859526752
H           -7.16202993215159       -2.35351226033886        1.73660551883545
H           -6.70133047401757       -0.85860777423068        2.59836016710872
H           -1.25372063626945        1.85826298323588        2.07328136814924
H           -0.20471110926817        0.43174054046321        2.05297757184989
H            0.50749198699494        2.05796002742177        2.06198002393386
H           -0.40605392390695        2.98033155611402       -1.42020312727517
H           -1.55952180839901        3.22597295137721       -0.10011569116423
H            0.15787801073252        3.58750542775174        0.13936142031891
H            0.93445147103309       -0.10381183935395       -0.30397392271573
H            5.17569976228581       -3.05128949521776       -0.14741093418873
H            5.43607213510057       -2.45904216641814       -1.80258608028915
H            3.80810399219059       -2.97748724791755       -1.29063735230139
H            7.20859843917041       -0.41531735308115       -0.92573231312780
H            6.98099700931896       -1.24894662740817        0.61138601224741
H            7.09092187540324        0.52466501303539        0.57312585410054
H            0.17868818897839        1.06071068296651       -2.39404590140817
H           -0.56548647371214       -0.20788862378403       -3.38725960194041
H           -1.25862786709759        1.42322324366482       -3.38764938128612
H           -4.67409456003420       -1.67677136374173       -2.48333360977647

          :  Hamiltonian                  GFN1-xTB          :
         :: total energy             -87.005583945304 Eh    ::
         :: gradient norm              0.000349270751 Eh/a0 ::
         :: HOMO-LUMO gap              0.039723182317 eV    ::
         :: SCC energy               -87.796559039780 Eh    ::
         :: -> Gsolv                  -0.127964648380 Eh    ::
         :: repulsion energy           0.819326275324 Eh    ::

    * Orbital Energies and Occupations

         #    Occupation            Energy/Eh            Energy/eV
      -------------------------------------------------------------
         1        2.0000           -0.8393153             -22.8389
       ...           ...                  ...                  ...
        59        2.0000           -0.4713686             -12.8266
        60        2.0000           -0.4647157             -12.6456
        61        2.0000           -0.4620343             -12.5726
        62        2.0000           -0.4463549             -12.1459
        63        2.0000           -0.4372821             -11.8991
        64        2.0000           -0.4284474             -11.6586
        65        2.0000           -0.4194780             -11.4146
        66        2.0000           -0.4160256             -11.3206
        67        2.0000           -0.4043604             -11.0032
        68        2.0000           -0.4035604             -10.9814
        69        2.0000           -0.3878816             -10.5548
        70        2.0000           -0.3838019             -10.4438
        71        1.3663           -0.2901611              -7.8957 (HOMO)
        72        0.6337           -0.2887013              -7.8560 (LUMO)
        73                         -0.2610194              -7.1027
        74                         -0.2384448              -6.4884
        75                         -0.1952948              -5.3142
        76                         -0.1535438              -4.1781
        77                         -0.1459560              -3.9717
        78                         -0.1389766              -3.7817
        79                         -0.1215714              -3.3081
        80                         -0.1172009              -3.1892
        81                         -0.1108071              -3.0152
        82                         -0.1007189              -2.7407
       ...                                ...                  ...
       144                          0.6953551              18.9216
      -------------------------------------------------------------
                  HL-Gap            0.0014598 Eh            0.0397 eV

Wiberg/Mayer (AO) data.
largest (>0.10) Wiberg bond orders for each atom

     #   Z sym  total        # sym  WBO       # sym  WBO       # sym  WBO
 ---------------------------------------------------------------------------
     1   6 C    3.901 --    28 H    0.987    29 H    0.980    27 H    0.980
                             2 O    0.930
     2   8 O    2.109 --     3 C    1.014     1 C    0.930     4 O    0.102
     3   6 C    3.743 --     4 O    1.534     5 C    1.128     2 O    1.014
     4   8 O    1.757 --     3 C    1.534     2 O    0.102
     5   6 C    3.810 --    25 C    1.312     6 N    1.150     3 C    1.128
     6   7 N    3.010 --     7 C    1.600     5 C    1.150
     7   6 C    3.900 --     6 N    1.600    21 N    1.135     8 C    0.972
     8   6 C    3.956 --     9 C    0.990    10 C    0.984     7 C    0.972
                            11 N    0.952
     9   6 C    3.993 --     8 C    0.990    31 H    0.986    30 H    0.985
                            32 H    0.982
    10   6 C    3.991 --    34 H    0.988     8 C    0.984    33 H    0.983
                            35 H    0.978
    11   7 N    3.102 --    12 C    0.996     8 C    0.952    36 H    0.929
    12   6 C    3.806 --    13 O    1.396    14 C    1.313    11 N    0.996
    13   8 O    1.656 --    12 C    1.396
    14   6 C    3.559 --    12 C    1.313    15 N    1.181    20 O    0.883
    15   7 N    2.679 --    14 C    1.181    16 N    1.159    18 C    0.199
    16   7 N    3.639 --    18 C    1.408    15 N    1.159    17 C    0.940
    17   6 C    3.936 --    39 H    0.983    38 H    0.979    37 H    0.978
                            16 N    0.940
    18   6 C    3.793 --    16 N    1.408    20 O    1.082    19 C    1.029
                            15 N    0.199
    19   6 C    3.987 --    18 C    1.029    42 H    0.980    41 H    0.970
                            40 H    0.963
    20   8 O    2.126 --    18 C    1.082    14 C    0.883
    21   7 N    3.359 --     7 C    1.135    23 C    1.049    22 C    0.943
    22   6 C    3.941 --    45 H    0.980    44 H    0.979    43 H    0.974
                            21 N    0.943
    23   6 C    3.836 --    24 O    1.448    25 C    1.215    21 N    1.049
    24   8 O    1.755 --    23 C    1.448
    25   6 C    3.736 --     5 C    1.312    23 C    1.215    26 O    1.031
    26   8 O    1.981 --    25 C    1.031    46 H    0.832
    27   1 H    1.014 --     1 C    0.980
    28   1 H    1.016 --     1 C    0.987
    29   1 H    1.013 --     1 C    0.980
    30   1 H    1.019 --     9 C    0.985
    31   1 H    1.013 --     9 C    0.986
    32   1 H    1.016 --     9 C    0.982
    33   1 H    1.008 --    10 C    0.983
    34   1 H    1.007 --    10 C    0.988
    35   1 H    1.025 --    10 C    0.978
    36   1 H    0.976 --    11 N    0.929
    37   1 H    0.999 --    17 C    0.978
    38   1 H    0.999 --    17 C    0.979
    39   1 H    1.006 --    17 C    0.983
    40   1 H    0.996 --    19 C    0.963
    41   1 H    0.997 --    19 C    0.970
    42   1 H    0.998 --    19 C    0.980
    43   1 H    1.026 --    22 C    0.974
    44   1 H    1.013 --    22 C    0.979
    45   1 H    1.006 --    22 C    0.980
    46   1 H    0.877 --    26 O    0.832
 ---------------------------------------------------------------------------

           -------------------------------------------------
          | TOTAL ENERGY              -87.005583945304 Eh   |
          | GRADIENT NORM               0.000349270751 Eh/α |
          | HOMO-LUMO GAP               0.039723182317 eV   |
           -------------------------------------------------

 * finished run on 2023/06/20 at 15:30:00.427
