   * xtb version 6.5.1 (579679a) compiled by 'ehlert@majestix' on 2022-07-11
          program call               : /lustre/hpc/kemi/ree/PhD/git/ReactivityQM/dep/xtb-6.5.1/bin/xtb --gfn 1 /lustre/hpc/kemi/ree/PhD/git/ReactivityQM/calculations/RaltegravirCLI/reac02prodN05/conf02/RaltegravirCLI_reac02prodN05_conf02_gfn1.xyz --opt --vfukui --chrg 1 --uhf 0 --alpb DMSO

   ID    Z sym.   atoms
    1    6 C      1, 3, 5, 7, 8, 11-15, 17, 18, 20-24
    2    7 N      2, 10, 19, 25
    3    8 O      4, 6, 9
    4    9 F      16
    5    1 H      26-47

      * Solvation model:               ALPB
        Solvent                        DMSO
        Solvent mass                       7.8130E+01 g/mol
          :  Hamiltonian                  GFN1-xTB          :
 * total energy  :   -79.4632723 Eh     change       -0.1061210E-08 Eh
 * total energy  :   -79.4773590 Eh     change       -0.1408662E-01 Eh
 * total energy  :   -79.4829877 Eh     change       -0.5628755E-02 Eh
 * total energy  :   -79.4844975 Eh     change       -0.1509751E-02 Eh
 * total energy  :   -79.4860868 Eh     change       -0.1589351E-02 Eh
 * total energy  :   -79.4873225 Eh     change       -0.1235667E-02 Eh
 * total energy  :   -79.4887302 Eh     change       -0.1407728E-02 Eh
 * total energy  :   -79.4902490 Eh     change       -0.1518810E-02 Eh
 * total energy  :   -79.4911728 Eh     change       -0.9237761E-03 Eh
 * total energy  :   -79.4927357 Eh     change       -0.1562894E-02 Eh
 * total energy  :   -79.5443822 Eh     change       -0.1318841E-04 Eh
 * total energy  :   -79.5443934 Eh     change       -0.1118197E-04 Eh
 * total energy  :   -79.5444011 Eh     change       -0.7714028E-05 Eh
 * total energy  :   -79.5444128 Eh     change       -0.1170399E-04 Eh
 * total energy  :   -79.5444256 Eh     change       -0.1280436E-04 Eh
 * total energy  :   -79.5444368 Eh     change       -0.1111630E-04 Eh
 * total energy  :   -79.5444442 Eh     change       -0.7419112E-05 Eh
 * total energy  :   -79.5444486 Eh     change       -0.4392564E-05 Eh
 * total energy  :   -79.5444532 Eh     change       -0.4650340E-05 Eh
   *** GEOMETRY OPTIMIZATION CONVERGED AFTER 94 ITERATIONS ***

 final structure:
================
47
 xtb: 6.5.1 (579679a)
C           -3.34453771834520       -0.33929480501312       -4.13326940350619
N           -2.28166318956724       -0.01716727027196       -3.18119284484027
C           -0.99476877917636        0.10480847836603       -3.67116212477263
O           -0.71240647667184       -0.03532173042585       -4.85619898806497
C            0.00981653187925        0.41326709042971       -2.66772104145259
O            1.27219362820121        0.50648354488794       -3.13289990266429
C           -0.33096792282910        0.57296803803215       -1.35610207141683
C            0.61044860664934        0.86763733681216       -0.22815569209761
O            0.29626164796730        0.64758405939814        0.94286614571740
N            1.78871254044771        1.40294225452937       -0.57225101372692
C            2.80387636426710        1.70141992291856        0.43511832157842
C            3.72413836107027        0.51404086030299        0.61842285853696
C            4.96545492675814        0.47695040388630       -0.01112606061005
C            5.80080071814492       -0.62181963608263        0.13974567493108
C            5.36485892403408       -1.67348330958355        0.92491103889684
F            6.16597349383284       -2.74003018346927        1.07568325168298
C            4.13663288830655       -1.67064729259261        1.56197057402359
C            3.31579212828432       -0.56409579573993        1.40128119325383
N           -1.64001339327760        0.41799255185576       -0.97715272620316
C           -2.55401806137333        0.13851482468342       -1.85137290526628
C           -3.96328065808634       -0.02308716969121       -1.38483948708168
C           -2.48678977713298       -0.26587769214228        2.75194205990313
C           -2.35354352656262        1.05565657752258        2.12548227033471
C           -1.30829052808075       -1.14606180755445        2.87145660516982
N           -3.64065529579217       -0.67320371096347        3.17093657568570
H           -3.77698406374680       -1.30723270863767       -3.88328887286649
H           -2.90630512072218       -0.37604198162750       -5.12998666705345
H           -4.11502044494589        0.42889220445054       -4.09519867562484
H            1.26485302751547        0.33331991181285       -4.09437809650334
H            2.03968798347456        1.53226400723248       -1.53916332652905
H            3.36202676460788        2.57859883922036        0.10035949392991
H            2.28860707064893        1.93451107460651        1.37129516234721
H            5.28702466083567        1.31225860438143       -0.62190402528965
H            6.76916881422258       -0.66276216052973       -0.34191154729966
H            3.83203937802173       -2.51390442906206        2.16766023290663
H            2.34743949855402       -0.53717173433178        1.88605478594753
H           -4.34326416159731       -1.01367976123699       -1.63420447961351
H           -4.61295023570825        0.71830584941339       -1.85034879405348
H           -3.99447737892075        0.10695947682838       -0.30602261218908
H           -3.24716262062529        1.66395060284855        2.24020700971018
H           -2.15893209872882        0.88953738447046        1.05474082525927
H           -1.47463527050414        1.57484242365105        2.50702614408756
H           -0.75955288334729       -1.14817273171624        1.92782601616912
H           -0.63432371281485       -0.72765618442297        3.62204764350190
H           -1.58028264236061       -2.15905734936837        3.15787826721212
H           -4.46059858782275       -0.09275709900582        3.11173444641442
H           -3.77038540887276       -1.58518077894772        3.57581876120188

          :  Hamiltonian                  GFN1-xTB          :
         :: total energy             -79.544453224380 Eh    ::
         :: gradient norm              0.000288367248 Eh/a0 ::
         :: HOMO-LUMO gap              2.257947423116 eV    ::
         :: SCC energy               -80.480246137631 Eh    ::
         :: -> Gsolv                  -0.115117193436 Eh    ::
         :: repulsion energy           0.964689763788 Eh    ::

    * Orbital Energies and Occupations

         #    Occupation            Energy/Eh            Energy/eV
      -------------------------------------------------------------
         1        2.0000           -0.8664147             -23.5763
       ...           ...                  ...                  ...
        55        2.0000           -0.5211824             -14.1821
        56        2.0000           -0.5146477             -14.0043
        57        2.0000           -0.5087781             -13.8446
        58        2.0000           -0.5056346             -13.7590
        59        2.0000           -0.4786001             -13.0234
        60        2.0000           -0.4776835             -12.9984
        61        2.0000           -0.4757849             -12.9468
        62        2.0000           -0.4620154             -12.5721
        63        2.0000           -0.4543443             -12.3633
        64        2.0000           -0.4500855             -12.2475
        65        2.0000           -0.4469692             -12.1627
        66        2.0000           -0.4394714             -11.9586
        67        2.0000           -0.4297918             -11.6952 (HOMO)
        68                         -0.3468138              -9.4373 (LUMO)
        69                         -0.3198441              -8.7034
        70                         -0.2837667              -7.7217
        71                         -0.2762448              -7.5170
        72                         -0.2701229              -7.3504
        73                         -0.2389128              -6.5011
        74                         -0.1708840              -4.6500
        75                         -0.1626860              -4.4269
        76                         -0.1591319              -4.3302
        77                         -0.1543309              -4.1996
        78                         -0.1489701              -4.0537
       ...                                ...                  ...
       144                          0.7029853              19.1292
      -------------------------------------------------------------
                  HL-Gap            0.0829780 Eh            2.2579 eV

Wiberg/Mayer (AO) data.
largest (>0.10) Wiberg bond orders for each atom

     #   Z sym  total        # sym  WBO       # sym  WBO       # sym  WBO
 ---------------------------------------------------------------------------
     1   6 C    3.921 --    28 H    0.979    26 H    0.978    27 H    0.975
                             2 N    0.930
     2   7 N    3.510 --    20 C    1.179     3 C    1.126     1 C    0.930
                             4 O    0.131
     3   6 C    3.915 --     4 O    1.554     2 N    1.126     5 C    1.085
     4   8 O    1.901 --     3 C    1.554     2 N    0.131
     5   6 C    3.917 --     7 C    1.514     3 C    1.085     6 O    1.075
     6   8 O    2.065 --     5 C    1.075    29 H    0.799
     7   6 C    3.962 --     5 C    1.514    19 N    1.185     8 C    0.993
     8   6 C    3.906 --     9 O    1.531    10 N    1.299     7 C    0.993
     9   8 O    1.895 --     8 C    1.531    10 N    0.167
    10   7 N    3.372 --     8 C    1.299    11 C    0.936    30 H    0.886
                             9 O    0.167
    11   6 C    3.944 --    12 C    0.993    31 H    0.976    32 H    0.970
                            10 N    0.936
    12   6 C    3.988 --    13 C    1.422    18 C    1.416    11 C    0.993
    13   6 C    3.993 --    14 C    1.441    12 C    1.422    33 H    0.971
                            17 C    0.110
    14   6 C    3.991 --    13 C    1.441    15 C    1.403    34 H    0.969
                            18 C    0.111
    15   6 C    3.861 --    14 C    1.403    17 C    1.398    16 F    0.926
    16   9 F    1.055 --    15 C    0.926
    17   6 C    3.992 --    18 C    1.447    15 C    1.398    35 H    0.969
                            13 C    0.110
    18   6 C    3.993 --    17 C    1.447    12 C    1.416    36 H    0.969
                            14 C    0.111
    19   7 N    3.068 --    20 C    1.555     7 C    1.185
    20   6 C    3.932 --    19 N    1.555     2 N    1.179    21 C    1.027
    21   6 C    3.990 --    20 C    1.027    39 H    0.982    37 H    0.964
                            38 H    0.963
    22   6 C    3.854 --    25 N    1.607    23 C    1.083    24 C    1.068
    23   6 C    3.979 --    22 C    1.083    40 H    0.978    42 H    0.946
                            41 H    0.894
    24   6 C    3.982 --    22 C    1.068    45 H    0.979    43 H    0.941
                            44 H    0.934
    25   7 N    3.495 --    22 C    1.607    46 H    0.878    47 H    0.876
    26   1 H    0.999 --     1 C    0.978
    27   1 H    1.005 --     1 C    0.975
    28   1 H    0.999 --     1 C    0.979
    29   1 H    0.841 --     6 O    0.799
    30   1 H    0.942 --    10 N    0.886
    31   1 H    1.002 --    11 C    0.976
    32   1 H    1.009 --    11 C    0.970
    33   1 H    0.999 --    13 C    0.971
    34   1 H    0.997 --    14 C    0.969
    35   1 H    0.998 --    17 C    0.969
    36   1 H    1.010 --    18 C    0.969
    37   1 H    0.997 --    21 C    0.964
    38   1 H    0.996 --    21 C    0.963
    39   1 H    1.006 --    21 C    0.982
    40   1 H    0.993 --    23 C    0.978
    41   1 H    1.033 --    23 C    0.894
    42   1 H    1.004 --    23 C    0.946
    43   1 H    1.010 --    24 C    0.941
    44   1 H    0.992 --    24 C    0.934
    45   1 H    0.992 --    24 C    0.979
    46   1 H    0.909 --    25 N    0.878
    47   1 H    0.907 --    25 N    0.876
 ---------------------------------------------------------------------------

           -------------------------------------------------
          | TOTAL ENERGY              -79.544453224380 Eh   |
          | GRADIENT NORM               0.000288367248 Eh/α |
          | HOMO-LUMO GAP               2.257947423116 eV   |
           -------------------------------------------------

 * finished run on 2023/06/20 at 15:22:53.891
