                         Program Version 5.0.1 -  RELEASE  -
|  1> # ORCA input file
|  2> ! SP r2SCAN-3c CPCM
|  3>
|  4> %maxcore 1875.0
|  5> %pal nprocs 4 end
|  6> %cpcm smd true SMDsolvent "DMSO" end
|  7>
|  8> *xyz -2 1
|  9> C       6.810964   -1.433232   -0.572671
| 10> O       5.712655   -0.806421    0.067128
| 11> C       4.577276   -0.694559   -0.680815
| 12> O       4.550236   -1.141709   -1.824752
| 13> C       3.475313   -0.021133   -0.020222
| 14> N       2.346233    0.077469   -0.822388
| 15> C       1.291865    0.657182   -0.381312
| 16> C       0.068072    0.867165   -1.251270
| 17> C       0.198354    2.251581   -1.908853
| 18> C      -0.002635   -0.216661   -2.337554
| 19> N      -1.117923    0.902627   -0.399297
| 20> C      -1.505921   -0.358554    0.217779
| 21> O      -0.612047   -1.211525    0.491731
| 22> C      -2.863112   -0.541160    0.326002
| 23> O      -3.787405    0.547871    0.197452
| 24> C      -4.793230    0.234360    1.018344
| 25> C      -5.922150    1.199211    1.147967
| 26> N      -4.720652   -0.879091    1.641438
| 27> N      -3.489288   -1.514489    1.226481
| 28> C      -3.871737   -2.750532    0.521621
| 29> N       1.244197    1.226137    0.872322
| 30> C       2.272399    1.202539    1.764441
| 31> O       2.148041    1.740816    2.868799
| 32> C       3.528975    0.502916    1.297291
| 33> O       4.503800    0.445290    2.077895
| 34> H       6.564566   -2.461000   -0.859498
| 35> H       7.636643   -1.440370    0.138178
| 36> H       7.105652   -0.881537   -1.471418
| 37> H      -0.652262    2.438570   -2.562205
| 38> H       0.227145    3.026524   -1.143485
| 39> H       1.112451    2.304238   -2.499696
| 40> H      -0.882205   -0.064669   -2.960911
| 41> H      -0.051724   -1.206439   -1.883225
| 42> H       0.889264   -0.162888   -2.962188
| 43> H      -1.899469    1.317091   -0.891394
| 44> H      -6.362508    1.385125    0.169076
| 45> H      -6.680575    0.794505    1.813768
| 46> H      -5.563650    2.150191    1.541766
| 47> H      -4.435005   -3.383550    1.206605
| 48> H      -2.957089   -3.259709    0.219176
| 49> H      -4.481887   -2.536421   -0.361456
| 50> H       0.388375    1.694238    1.140041
| 51> **                         ****END OF INPUT****

CARTESIAN COORDINATES (ANGSTROEM)
---------------------------------
  C      6.810964   -1.433232   -0.572671
  O      5.712655   -0.806421    0.067128
  C      4.577276   -0.694559   -0.680815
  O      4.550236   -1.141709   -1.824752
  C      3.475313   -0.021133   -0.020222
  N      2.346233    0.077469   -0.822388
  C      1.291865    0.657182   -0.381312
  C      0.068072    0.867165   -1.251270
  C      0.198354    2.251581   -1.908853
  C     -0.002635   -0.216661   -2.337554
  N     -1.117923    0.902627   -0.399297
  C     -1.505921   -0.358554    0.217779
  O     -0.612047   -1.211525    0.491731
  C     -2.863112   -0.541160    0.326002
  O     -3.787405    0.547871    0.197452
  C     -4.793230    0.234360    1.018344
  C     -5.922150    1.199211    1.147967
  N     -4.720652   -0.879091    1.641438
  N     -3.489288   -1.514489    1.226481
  C     -3.871737   -2.750532    0.521621
  N      1.244197    1.226137    0.872322
  C      2.272399    1.202539    1.764441
  O      2.148041    1.740816    2.868799
  C      3.528975    0.502916    1.297291
  O      4.503800    0.445290    2.077895
  H      6.564566   -2.461000   -0.859498
  H      7.636643   -1.440370    0.138178
  H      7.105652   -0.881537   -1.471418
  H     -0.652262    2.438570   -2.562205
  H      0.227145    3.026524   -1.143485
  H      1.112451    2.304238   -2.499696
  H     -0.882205   -0.064669   -2.960911
  H     -0.051724   -1.206439   -1.883225
  H      0.889264   -0.162888   -2.962188
  H     -1.899469    1.317091   -0.891394
  H     -6.362508    1.385125    0.169076
  H     -6.680575    0.794505    1.813768
  H     -5.563650    2.150191    1.541766
  H     -4.435005   -3.383550    1.206605
  H     -2.957089   -3.259709    0.219176
  H     -4.481887   -2.536421   -0.361456
  H      0.388375    1.694238    1.140041

 Total Charge           Charge          ....   -2
 Multiplicity           Mult            ....    1
 Number of Electrons    NEL             ....  186
 Basis Dimension        Dim             ....  615

ORBITAL ENERGIES
----------------

  NO   OCC          E(Eh)            E(eV)
   0   2.0000     -18.982656      -516.5443
   1   2.0000     -18.960959      -515.9539
   2   2.0000     -18.894656      -514.1497
   3   2.0000     -18.893350      -514.1142
   4   2.0000     -18.865629      -513.3599
   5   2.0000     -18.852790      -513.0105
   6   2.0000     -14.179762      -385.8509
   7   2.0000     -14.171483      -385.6257
   8   2.0000     -14.150071      -385.0430
   9   2.0000     -14.131665      -384.5422
  10   2.0000     -14.120204      -384.2303
  11   2.0000     -10.116178      -275.2752
  12   2.0000     -10.105073      -274.9730
  13   2.0000     -10.100875      -274.8588
  14   2.0000     -10.072323      -274.0819
  15   2.0000     -10.061356      -273.7834
  16   2.0000     -10.061212      -273.7795
  17   2.0000     -10.060819      -273.7688
  18   2.0000     -10.057156      -273.6691
  19   2.0000     -10.035114      -273.0693
  20   2.0000     -10.027464      -272.8612
  21   2.0000     -10.026217      -272.8272
  22   2.0000     -10.024655      -272.7847
  23   2.0000     -10.008978      -272.3581
  24   2.0000      -9.996695      -272.0239
  25   2.0000      -1.056989       -28.7621
  26   2.0000      -1.031079       -28.0571
  27   2.0000      -0.982509       -26.7354
  28   2.0000      -0.937911       -25.5218
  29   2.0000      -0.928721       -25.2718
  30   2.0000      -0.923703       -25.1352
  31   2.0000      -0.912858       -24.8401
  32   2.0000      -0.909945       -24.7609
  33   2.0000      -0.840783       -22.8789
  34   2.0000      -0.830525       -22.5997
  35   2.0000      -0.787510       -21.4292
  36   2.0000      -0.730644       -19.8818
  37   2.0000      -0.694749       -18.9051
  38   2.0000      -0.692166       -18.8348
  39   2.0000      -0.658753       -17.9256
  40   2.0000      -0.647591       -17.6219
  41   2.0000      -0.640560       -17.4305
  42   2.0000      -0.604957       -16.4617
  43   2.0000      -0.593881       -16.1603
  44   2.0000      -0.580518       -15.7967
  45   2.0000      -0.533752       -14.5241
  46   2.0000      -0.525774       -14.3070
  47   2.0000      -0.513952       -13.9853
  48   2.0000      -0.500073       -13.6077
  49   2.0000      -0.476015       -12.9530
  50   2.0000      -0.460681       -12.5358
  51   2.0000      -0.455143       -12.3851
  52   2.0000      -0.444001       -12.0819
  53   2.0000      -0.437240       -11.8979
  54   2.0000      -0.423332       -11.5194
  55   2.0000      -0.420005       -11.4289
  56   2.0000      -0.407800       -11.0968
  57   2.0000      -0.400649       -10.9022
  58   2.0000      -0.397262       -10.8101
  59   2.0000      -0.390673       -10.6308
  60   2.0000      -0.379912       -10.3379
  61   2.0000      -0.373445       -10.1620
  62   2.0000      -0.370196       -10.0736
  63   2.0000      -0.369038       -10.0420
  64   2.0000      -0.365959        -9.9582
  65   2.0000      -0.360735        -9.8161
  66   2.0000      -0.356191        -9.6925
  67   2.0000      -0.346058        -9.4167
  68   2.0000      -0.341601        -9.2954
  69   2.0000      -0.340608        -9.2684
  70   2.0000      -0.338174        -9.2022
  71   2.0000      -0.332766        -9.0550
  72   2.0000      -0.326254        -8.8778
  73   2.0000      -0.319089        -8.6829
  74   2.0000      -0.309587        -8.4243
  75   2.0000      -0.305300        -8.3076
  76   2.0000      -0.296692        -8.0734
  77   2.0000      -0.293940        -7.9985
  78   2.0000      -0.292471        -7.9585
  79   2.0000      -0.286880        -7.8064
  80   2.0000      -0.262861        -7.1528
  81   2.0000      -0.249125        -6.7790
  82   2.0000      -0.241736        -6.5780
  83   2.0000      -0.229448        -6.2436
  84   2.0000      -0.228328        -6.2131
  85   2.0000      -0.215786        -5.8718
  86   2.0000      -0.205248        -5.5851
  87   2.0000      -0.201266        -5.4767
  88   2.0000      -0.195642        -5.3237
  89   2.0000      -0.173820        -4.7299
  90   2.0000      -0.160342        -4.3631
  91   2.0000      -0.142583        -3.8799
  92   2.0000      -0.098491        -2.6801
  93   0.0000      -0.041309        -1.1241
  94   0.0000       0.011534         0.3139
  95   0.0000       0.012798         0.3483
  96   0.0000       0.052086         1.4173
  97   0.0000       0.054644         1.4869

MULLIKEN ATOMIC CHARGES
-----------------------
   0 C :   -0.333983
   1 O :   -0.149747
   2 C :    0.119864
   3 O :   -0.440089
   4 C :   -0.053712
   5 N :   -0.169680
   6 C :    0.184407
   7 C :    0.212593
   8 C :   -0.584050
   9 C :   -0.691755
  10 N :   -0.386734
  11 C :    0.059456
  12 O :   -0.520027
  13 C :   -0.208976
  14 O :   -0.120701
  15 C :    0.383013
  16 C :   -0.652672
  17 N :   -0.345713
  18 N :   -0.170367
  19 C :   -0.400027
  20 N :    0.020357
  21 C :   -0.027023
  22 O :   -0.405164
  23 C :   -0.112910
  24 O :   -0.377941
  25 H :    0.159929
  26 H :    0.160744
  27 H :    0.160035
  28 H :    0.173596
  29 H :    0.177584
  30 H :    0.181903
  31 H :    0.173726
  32 H :    0.194937
  33 H :    0.170066
  34 H :    0.295480
  35 H :    0.184371
  36 H :    0.189800
  37 H :    0.184193
  38 H :    0.158883
  39 H :    0.170450
  40 H :    0.153709
  41 H :    0.282177
Sum of atomic charges:   -2.0000000

LOEWDIN ATOMIC CHARGES
----------------------
   0 C :   -0.059545
   1 O :   -0.610471
   2 C :    0.384277
   3 O :   -0.492359
   4 C :    0.106997
   5 N :   -0.613132
   6 C :    0.321257
   7 C :    0.085349
   8 C :   -0.359591
   9 C :   -0.377192
  10 N :   -0.706765
  11 C :    0.292433
  12 O :   -0.622557
  13 C :    0.240764
  14 O :   -0.514651
  15 C :    0.339037
  16 C :   -0.331494
  17 N :   -0.441895
  18 N :   -0.661362
  19 C :   -0.127737
  20 N :   -0.488288
  21 C :    0.349471
  22 O :   -0.498197
  23 C :    0.220845
  24 O :   -0.585776
  25 H :    0.171158
  26 H :    0.175266
  27 H :    0.171563
  28 H :    0.163821
  29 H :    0.167290
  30 H :    0.167268
  31 H :    0.158407
  32 H :    0.178435
  33 H :    0.166304
  34 H :    0.277894
  35 H :    0.180600
  36 H :    0.179948
  37 H :    0.179245
  38 H :    0.173843
  39 H :    0.178418
  40 H :    0.160895
  41 H :    0.300229

  Mayer bond orders larger than 0.100000
B(  0-C ,  1-O ) :   0.8522 B(  0-C , 25-H ) :   0.9631 B(  0-C , 26-H ) :   0.9705
B(  0-C , 27-H ) :   0.9633 B(  1-O ,  2-C ) :   1.1131 B(  2-C ,  3-O ) :   1.8921
B(  2-C ,  4-C ) :   1.1680 B(  4-C ,  5-N ) :   0.8678 B(  4-C , 23-C ) :   0.9781
B(  4-C , 24-O ) :  -0.1027 B(  5-N ,  6-C ) :   1.8394 B(  6-C ,  7-C ) :   0.7737
B(  6-C , 12-O ) :   0.1098 B(  6-C , 20-N ) :   1.0211 B(  7-C ,  8-C ) :   0.9006
B(  7-C ,  9-C ) :   0.8374 B(  7-C , 10-N ) :   0.8437 B(  8-C , 28-H ) :   0.9666
B(  8-C , 29-H ) :   0.9717 B(  8-C , 30-H ) :   0.9810 B(  9-C , 31-H ) :   0.9830
B(  9-C , 32-H ) :   0.9845 B(  9-C , 33-H ) :   0.9630 B( 10-N , 11-C ) :   0.9702
B( 10-N , 34-H ) :   0.8954 B( 11-C , 12-O ) :   1.7320 B( 11-C , 13-C ) :   1.3370
B( 13-C , 14-O ) :   0.8420 B( 13-C , 18-N ) :   0.8559 B( 14-O , 15-C ) :   1.1276
B( 15-C , 16-C ) :   0.8364 B( 15-C , 17-N ) :   1.7620 B( 16-C , 35-H ) :   0.9540
B( 16-C , 36-H ) :   0.9987 B( 16-C , 37-H ) :   0.9479 B( 17-N , 18-N ) :   1.1468
B( 18-N , 19-C ) :   0.9004 B( 19-C , 38-H ) :   0.9715 B( 19-C , 39-H ) :   0.9700
B( 19-C , 40-H ) :   0.9594 B( 20-N , 21-C ) :   1.0297 B( 20-N , 41-H ) :   0.8721
B( 21-C , 22-O ) :   2.0808 B( 21-C , 23-C ) :   0.8851 B( 23-C , 24-O ) :   1.9647

Dispersion correction           -0.019114820
FINAL SINGLE POINT ENERGY     -1268.845860302238

DIPOLE MOMENT
-------------
                                X             Y             Z
Electronic contribution:     12.23246       2.36798      10.69720
Nuclear contribution   :    -16.07937      -0.32496     -14.04756
                        -----------------------------------------
Total Dipole Moment    :     -3.84691       2.04302      -3.35036
                        -----------------------------------------
Magnitude (a.u.)       :      5.49523
Magnitude (Debye)      :     13.96777

Rotational constants in cm-1:     0.015672     0.003352     0.003259
Rotational constants in MHz :   469.838624   100.494623    97.693096

                             ****ORCA TERMINATED NORMALLY****
TOTAL RUN TIME: 0 days 0 hours 1 minutes 44 seconds 763 msec
