   * xtb version 6.5.1 (579679a) compiled by 'ehlert@majestix' on 2022-07-11
          program call               : /lustre/hpc/kemi/ree/PhD/git/ReactivityQM/dep/xtb-6.5.1/bin/xtb --gfn 1 /lustre/hpc/kemi/ree/PhD/git/ReactivityQM/calculations/R02oxygendeprot/reac01prodE09/conf19/R02oxygendeprot_reac01prodE09_conf19_gfn1.xyz --opt --vfukui --chrg -2 --uhf 0 --alpb DMSO

   ID    Z sym.   atoms
    1    6 C      1, 3, 5, 7-10, 12, 14, 16, 17, 20, 22, 24
    2    8 O      2, 4, 13, 15, 23, 25
    3    7 N      6, 11, 18, 19, 21
    4    1 H      26-42

      * Solvation model:               ALPB
        Solvent                        DMSO
        Solvent mass                       7.8130E+01 g/mol
          :  Hamiltonian                  GFN1-xTB          :
 * total energy  :   -83.5960775 Eh     change       -0.2060574E-11 Eh
 * total energy  :   -83.6112383 Eh     change       -0.1516079E-01 Eh
 * total energy  :   -83.6168747 Eh     change       -0.5636398E-02 Eh
 * total energy  :   -83.6187361 Eh     change       -0.1861378E-02 Eh
 * total energy  :   -83.6217867 Eh     change       -0.3050675E-02 Eh
 * total energy  :   -83.6249518 Eh     change       -0.3165039E-02 Eh
 * total energy  :   -83.6283555 Eh     change       -0.3403720E-02 Eh
 * total energy  :   -83.6310822 Eh     change       -0.2726696E-02 Eh
 * total energy  :   -83.6325190 Eh     change       -0.1436824E-02 Eh
 * total energy  :   -83.6344123 Eh     change       -0.1893279E-02 Eh
 * total energy  :   -83.6391896 Eh     change       -0.8037948E-05 Eh
 * total energy  :   -83.6391983 Eh     change       -0.8703985E-05 Eh
 * total energy  :   -83.6392082 Eh     change       -0.9885678E-05 Eh
 * total energy  :   -83.6392162 Eh     change       -0.8010439E-05 Eh
 * total energy  :   -83.6392236 Eh     change       -0.7408891E-05 Eh
 * total energy  :   -83.6392337 Eh     change       -0.1005203E-04 Eh
 * total energy  :   -83.6392424 Eh     change       -0.8711429E-05 Eh
 * total energy  :   -83.6392482 Eh     change       -0.5819692E-05 Eh
 * total energy  :   -83.6392524 Eh     change       -0.4162651E-05 Eh
   *** GEOMETRY OPTIMIZATION CONVERGED AFTER 54 ITERATIONS ***

 final structure:
================
42
 xtb: 6.5.1 (579679a)
C            6.81096405628469       -1.43323210046094       -0.57267065300285
O            5.71265460879564       -0.80642079827894        0.06712828292072
C            4.57727600507761       -0.69455898653131       -0.68081499920508
O            4.55023582413012       -1.14170945575000       -1.82475209863900
C            3.47531283180503       -0.02113337981607       -0.02022232514819
N            2.34623331088801        0.07746906105413       -0.82238831450990
C            1.29186477430227        0.65718175002974       -0.38131242586034
C            0.06807216335426        0.86716530927788       -1.25127019295989
C            0.19835418474926        2.25158080075023       -1.90885297817222
C           -0.00263544264049       -0.21666118819540       -2.33755409451342
N           -1.11792316427801        0.90262708607117       -0.39929677591968
C           -1.50592066292937       -0.35855380810000        0.21777870065371
O           -0.61204715354241       -1.21152483681371        0.49173054492499
C           -2.86311224769058       -0.54116008520060        0.32600166859672
O           -3.78740489607610        0.54787050351889        0.19745204167227
C           -4.79323014705616        0.23435961299815        1.01834391697023
C           -5.92214986462733        1.19921131591031        1.14796670317519
N           -4.72065186204421       -0.87909137634359        1.64143803575114
N           -3.48928752283961       -1.51448855026925        1.22648138469743
C           -3.87173718984594       -2.75053234287306        0.52162089202110
N            1.24419688004196        1.22613706017928        0.87232215642148
C            2.27239888051307        1.20253856203253        1.76444104665669
O            2.14804104266884        1.74081623413876        2.86879876119327
C            3.52897513989453        0.50291615177328        1.29729059943115
O            4.50380046395532        0.44528989353394        2.07789465146133
H            6.56456639378785       -2.46099982416941       -0.85949798248456
H            7.63664296612176       -1.44036982968173        0.13817818228336
H            7.10565224286287       -0.88153735270331       -1.47141774686138
H           -0.65226244920906        2.43857003463103       -2.56220489202670
H            0.22714456667456        3.02652421431943       -1.14348479113214
H            1.11245078325459        2.30423823220412       -2.49969605963996
H           -0.88220519862619       -0.06466914951407       -2.96091055341401
H           -0.05172432601099       -1.20643930663921       -1.88322520707161
H            0.88926434342899       -0.16288782941669       -2.96218806725185
H           -1.89946897356442        1.31709092322009       -0.89139376683801
H           -6.36250833848477        1.38512454633602        0.16907590245734
H           -6.68057454738414        0.79450482973699        1.81376848646418
H           -5.56364982520549        2.15019128872965        1.54176571929412
H           -4.43500466843990       -3.38354978440067        1.20660536105431
H           -2.95708877492421       -3.25970903831750        0.21917585664275
H           -4.48188699756082       -2.53642143319109       -0.36145579687127
H            0.38837479038438        1.69423804621778        1.14004082677501

          :  Hamiltonian                  GFN1-xTB          :
         :: total energy             -83.639252361249 Eh    ::
         :: gradient norm              0.000430793231 Eh/a0 ::
         :: HOMO-LUMO gap              0.925330920622 eV    ::
         :: SCC energy               -84.381486837823 Eh    ::
         :: -> Gsolv                  -0.284891714801 Eh    ::
         :: repulsion energy           0.768017982225 Eh    ::

    * Orbital Energies and Occupations

         #    Occupation            Energy/Eh            Energy/eV
      -------------------------------------------------------------
         1        2.0000           -0.7891846             -21.4748
       ...           ...                  ...                  ...
        56        2.0000           -0.4489234             -12.2158
        57        2.0000           -0.4396675             -11.9640
        58        2.0000           -0.4254774             -11.5778
        59        2.0000           -0.4202977             -11.4369
        60        2.0000           -0.4159172             -11.3177
        61        2.0000           -0.4081915             -11.1075
        62        2.0000           -0.3975529             -10.8180
        63        2.0000           -0.3813310             -10.3765
        64        2.0000           -0.3791292             -10.3166
        65        2.0000           -0.3646050              -9.9214
        66        2.0000           -0.3598942              -9.7932
        67        2.0000           -0.3478203              -9.4647
        68        2.0000           -0.2909857              -7.9181 (HOMO)
        69                         -0.2569804              -6.9928 (LUMO)
        70                         -0.2159663              -5.8767
        71                         -0.2035103              -5.5378
        72                         -0.1838847              -5.0038
        73                         -0.1354237              -3.6851
        74                         -0.1193877              -3.2487
        75                         -0.1182995              -3.2191
        76                         -0.1044521              -2.8423
        77                         -0.0941628              -2.5623
        78                         -0.0913326              -2.4853
        79                         -0.0897722              -2.4428
       ...                                ...                  ...
       134                          0.7568816              20.5958
      -------------------------------------------------------------
                  HL-Gap            0.0340053 Eh            0.9253 eV

Wiberg/Mayer (AO) data.
largest (>0.10) Wiberg bond orders for each atom

     #   Z sym  total        # sym  WBO       # sym  WBO       # sym  WBO
 ---------------------------------------------------------------------------
     1   6 C    3.904 --    27 H    0.987    28 H    0.980    26 H    0.980
                             2 O    0.931
     2   8 O    2.150 --     3 C    1.032     1 C    0.931     4 O    0.105
     3   6 C    3.848 --     4 O    1.563     5 C    1.131     2 O    1.032
     4   8 O    1.842 --     3 C    1.563     2 O    0.105
     5   6 C    3.920 --    24 C    1.281     6 N    1.141     3 C    1.131
                            25 O    0.130
     6   7 N    3.018 --     7 C    1.633     5 C    1.141
     7   6 C    3.927 --     6 N    1.633    21 N    1.098     8 C    0.977
     8   6 C    3.967 --    10 C    0.988     9 C    0.980     7 C    0.977
                            11 N    0.968
     9   6 C    3.993 --    31 H    0.987    30 H    0.986    29 H    0.985
                             8 C    0.980
    10   6 C    3.996 --    32 H    0.988     8 C    0.988    34 H    0.986
                            33 H    0.981
    11   7 N    3.089 --     8 C    0.968    12 C    0.954    35 H    0.936
    12   6 C    3.927 --    14 C    1.484    13 O    1.367    11 N    0.954
    13   8 O    1.698 --    12 C    1.367    14 C    0.170
    14   6 C    3.621 --    12 C    1.484    19 N    0.948    15 O    0.866
                            13 O    0.170
    15   8 O    2.186 --    16 C    1.092    14 C    0.866    18 N    0.135
    16   6 C    3.908 --    18 N    1.709    15 O    1.092    17 C    1.013
    17   6 C    3.995 --    16 C    1.013    37 H    0.987    36 H    0.973
                            38 H    0.973
    18   7 N    2.945 --    16 C    1.709    19 N    0.982    15 O    0.135
    19   7 N    3.053 --    18 N    0.982    20 C    0.971    14 C    0.948
    20   6 C    3.983 --    39 H    0.989    40 H    0.988    41 H    0.983
                            19 N    0.971
    21   7 N    3.450 --    22 C    1.189     7 C    1.098    42 H    0.893
                            23 O    0.137
    22   6 C    3.885 --    23 O    1.548    21 N    1.189    24 C    0.974
    23   8 O    1.829 --    22 C    1.548    21 N    0.137
    24   6 C    3.944 --    25 O    1.498     5 C    1.281    22 C    0.974
    25   8 O    1.802 --    24 C    1.498     5 C    0.130
    26   1 H    1.016 --     1 C    0.980
    27   1 H    1.017 --     1 C    0.987
    28   1 H    1.015 --     1 C    0.980
    29   1 H    1.003 --     9 C    0.985
    30   1 H    1.008 --     9 C    0.986
    31   1 H    1.008 --     9 C    0.987
    32   1 H    1.006 --    10 C    0.988
    33   1 H    1.023 --    10 C    0.981
    34   1 H    1.017 --    10 C    0.986
    35   1 H    0.977 --    11 N    0.936
    36   1 H    1.004 --    17 C    0.973
    37   1 H    1.006 --    17 C    0.987
    38   1 H    1.004 --    17 C    0.973
    39   1 H    1.026 --    20 C    0.989
    40   1 H    1.030 --    20 C    0.988
    41   1 H    1.021 --    20 C    0.983
    42   1 H    0.970 --    21 N    0.893
 ---------------------------------------------------------------------------

           -------------------------------------------------
          | TOTAL ENERGY              -83.639252361249 Eh   |
          | GRADIENT NORM               0.000430793231 Eh/α |
          | HOMO-LUMO GAP               0.925330920622 eV   |
           -------------------------------------------------

 * finished run on 2023/06/21 at 17:10:38.537
