   * xtb version 6.5.1 (579679a) compiled by 'ehlert@majestix' on 2022-07-11
          program call               : /lustre/hpc/kemi/ree/PhD/git/ReactivityQM/dep/xtb-6.5.1/bin/xtb --gfn 1 /lustre/hpc/kemi/ree/PhD/git/ReactivityQM/calculations/R02/reac01prodN08/conf04/R02_reac01prodN08_conf04_gfn1.xyz --opt --vfukui --chrg 1 --uhf 0 --alpb DMSO

   ID    Z sym.   atoms
    1    6 C      1, 3, 4, 6, 8-11, 13, 15, 18, 19, 22, 24
    2    8 O      2, 5, 14, 20, 23, 25
    3    7 N      7, 12, 16, 17, 21
    4    1 H      26-43

      * Solvation model:               ALPB
        Solvent                        DMSO
        Solvent mass                       7.8130E+01 g/mol
          :  Hamiltonian                  GFN1-xTB          :
 * total energy  :   -83.0075205 Eh     change       -0.5231726E-09 Eh
 * total energy  :   -83.0236444 Eh     change       -0.1612389E-01 Eh
 * total energy  :   -83.0347552 Eh     change       -0.1111085E-01 Eh
 * total energy  :   -83.0414649 Eh     change       -0.6709640E-02 Eh
 * total energy  :   -83.0513605 Eh     change       -0.9895640E-02 Eh
 * total energy  :   -83.0597433 Eh     change       -0.8382824E-02 Eh
 * total energy  :   -83.0674829 Eh     change       -0.7739544E-02 Eh
 * total energy  :   -83.0720228 Eh     change       -0.4539987E-02 Eh
 * total energy  :   -83.0751467 Eh     change       -0.3123807E-02 Eh
 * total energy  :   -83.0774261 Eh     change       -0.2279496E-02 Eh
 * total energy  :   -83.1341051 Eh     change       -0.7125026E-04 Eh
 * total energy  :   -83.1341449 Eh     change       -0.3973123E-04 Eh
 * total energy  :   -83.1341538 Eh     change       -0.8893480E-05 Eh
 * total energy  :   -83.1341836 Eh     change       -0.2978649E-04 Eh
 * total energy  :   -83.1341962 Eh     change       -0.1265721E-04 Eh
 * total energy  :   -83.1342081 Eh     change       -0.1192578E-04 Eh
 * total energy  :   -83.1342167 Eh     change       -0.8527402E-05 Eh
 * total energy  :   -83.1342214 Eh     change       -0.4716722E-05 Eh
 * total energy  :   -83.1342247 Eh     change       -0.3339722E-05 Eh
   *** GEOMETRY OPTIMIZATION CONVERGED AFTER 66 ITERATIONS ***

 final structure:
================
43
 xtb: 6.5.1 (579679a)
C           -3.37544854245444        1.91176152496028       -1.44672302113309
O           -3.68469793417733        0.94942052079518       -0.38427379581607
C           -4.92727860100293        0.15723926255579       -0.56119564899095
C           -5.09194133940764       -0.85975564534970        0.48661396081192
O           -5.61448744844468        0.46674162007902       -1.46171923402380
C           -2.52904527807894        0.44821008230460        0.30681225791466
N           -1.56699313065260       -0.02518482065668       -0.51176693364796
C           -0.46009426865742       -0.43191427241945        0.03541118097120
C            0.64871602684514       -1.00478287177903       -0.81484128825202
C            0.69568799449417       -2.52385770069779       -0.62019227306460
C            0.44171088344352       -0.63888505427801       -2.28711663616076
N            1.90971345883052       -0.44573612513543       -0.33346954615919
C            2.03930821008293        0.89347908192937       -0.17385124733341
O            1.10399765767411        1.67473783167655       -0.24157916297863
C            3.42329603977059        1.31079810983194        0.12965533048221
N            3.87038629705753        2.50868483257635        0.34551824081041
N            5.20741277418855        2.39428171165090        0.56929020966309
C            5.49713427907956        1.13274400253710        0.47631689143713
C            6.81803553329237        0.48806939995406        0.63691623341650
O            4.41164733228593        0.39296609003757        0.19848643976691
N           -0.27985968336410       -0.41872884217023        1.38110212124289
C           -1.21286706244190        0.04051958788588        2.28926132487736
O           -1.02430898069684        0.04822448310159        3.48888819065657
C           -2.44236089691306        0.51818771064914        1.65868087073813
O           -3.42936507102012        0.97382429209491        2.44202183258486
H           -4.31580844153235        2.37318038537647       -1.73763891259259
H           -2.91444150299537        1.37881926145559       -2.27693248285898
H           -2.69424443721926        2.63880650462167       -1.01210232557184
H           -4.22183546195490       -1.51197840466301        0.52598314328404
H           -5.18354932438297       -0.36330982550410        1.45352844513874
H           -5.98933787302535       -1.43726823348308        0.27675535714100
H            0.86266532282410       -2.76441966669106        0.42792052756390
H           -0.24580425149544       -2.96604442810044       -0.94124114999834
H            1.50582146837753       -2.94248284317861       -1.21458668144063
H            1.28127275621414       -1.00446770994744       -2.87480134038675
H           -0.47826641355248       -1.09403083913329       -2.64952270421380
H            0.36796270251292        0.44261046683483       -2.39414795376127
H            2.72830934357118       -1.03067801037887       -0.36000766520993
H            7.07193327864360       -0.06433661064132       -0.26759451842460
H            7.57606552398028        1.24332022830925        0.83217430074676
H            6.78454782252945       -0.22104038354054        1.46412710862038
H            0.59346828215069       -0.75779548400110        1.76265773537533
H           -3.15705504439512        0.93026978052243        3.37718081877806

          :  Hamiltonian                  GFN1-xTB          :
         :: total energy             -83.134224720690 Eh    ::
         :: gradient norm              0.000822934704 Eh/a0 ::
         :: HOMO-LUMO gap              2.964106959060 eV    ::
         :: SCC energy               -83.946656851713 Eh    ::
         :: -> Gsolv                  -0.115074155241 Eh    ::
         :: repulsion energy           0.839959229830 Eh    ::

    * Orbital Energies and Occupations

         #    Occupation            Energy/Eh            Energy/eV
      -------------------------------------------------------------
         1        2.0000           -0.9433588             -25.6701
       ...           ...                  ...                  ...
        55        2.0000           -0.5316309             -14.4664
        56        2.0000           -0.5231657             -14.2361
        57        2.0000           -0.5188894             -14.1197
        58        2.0000           -0.5135478             -13.9743
        59        2.0000           -0.5102717             -13.8852
        60        2.0000           -0.4955309             -13.4841
        61        2.0000           -0.4925395             -13.4027
        62        2.0000           -0.4865957             -13.2409
        63        2.0000           -0.4779477             -13.0056
        64        2.0000           -0.4697521             -12.7826
        65        2.0000           -0.4610197             -12.5450
        66        2.0000           -0.4577951             -12.4572
        67        2.0000           -0.4547880             -12.3754 (HOMO)
        68                         -0.3458591              -9.4113 (LUMO)
        69                         -0.3361533              -9.1472
        70                         -0.3204466              -8.7198
        71                         -0.3102316              -8.4418
        72                         -0.2607966              -7.0966
        73                         -0.2091449              -5.6911
        74                         -0.2066264              -5.6226
        75                         -0.1923847              -5.2351
        76                         -0.1676385              -4.5617
        77                         -0.1435481              -3.9061
        78                         -0.1428393              -3.8869
       ...                                ...                  ...
       136                          0.7538263              20.5127
      -------------------------------------------------------------
                  HL-Gap            0.1089289 Eh            2.9641 eV

Wiberg/Mayer (AO) data.
largest (>0.10) Wiberg bond orders for each atom

     #   Z sym  total        # sym  WBO       # sym  WBO       # sym  WBO
 ---------------------------------------------------------------------------
     1   6 C    3.764 --    27 H    0.978    28 H    0.978    26 H    0.973
                             2 O    0.784
     2   8 O    2.523 --     6 C    0.805     1 C    0.784     3 C    0.767
     3   6 C    3.764 --     5 O    1.869     4 C    1.039     2 O    0.767
     4   6 C    3.970 --     3 C    1.039    31 H    0.966    29 H    0.947
                            30 H    0.931
     5   8 O    2.101 --     3 C    1.869
     6   6 C    3.807 --    24 C    1.523     7 N    1.224     2 O    0.805
     7   7 N    3.025 --     8 C    1.517     6 C    1.224
     8   6 C    3.917 --     7 N    1.517    21 N    1.207     9 C    0.981
     9   6 C    3.937 --    11 C    0.988     8 C    0.981    10 C    0.978
                            12 N    0.931
    10   6 C    3.985 --    33 H    0.983    32 H    0.983    34 H    0.980
                             9 C    0.978
    11   6 C    3.986 --     9 C    0.988    35 H    0.984    36 H    0.984
                            37 H    0.982
    12   7 N    3.329 --    13 C    1.236     9 C    0.931    38 H    0.885
                            14 O    0.169
    13   6 C    3.913 --    14 O    1.586    12 N    1.236    15 C    1.003
    14   8 O    1.896 --    13 C    1.586    12 N    0.169
    15   6 C    3.876 --    16 N    1.615    20 O    1.047    13 C    1.003
    16   7 N    3.003 --    15 C    1.615    17 N    1.205
    17   7 N    2.982 --    18 C    1.603    16 N    1.205
    18   6 C    3.866 --    17 N    1.603    20 O    1.075    19 C    1.033
    19   6 C    3.985 --    18 C    1.033    40 H    0.982    39 H    0.962
                            41 H    0.961
    20   8 O    2.318 --    18 C    1.075    15 C    1.047
    21   7 N    3.480 --     8 C    1.207    22 C    1.119    42 H    0.872
                            23 O    0.133
    22   6 C    3.915 --    23 O    1.609    21 N    1.119    24 C    1.057
    23   8 O    1.930 --    22 C    1.609    21 N    0.133
    24   6 C    3.927 --     6 C    1.523    25 O    1.096    22 C    1.057
    25   8 O    2.072 --    24 C    1.096    43 H    0.794
    26   1 H    0.996 --     1 C    0.973
    27   1 H    1.000 --     1 C    0.978
    28   1 H    0.994 --     1 C    0.978
    29   1 H    0.990 --     4 C    0.947
    30   1 H    0.994 --     4 C    0.931
    31   1 H    0.987 --     4 C    0.966
    32   1 H    0.997 --    10 C    0.983
    33   1 H    0.998 --    10 C    0.983
    34   1 H    0.994 --    10 C    0.980
    35   1 H    0.999 --    11 C    0.984
    36   1 H    1.005 --    11 C    0.984
    37   1 H    1.006 --    11 C    0.982
    38   1 H    0.926 --    12 N    0.885
    39   1 H    0.996 --    19 C    0.962
    40   1 H    0.998 --    19 C    0.982
    41   1 H    0.996 --    19 C    0.961
    42   1 H    0.919 --    21 N    0.872
    43   1 H    0.825 --    25 O    0.794
 ---------------------------------------------------------------------------

           -------------------------------------------------
          | TOTAL ENERGY              -83.134224720690 Eh   |
          | GRADIENT NORM               0.000822934704 Eh/α |
          | HOMO-LUMO GAP               2.964106959060 eV   |
           -------------------------------------------------

 * finished run on 2023/06/20 at 15:27:59.039
