   * xtb version 6.5.1 (579679a) compiled by 'ehlert@majestix' on 2022-07-11
          program call               : /lustre/hpc/kemi/ree/PhD/git/ReactivityQM/dep/xtb-6.5.1/bin/xtb --gfn 1 /lustre/hpc/kemi/ree/PhD/git/ReactivityQM/calculations/R03/reac02prodN02/conf10/R03_reac02prodN02_conf10_gfn1.xyz --opt --vfukui --chrg 1 --uhf 0 --alpb DMSO

   ID    Z sym.   atoms
    1    6 C      1, 3, 5, 7-10, 12, 14, 15, 18, 19, 22, 23, 25
    2    8 O      2, 4, 13, 20, 24, 26
    3    7 N      6, 11, 16, 17, 21
    4    1 H      27-46

      * Solvation model:               ALPB
        Solvent                        DMSO
        Solvent mass                       7.8130E+01 g/mol
          :  Hamiltonian                  GFN1-xTB          :
 * total energy  :   -86.3218077 Eh     change       -0.3097966E-10 Eh
 * total energy  :   -86.3410384 Eh     change       -0.1923068E-01 Eh
 * total energy  :   -86.3479525 Eh     change       -0.6914081E-02 Eh
 * total energy  :   -86.3493819 Eh     change       -0.1429391E-02 Eh
 * total energy  :   -86.3502099 Eh     change       -0.8280943E-03 Eh
 * total energy  :   -86.3505154 Eh     change       -0.3054060E-03 Eh
 * total energy  :   -86.3507885 Eh     change       -0.2731168E-03 Eh
 * total energy  :   -86.3510014 Eh     change       -0.2128834E-03 Eh
 * total energy  :   -86.3511428 Eh     change       -0.1414761E-03 Eh
 * total energy  :   -86.3512300 Eh     change       -0.8721293E-04 Eh
 * total energy  :   -86.3513973 Eh     change       -0.2919522E-04 Eh
 * total energy  :   -86.3514227 Eh     change       -0.2536909E-04 Eh
 * total energy  :   -86.3514378 Eh     change       -0.1509054E-04 Eh
 * total energy  :   -86.3514451 Eh     change       -0.7341756E-05 Eh
 * total energy  :   -86.3514572 Eh     change       -0.1204970E-04 Eh
 * total energy  :   -86.3514675 Eh     change       -0.1029644E-04 Eh
 * total energy  :   -86.3514766 Eh     change       -0.9154272E-05 Eh
 * total energy  :   -86.3514892 Eh     change       -0.1255945E-04 Eh
 * total energy  :   -86.3514935 Eh     change       -0.4334854E-05 Eh
   *** GEOMETRY OPTIMIZATION CONVERGED AFTER 22 ITERATIONS ***

 final structure:
================
46
 xtb: 6.5.1 (579679a)
C            4.45009535797804       -1.15160446466036        4.05441864024985
O            3.74909591455487       -0.87414070933686        2.83712446732121
C            4.39215982687110       -0.12563353029416        1.94060166495266
O            5.50451167262637        0.31168184843301        2.11554856378167
C            3.57215396459832        0.10501565717709        0.71456739505802
N            2.31320010678755       -0.43286899091850        0.71263085300672
C            1.51753916221786       -0.29530025427311       -0.29405432283261
C            0.16375782763143       -0.98164232302688       -0.16609060514219
C            0.05169196650721       -2.14109487492261       -1.16439158595969
C           -0.01447081164103       -1.49725698908143        1.26737870301277
N           -0.87877122835916        0.04481649638672       -0.39079574887071
C           -2.16847629632018       -0.16511460606823       -0.51546549314916
O           -2.62198498552302       -1.37729305658503       -0.51240249841831
C           -4.01362661211197       -1.70441234578640       -0.68188551695906
C           -2.97140202265040        1.02481485508799       -0.65570486489882
N           -2.48840581851647        2.23928483376110       -0.63306458968662
N           -3.52537380923579        3.07588818585715       -0.79402571093372
C           -4.59883420747222        2.33736365638832       -0.90902085033326
C           -5.98964683742683        2.78583533513278       -1.10445538739069
O           -4.30535716350631        1.03411266072344       -0.82734399406212
N            1.88257018520732        0.39039358589523       -1.42495115195995
C            1.06433798336111        0.56572569338460       -2.62609615797321
C            3.13902563153357        0.96817725042121       -1.53113486634646
O            3.49020400168570        1.57446585692669       -2.53458805932735
C            4.00991296456592        0.80778106183448       -0.37400407170556
O            5.21452081548939        1.36899758019553       -0.47630350470013
H            3.77996875110940       -1.74938245912038        4.66843506529281
H            5.36673327212710       -1.70691237291323        3.84055720962812
H            4.70139449585074       -0.21799434575896        4.56382286821806
H            0.99503488419825       -2.68639310609788       -1.17158135480570
H           -0.74007826236163       -2.82428399997478       -0.86722523244186
H           -0.15757251133454       -1.78464615678081       -2.16886652283205
H            0.09629140373421       -0.67872962554323        1.97620156636702
H           -1.00197490543122       -1.93872760873909        1.37701501316002
H            0.74294743410959       -2.25102619862555        1.47471559989097
H           -0.59853364251294        1.01762664546474       -0.33276526975556
H           -4.35895133956555       -1.35579355485073       -1.65504103714503
H           -4.60248284192999       -1.24853854720670        0.11380546642873
H           -4.06225921830476       -2.79000433352930       -0.62230627620017
H           -6.37870945473001        2.38191577479813       -2.03958307329540
H           -6.61444573579419        2.40948906334074       -0.29410706433333
H           -6.02799531269575        3.87250191856061       -1.12793023257393
H            1.45647151451148       -0.07664355175842       -3.41464909703615
H            1.14834708199530        1.60653443135262       -2.93932789134294
H            0.02836663985810        0.32607281300221       -2.42869158265627
H            5.28902215831076        1.80694280172267       -1.34448146130795

          :  Hamiltonian                  GFN1-xTB          :
         :: total energy             -86.351493527802 Eh    ::
         :: gradient norm              0.000696038790 Eh/a0 ::
         :: HOMO-LUMO gap              1.711343230623 eV    ::
         :: SCC energy               -87.184082256396 Eh    ::
         :: -> Gsolv                  -0.118481241922 Eh    ::
         :: repulsion energy           0.861545105028 Eh    ::

    * Orbital Energies and Occupations

         #    Occupation            Energy/Eh            Energy/eV
      -------------------------------------------------------------
         1        2.0000           -0.9057424             -24.6465
       ...           ...                  ...                  ...
        58        2.0000           -0.5282187             -14.3736
        59        2.0000           -0.5248127             -14.2809
        60        2.0000           -0.5195753             -14.1384
        61        2.0000           -0.5189463             -14.1212
        62        2.0000           -0.5119909             -13.9320
        63        2.0000           -0.5019938             -13.6599
        64        2.0000           -0.4930735             -13.4172
        65        2.0000           -0.4909361             -13.3591
        66        2.0000           -0.4886591             -13.2971
        67        2.0000           -0.4876529             -13.2697
        68        2.0000           -0.4737959             -12.8926
        69        2.0000           -0.4598119             -12.5121
        70        2.0000           -0.4422922             -12.0354 (HOMO)
        71                         -0.3794014             -10.3240 (LUMO)
        72                         -0.3341111              -9.0916
        73                         -0.3010071              -8.1908
        74                         -0.2916400              -7.9359
        75                         -0.2586571              -7.0384
        76                         -0.2496169              -6.7924
        77                         -0.1692080              -4.6044
        78                         -0.1614462              -4.3932
        79                         -0.1572308              -4.2785
        80                         -0.1558365              -4.2405
        81                         -0.1478980              -4.0245
       ...                                ...                  ...
       144                          0.7357910              20.0219
      -------------------------------------------------------------
                  HL-Gap            0.0628907 Eh            1.7113 eV

Wiberg/Mayer (AO) data.
largest (>0.10) Wiberg bond orders for each atom

     #   Z sym  total        # sym  WBO       # sym  WBO       # sym  WBO
 ---------------------------------------------------------------------------
     1   6 C    3.869 --    27 H    0.986    29 H    0.979    28 H    0.979
                             2 O    0.895
     2   8 O    2.200 --     3 C    1.114     1 C    0.895     4 O    0.136
     3   6 C    3.854 --     4 O    1.665     2 O    1.114     5 C    0.997
     4   8 O    1.929 --     3 C    1.665     2 O    0.136
     5   6 C    3.961 --    25 C    1.491     6 N    1.183     3 C    0.997
     6   7 N    3.036 --     7 C    1.585     5 C    1.183
     7   6 C    3.938 --     6 N    1.585    21 N    1.166     8 C    0.975
     8   6 C    3.898 --    10 C    0.984     9 C    0.982     7 C    0.975
                            11 N    0.885
     9   6 C    3.982 --     8 C    0.982    30 H    0.981    32 H    0.980
                            31 H    0.979
    10   6 C    3.982 --     8 C    0.984    34 H    0.983    33 H    0.983
                            35 H    0.980
    11   7 N    3.468 --    12 C    1.430     8 C    0.885    36 H    0.874
                            13 O    0.110
    12   6 C    3.895 --    11 N    1.430    13 O    1.216    15 C    1.089
    13   8 O    2.291 --    12 C    1.216    14 C    0.851    11 N    0.110
    14   6 C    3.818 --    39 H    0.980    38 H    0.974    37 H    0.974
                            13 O    0.851
    15   6 C    3.890 --    16 N    1.537    12 C    1.089    20 O    1.057
    16   7 N    3.037 --    15 C    1.537    17 N    1.265
    17   7 N    2.991 --    18 C    1.539    16 N    1.265
    18   6 C    3.848 --    17 N    1.539    20 O    1.089    19 C    1.041
    19   6 C    3.977 --    18 C    1.041    42 H    0.979    41 H    0.954
                            40 H    0.953
    20   8 O    2.344 --    18 C    1.089    15 C    1.057
    21   7 N    3.504 --     7 C    1.166    23 C    1.121    22 C    0.926
                            24 O    0.135
    22   6 C    3.917 --    45 H    0.980    43 H    0.973    44 H    0.973
                            21 N    0.926
    23   6 C    3.911 --    24 O    1.571    21 N    1.121    25 C    1.070
    24   8 O    1.913 --    23 C    1.571    21 N    0.135
    25   6 C    3.922 --     5 C    1.491    26 O    1.120    23 C    1.070
    26   8 O    2.098 --    25 C    1.120    46 H    0.803
    27   1 H    1.010 --     1 C    0.986
    28   1 H    1.006 --     1 C    0.979
    29   1 H    1.007 --     1 C    0.979
    30   1 H    0.998 --     9 C    0.981
    31   1 H    1.003 --     9 C    0.979
    32   1 H    0.999 --     9 C    0.980
    33   1 H    1.006 --    10 C    0.983
    34   1 H    1.001 --    10 C    0.983
    35   1 H    1.006 --    10 C    0.980
    36   1 H    0.935 --    11 N    0.874
    37   1 H    1.001 --    14 C    0.974
    38   1 H    1.001 --    14 C    0.974
    39   1 H    1.001 --    14 C    0.980
    40   1 H    0.990 --    19 C    0.953
    41   1 H    0.991 --    19 C    0.954
    42   1 H    0.994 --    19 C    0.979
    43   1 H    0.998 --    22 C    0.973
    44   1 H    1.003 --    22 C    0.973
    45   1 H    1.003 --    22 C    0.980
    46   1 H    0.842 --    26 O    0.803
 ---------------------------------------------------------------------------

           -------------------------------------------------
          | TOTAL ENERGY              -86.351493527802 Eh   |
          | GRADIENT NORM               0.000696038790 Eh/α |
          | HOMO-LUMO GAP               1.711343230623 eV   |
           -------------------------------------------------

 * finished run on 2023/06/20 at 15:37:05.340
