   * xtb version 6.5.1 (579679a) compiled by 'ehlert@majestix' on 2022-07-11
          program call               : /lustre/hpc/kemi/ree/PhD/git/ReactivityQM/dep/xtb-6.5.1/bin/xtb --gfn 1 /lustre/hpc/kemi/ree/PhD/git/ReactivityQM/calculations/R02oxygendeprot/reac01prodN01/conf08/R02oxygendeprot_reac01prodN01_conf08_gfn1.xyz --opt --vfukui --chrg 0 --uhf 0 --alpb DMSO

   ID    Z sym.   atoms
    1    6 C      1, 3, 5, 7-10, 12, 14, 17, 18, 20, 22, 24
    2    8 O      2, 4, 13, 19, 23, 25
    3    7 N      6, 11, 15, 16, 21
    4    1 H      26-42

      * Solvation model:               ALPB
        Solvent                        DMSO
        Solvent mass                       7.8130E+01 g/mol
          :  Hamiltonian                  GFN1-xTB          :
 * total energy  :   -82.8790250 Eh     change       -0.2131486E-09 Eh
 * total energy  :   -82.8965569 Eh     change       -0.1753190E-01 Eh
 * total energy  :   -82.9052296 Eh     change       -0.8672700E-02 Eh
 * total energy  :   -82.9077804 Eh     change       -0.2550831E-02 Eh
 * total energy  :   -82.9094425 Eh     change       -0.1662125E-02 Eh
 * total energy  :   -82.9103173 Eh     change       -0.8747126E-03 Eh
 * total energy  :   -82.9110381 Eh     change       -0.7208755E-03 Eh
 * total energy  :   -82.9116476 Eh     change       -0.6094338E-03 Eh
 * total energy  :   -82.9120939 Eh     change       -0.4463471E-03 Eh
 * total energy  :   -82.9123681 Eh     change       -0.2741554E-03 Eh
 * total energy  :   -82.9144326 Eh     change       -0.9229724E-05 Eh
 * total energy  :   -82.9144420 Eh     change       -0.9400455E-05 Eh
 * total energy  :   -82.9144485 Eh     change       -0.6483806E-05 Eh
 * total energy  :   -82.9144555 Eh     change       -0.6991143E-05 Eh
 * total energy  :   -82.9144615 Eh     change       -0.6010882E-05 Eh
 * total energy  :   -82.9144684 Eh     change       -0.6887701E-05 Eh
 * total energy  :   -82.9144769 Eh     change       -0.8511659E-05 Eh
 * total energy  :   -82.9144845 Eh     change       -0.7637119E-05 Eh
 * total energy  :   -82.9144895 Eh     change       -0.4970206E-05 Eh
   *** GEOMETRY OPTIMIZATION CONVERGED AFTER 50 ITERATIONS ***

 final structure:
================
42
 xtb: 6.5.1 (579679a)
C           -6.62760219830354       -1.56700580218341       -0.02675261536695
O           -5.45804450021132       -1.05088607274135        0.59548616874379
C           -4.49446370740941       -0.59825647238249       -0.24299305139638
O           -4.64934544961114       -0.64608913039667       -1.45726490036833
C           -3.31144706284712       -0.06445273432436        0.41916077998689
N           -2.36444279108482        0.39778060822923       -0.47661352778355
C           -1.27162736977701        0.91261092385700       -0.05840122972789
C           -0.27474950114182        1.49464812656040       -1.03754255139910
C           -0.47373650338456        3.01114741544774       -1.12773238566069
C           -0.43117930533030        0.83722421564663       -2.41026324355583
N            1.09509249335481        1.27526037653985       -0.53276695789298
C            1.60407658459535        0.06612175962156       -0.28631818313933
O            1.03668260504361       -1.00642582853394       -0.38007615181140
C            3.02832660107661        0.16694902467452        0.16313072364136
N            3.73974394455715        1.20933657361023        0.37984236877104
N            4.98717049213150        0.81753876942909        0.78071039463574
C            5.03473906446374       -0.45911568341377        0.80671051879151
C            6.15492214279659       -1.34239496923106        1.16539151722602
O            3.79180397914171       -0.97463587371902        0.41614063471644
C            3.35247440483516       -2.36504111257011        0.28714580436545
N           -0.98944069246250        1.04999414642004        1.28530990636941
C           -1.82082308511929        0.60720932431101        2.28402112586856
O           -1.48263107900143        0.73654400000947        3.45708975664221
C           -3.12665343075442       -0.00788149111080        1.82641574923307
O           -3.92575078119150       -0.40844695855393        2.69065211751994
H           -7.11001185599898       -0.79915088641348       -0.63971781069368
H           -6.38087493921028       -2.42252205711255       -0.66314992327905
H           -7.30140612502475       -1.88113192688220        0.76968382012111
H           -0.34821141368920        3.46449285895885       -0.14579984914848
H           -1.47840399536591        3.22463735553355       -1.49037853791788
H            0.25000420999268        3.44621696913889       -1.81431635263597
H           -0.26688826852135       -0.23629493023944       -2.33536842034116
H           -1.44466503314461        1.01187243588725       -2.77069625663776
H            0.28263061873863        1.26182154272882       -3.11287384059403
H            1.70203278027836        2.07385425360382       -0.45623700579961
H            7.01239493771935       -0.72449974278824        1.42590041895039
H            5.88948028663979       -1.97322455122271        2.01430837427367
H            6.41493331616944       -1.98856049712840        0.32671450471836
H            2.54653186943666       -2.52106784754329        1.00196795526513
H            4.21486981278796       -2.98515472103223        0.50806114711992
H            3.00985616837717       -2.50226538390597       -0.73619758071583
H           -0.11536822356209        1.45924499321518        1.56422258890910

          :  Hamiltonian                  GFN1-xTB          :
         :: total energy             -82.914489498575 Eh    ::
         :: gradient norm              0.000567986777 Eh/a0 ::
         :: HOMO-LUMO gap              0.290884611703 eV    ::
         :: SCC energy               -83.698241872211 Eh    ::
         :: -> Gsolv                  -0.131319156762 Eh    ::
         :: repulsion energy           0.809902286763 Eh    ::

    * Orbital Energies and Occupations

         #    Occupation            Energy/Eh            Energy/eV
      -------------------------------------------------------------
         1        2.0000           -0.9641698             -26.2364
       ...           ...                  ...                  ...
        55        2.0000           -0.5062240             -13.7751
        56        2.0000           -0.5039696             -13.7137
        57        2.0000           -0.4959247             -13.4948
        58        2.0000           -0.4898674             -13.3300
        59        2.0000           -0.4846558             -13.1882
        60        2.0000           -0.4711153             -12.8197
        61        2.0000           -0.4673368             -12.7169
        62        2.0000           -0.4614971             -12.5580
        63        2.0000           -0.4452582             -12.1161
        64        2.0000           -0.4398142             -11.9680
        65        2.0000           -0.4223851             -11.4937
        66        2.0000           -0.3838365             -10.4447
        67        1.9928           -0.3708746             -10.0920 (HOMO)
        68        0.0072           -0.3601848              -9.8011 (LUMO)
        69                         -0.3101126              -8.4386
        70                         -0.2745136              -7.4699
        71                         -0.2451771              -6.6716
        72                         -0.2392605              -6.5106
        73                         -0.2012538              -5.4764
        74                         -0.1880740              -5.1178
        75                         -0.1735880              -4.7236
        76                         -0.1362419              -3.7073
        77                         -0.1231272              -3.3505
        78                         -0.1227290              -3.3396
       ...                                ...                  ...
       134                          0.7527871              20.4844
      -------------------------------------------------------------
                  HL-Gap            0.0106898 Eh            0.2909 eV

Wiberg/Mayer (AO) data.
largest (>0.10) Wiberg bond orders for each atom

     #   Z sym  total        # sym  WBO       # sym  WBO       # sym  WBO
 ---------------------------------------------------------------------------
     1   6 C    3.897 --    28 H    0.987    27 H    0.981    26 H    0.980
                             2 O    0.923
     2   8 O    2.163 --     3 C    1.053     1 C    0.923     4 O    0.111
     3   6 C    3.850 --     4 O    1.579     5 C    1.108     2 O    1.053
     4   8 O    1.852 --     3 C    1.579     2 O    0.111
     5   6 C    3.907 --    24 C    1.268     6 N    1.156     3 C    1.108
                            25 O    0.128
     6   7 N    3.031 --     7 C    1.634     5 C    1.156
     7   6 C    3.931 --     6 N    1.634    21 N    1.091     8 C    0.972
     8   6 C    3.913 --    10 C    0.990     9 C    0.988     7 C    0.972
                            11 N    0.897
     9   6 C    3.989 --     8 C    0.988    29 H    0.984    31 H    0.983
                            30 H    0.982
    10   6 C    3.989 --     8 C    0.990    34 H    0.987    32 H    0.981
                            33 H    0.981
    11   7 N    3.390 --    12 C    1.304     8 C    0.897    35 H    0.891
                            13 O    0.195
    12   6 C    3.928 --    13 O    1.578    11 N    1.304    14 C    0.969
    13   8 O    1.927 --    12 C    1.578    11 N    0.195
    14   6 C    3.789 --    15 N    1.697    12 C    0.969    19 O    0.883
    15   7 N    3.035 --    14 C    1.697    16 N    1.146
    16   7 N    3.025 --    17 C    1.698    15 N    1.146
    17   6 C    3.799 --    16 N    1.698    18 C    1.043    19 O    0.874
    18   6 C    3.970 --    17 C    1.043    36 H    0.970    37 H    0.951
                            38 H    0.951
    19   8 O    2.651 --    14 C    0.883    17 C    0.874    20 C    0.748
    20   6 C    3.726 --    40 H    0.975    41 H    0.968    39 H    0.968
                            19 O    0.748
    21   7 N    3.421 --    22 C    1.155     7 C    1.091    42 H    0.898
                            23 O    0.135
    22   6 C    3.875 --    23 O    1.583    21 N    1.155    24 C    0.966
    23   8 O    1.862 --    22 C    1.583    21 N    0.135
    24   6 C    3.941 --    25 O    1.525     5 C    1.268    22 C    0.966
    25   8 O    1.826 --    24 C    1.525     5 C    0.128
    26   1 H    1.013 --     1 C    0.980
    27   1 H    1.013 --     1 C    0.981
    28   1 H    1.015 --     1 C    0.987
    29   1 H    0.999 --     9 C    0.984
    30   1 H    1.001 --     9 C    0.982
    31   1 H    0.997 --     9 C    0.983
    32   1 H    1.010 --    10 C    0.981
    33   1 H    1.013 --    10 C    0.981
    34   1 H    1.001 --    10 C    0.987
    35   1 H    0.937 --    11 N    0.891
    36   1 H    0.989 --    18 C    0.970
    37   1 H    0.988 --    18 C    0.951
    38   1 H    0.988 --    18 C    0.951
    39   1 H    0.999 --    20 C    0.968
    40   1 H    0.991 --    20 C    0.975
    41   1 H    1.000 --    20 C    0.968
    42   1 H    0.948 --    21 N    0.898
 ---------------------------------------------------------------------------

           -------------------------------------------------
          | TOTAL ENERGY              -82.914489498575 Eh   |
          | GRADIENT NORM               0.000567986777 Eh/α |
          | HOMO-LUMO GAP               0.290884611703 eV   |
           -------------------------------------------------

 * finished run on 2023/06/21 at 17:17:03.482
