   * xtb version 6.5.1 (579679a) compiled by 'ehlert@majestix' on 2022-07-11
          program call               : /lustre/hpc/kemi/ree/PhD/git/ReactivityQM/dep/xtb-6.5.1/bin/xtb --gfn 1 /lustre/hpc/kemi/ree/PhD/git/ReactivityQM/calculations/R03/reac01prodN06/conf06/R03_reac01prodN06_conf06_gfn1.xyz --opt --vfukui --chrg 1 --uhf 0 --alpb DMSO

   ID    Z sym.   atoms
    1    6 C      1, 3-7, 9, 10
    2    9 F      2
    3    7 N      8
    4    1 H      11-21

      * Solvation model:               ALPB
        Solvent                        DMSO
        Solvent mass                       7.8130E+01 g/mol
          :  Hamiltonian                  GFN1-xTB          :
 * total energy  :   -30.7183219 Eh     change       -0.2952305E-11 Eh
 * total energy  :   -30.7295474 Eh     change       -0.1122542E-01 Eh
 * total energy  :   -30.7328866 Eh     change       -0.3339283E-02 Eh
 * total energy  :   -30.7333262 Eh     change       -0.4395389E-03 Eh
 * total energy  :   -30.7335804 Eh     change       -0.2542095E-03 Eh
 * total energy  :   -30.7337464 Eh     change       -0.1660298E-03 Eh
 * total energy  :   -30.7339204 Eh     change       -0.1740164E-03 Eh
 * total energy  :   -30.7341089 Eh     change       -0.1884355E-03 Eh
 * total energy  :   -30.7342843 Eh     change       -0.1754044E-03 Eh
 * total energy  :   -30.7344553 Eh     change       -0.1709825E-03 Eh
 * total energy  :   -30.7347997 Eh     change       -0.4510950E-04 Eh
 * total energy  :   -30.7348191 Eh     change       -0.1943815E-04 Eh
 * total energy  :   -30.7348454 Eh     change       -0.2625996E-04 Eh
 * total energy  :   -30.7348608 Eh     change       -0.1537372E-04 Eh
 * total energy  :   -30.7348745 Eh     change       -0.1375763E-04 Eh
 * total energy  :   -30.7348918 Eh     change       -0.1726770E-04 Eh
 * total energy  :   -30.7348872 Eh     change        0.4607548E-05 Eh
 * total energy  :   -30.7348979 Eh     change       -0.1074532E-04 Eh
 * total energy  :   -30.7349023 Eh     change       -0.4347925E-05 Eh
   *** GEOMETRY OPTIMIZATION CONVERGED AFTER 23 ITERATIONS ***

 final structure:
================
21
 xtb: 6.5.1 (579679a)
C            3.88584797942809        0.05490959192270       -0.23932075011389
F            2.76798989089412       -0.83022144021736       -0.43539800341576
C            1.34407337418984       -0.55532222923032       -0.18642509124529
C            0.60191675505410       -0.15801036791308       -1.26821938053613
C           -0.74959905650944        0.05510906031884       -1.02703466667496
C           -1.28801415952955       -0.12269999120614        0.24718436548288
C           -2.75978378470408        0.09780439616302        0.48395015841399
N           -3.32891745773156        0.95962623819342       -0.54562894354215
C           -0.46262007002005       -0.52279951612691        1.29917807291702
C            0.89363287046683       -0.74843961135293        1.09401093601503
H            3.92672848893264        0.25532388063256        0.82704523675310
H            4.73367664131983       -0.51876254754626       -0.60241251524243
H            3.67784462712953        0.94047131223854       -0.83362480704359
H            1.04188376711471       -0.02408129484631       -2.24591543591934
H           -1.39660013092930        0.37110670520228       -1.83770087866350
H           -3.26309374728690       -0.87424652862435        0.43697197440879
H           -2.91641306756630        0.50663155568120        1.49148723997490
H           -3.05112647102337        1.91418988146048       -0.36209301291821
H           -4.33672866763420        0.91611487573563       -0.48213328163626
H           -0.87256205778604       -0.65954772196227        2.29255118689085
H            1.55186427619325       -1.05715724851874        1.89352859609770

          :  Hamiltonian                  GFN1-xTB          :
         :: total energy             -30.734902273151 Eh    ::
         :: gradient norm              0.000856490130 Eh/a0 ::
         :: HOMO-LUMO gap              2.899189452263 eV    ::
         :: SCC energy               -31.143857812863 Eh    ::
         :: -> Gsolv                  -0.082681577336 Eh    ::
         :: repulsion energy           0.418346136998 Eh    ::

    * Orbital Energies and Occupations

         #    Occupation            Energy/Eh            Energy/eV
      -------------------------------------------------------------
         1        2.0000           -1.0069291             -27.3999
       ...           ...                  ...                  ...
        15        2.0000           -0.5898353             -16.0502
        16        2.0000           -0.5826966             -15.8560
        17        2.0000           -0.5778002             -15.7227
        18        2.0000           -0.5727784             -15.5861
        19        2.0000           -0.5702224             -15.5165
        20        2.0000           -0.5582970             -15.1920
        21        2.0000           -0.5379036             -14.6371
        22        2.0000           -0.5259207             -14.3110
        23        2.0000           -0.5098876             -13.8747
        24        2.0000           -0.5040447             -13.7158
        25        2.0000           -0.4873459             -13.2614
        26        2.0000           -0.4756619             -12.9434
        27        2.0000           -0.4172180             -11.3531 (HOMO)
        28                         -0.3106748              -8.4539 (LUMO)
        29                         -0.3091866              -8.4134
        30                         -0.2583577              -7.0303
        31                         -0.1881687              -5.1203
        32                         -0.1809524              -4.9240
        33                         -0.1428094              -3.8860
        34                         -0.1402322              -3.8159
        35                         -0.1305398              -3.5522
        36                         -0.1298879              -3.5344
        37                         -0.1196523              -3.2559
        38                         -0.1151701              -3.1339
       ...                                ...                  ...
        62                          0.6149769              16.7344
      -------------------------------------------------------------
                  HL-Gap            0.1065433 Eh            2.8992 eV

Wiberg/Mayer (AO) data.
largest (>0.10) Wiberg bond orders for each atom

     #   Z sym  total        # sym  WBO       # sym  WBO       # sym  WBO
 ---------------------------------------------------------------------------
     1   6 C    3.679 --    11 H    0.980    13 H    0.980    12 H    0.974
                             2 F    0.718
     2   9 F    1.436 --     1 C    0.718     3 C    0.630
     3   6 C    3.685 --     4 C    1.431    10 C    1.430     2 F    0.630
     4   6 C    3.985 --     3 C    1.431     5 C    1.426    14 H    0.962
                             9 C    0.108
     5   6 C    3.986 --     4 C    1.426     6 C    1.410    15 H    0.962
                            10 C    0.108
     6   6 C    3.980 --     5 C    1.410     9 C    1.410     7 C    1.011
     7   6 C    3.980 --     6 C    1.011     8 N    1.003    17 H    0.966
                            16 H    0.956
     8   7 N    2.952 --     7 C    1.003    18 H    0.945    19 H    0.938
     9   6 C    3.988 --    10 C    1.428     6 C    1.410    20 H    0.967
                             4 C    0.108
    10   6 C    3.985 --     3 C    1.430     9 C    1.428    21 H    0.961
                             5 C    0.108
    11   1 H    0.993 --     1 C    0.980
    12   1 H    0.992 --     1 C    0.974
    13   1 H    0.993 --     1 C    0.980
    14   1 H    0.991 --     4 C    0.962
    15   1 H    1.013 --     5 C    0.962
    16   1 H    1.007 --     7 C    0.956
    17   1 H    1.000 --     7 C    0.966
    18   1 H    0.956 --     8 N    0.945
    19   1 H    0.952 --     8 N    0.938
    20   1 H    0.994 --     9 C    0.967
    21   1 H    0.990 --    10 C    0.961
 ---------------------------------------------------------------------------

           -------------------------------------------------
          | TOTAL ENERGY              -30.734902273151 Eh   |
          | GRADIENT NORM               0.000856490130 Eh/α |
          | HOMO-LUMO GAP               2.899189452263 eV   |
           -------------------------------------------------

 * finished run on 2023/06/20 at 15:14:59.066
