   * xtb version 6.5.1 (579679a) compiled by 'ehlert@majestix' on 2022-07-11
          program call               : /lustre/hpc/kemi/ree/PhD/git/ReactivityQM/dep/xtb-6.5.1/bin/xtb --gfn 1 /lustre/hpc/kemi/ree/PhD/git/ReactivityQM/calculations/RaltegravirCLI/reac01prodN05/conf03/RaltegravirCLI_reac01prodN05_conf03_gfn1.xyz --opt --vfukui --chrg 1 --uhf 0 --alpb DMSO

   ID    Z sym.   atoms
    1    6 C      1, 2, 5-7
    2    7 N      3, 4
    3    8 O      8, 10
    4   17 Cl     9
    5    1 H      11-16

      * Solvation model:               ALPB
        Solvent                        DMSO
        Solvent mass                       7.8130E+01 g/mol
          :  Hamiltonian                  GFN1-xTB          :
 * total energy  :   -33.3801651 Eh     change       -0.1733724E-11 Eh
 * total energy  :   -33.3879325 Eh     change       -0.7767387E-02 Eh
 * total energy  :   -33.3910048 Eh     change       -0.3072306E-02 Eh
 * total energy  :   -33.3913216 Eh     change       -0.3168193E-03 Eh
 * total energy  :   -33.3914958 Eh     change       -0.1742056E-03 Eh
 * total energy  :   -33.3915603 Eh     change       -0.6450667E-04 Eh
 * total energy  :   -33.3916465 Eh     change       -0.8617563E-04 Eh
 * total energy  :   -33.3916946 Eh     change       -0.4811015E-04 Eh
 * total energy  :   -33.3917171 Eh     change       -0.2243788E-04 Eh
 * total energy  :   -33.3917280 Eh     change       -0.1098652E-04 Eh
 * total energy  :   -33.3920184 Eh     change       -0.4141343E-04 Eh
 * total energy  :   -33.3920437 Eh     change       -0.2530330E-04 Eh
 * total energy  :   -33.3920705 Eh     change       -0.2679499E-04 Eh
 * total energy  :   -33.3920813 Eh     change       -0.1083999E-04 Eh
 * total energy  :   -33.3920871 Eh     change       -0.5731186E-05 Eh
 * total energy  :   -33.3920905 Eh     change       -0.3461023E-05 Eh
 * total energy  :   -33.3920969 Eh     change       -0.6379104E-05 Eh
 * total energy  :   -33.3921001 Eh     change       -0.3170622E-05 Eh
 * total energy  :   -33.3921033 Eh     change       -0.3234460E-05 Eh
   *** GEOMETRY OPTIMIZATION CONVERGED AFTER 39 ITERATIONS ***

 final structure:
================
16
 xtb: 6.5.1 (579679a)
C            2.55933490637369       -0.41371669975669        0.79994361416569
C            1.29573215711150       -0.27118917204660        0.09618126543899
N            1.08095614667851       -0.58780570760485       -1.22765914665485
N           -0.13033528432664       -0.36557705888180       -1.48620335261998
C           -0.78769685459045        0.13717116377330       -0.33616107503795
C           -1.99185348323390       -0.69457721903757        0.11354462477665
C           -1.32049288296904        1.59127021575364       -0.71841441494532
O           -2.17376657167822        1.66772140187422       -1.53434030995942
Cl          -0.61090510565409        2.86428355502785        0.11004439955619
O            0.22098570305315        0.16351637203889        0.64279196103407
H            2.76951420761883       -1.48294700052365        0.91186459315170
H            3.37053931321426       -0.00189058949293        0.19644771635623
H            2.51693680024123        0.05290321152619        1.78148560818272
H           -2.74122173964280       -0.67706849477557       -0.67562032406629
H           -1.66034226487737       -1.71400128123235        0.29800498337486
H           -2.39738404731866       -0.26809269664200        1.02808985724666

          :  Hamiltonian                  GFN1-xTB          :
         :: total energy             -33.392103324244 Eh    ::
         :: gradient norm              0.000658414229 Eh/a0 ::
         :: HOMO-LUMO gap              2.008500201334 eV    ::
         :: SCC energy               -33.670456856341 Eh    ::
         :: -> Gsolv                  -0.085738483655 Eh    ::
         :: repulsion energy           0.286291422347 Eh    ::

    * Orbital Energies and Occupations

         #    Occupation            Energy/Eh            Energy/eV
      -------------------------------------------------------------
         1        2.0000           -1.0029368             -27.2913
       ...           ...                  ...                  ...
        15        2.0000           -0.6375744             -17.3493
        16        2.0000           -0.6146143             -16.7245
        17        2.0000           -0.6056456             -16.4805
        18        2.0000           -0.6039176             -16.4334
        19        2.0000           -0.5865762             -15.9616
        20        2.0000           -0.5828557             -15.8603
        21        2.0000           -0.5758195             -15.6688
        22        2.0000           -0.5709596             -15.5366
        23        2.0000           -0.5680671             -15.4579
        24        2.0000           -0.5353453             -14.5675
        25        2.0000           -0.5327778             -14.4976
        26        2.0000           -0.5242503             -14.2656
        27        2.0000           -0.5130750             -13.9615 (HOMO)
        28                         -0.4392639             -11.9530 (LUMO)
        29                         -0.3562708              -9.6946
        30                         -0.3403762              -9.2621
        31                         -0.2500199              -6.8034
        32                         -0.1824518              -4.9648
        33                         -0.1645298              -4.4771
        34                         -0.1347870              -3.6677
        35                         -0.1279044              -3.4805
        36                         -0.1265993              -3.4449
        37                         -0.1142686              -3.1094
        38                         -0.1109232              -3.0184
       ...                                ...                  ...
        57                          0.7133717              19.4118
      -------------------------------------------------------------
                  HL-Gap            0.0738110 Eh            2.0085 eV

Wiberg/Mayer (AO) data.
largest (>0.10) Wiberg bond orders for each atom

     #   Z sym  total        # sym  WBO       # sym  WBO       # sym  WBO
 ---------------------------------------------------------------------------
     1   6 C    3.961 --     2 C    1.092    13 H    0.968    12 H    0.928
                            11 H    0.898
     2   6 C    3.798 --    10 O    1.294     3 N    1.177     1 C    1.092
     3   7 N    3.024 --     4 N    1.678     2 C    1.177
     4   7 N    3.013 --     3 N    1.678     5 C    1.076
     5   6 C    3.841 --     4 N    1.076     6 C    0.907    10 O    0.905
                             7 C    0.790
     6   6 C    3.941 --    16 H    0.976    15 H    0.974    14 H    0.974
                             5 C    0.907
     7   6 C    3.877 --     8 O    1.832     9 Cl   1.148     5 C    0.790
     8   8 O    2.131 --     7 C    1.832     9 Cl   0.157
     9  17 Cl   1.399 --     7 C    1.148     8 O    0.157
    10   8 O    2.381 --     2 C    1.294     5 C    0.905
    11   1 H    0.972 --     1 C    0.898
    12   1 H    0.979 --     1 C    0.928
    13   1 H    0.983 --     1 C    0.968
    14   1 H    0.992 --     6 C    0.974
    15   1 H    0.988 --     6 C    0.974
    16   1 H    0.989 --     6 C    0.976
 ---------------------------------------------------------------------------

           -------------------------------------------------
          | TOTAL ENERGY              -33.392103324244 Eh   |
          | GRADIENT NORM               0.000658414229 Eh/α |
          | HOMO-LUMO GAP               2.008500201334 eV   |
           -------------------------------------------------

 * finished run on 2023/06/20 at 14:54:59.946
