   * xtb version 6.5.1 (579679a) compiled by 'ehlert@majestix' on 2022-07-11
          program call               : /lustre/hpc/kemi/ree/PhD/git/ReactivityQM/dep/xtb-6.5.1/bin/xtb --gfn 1 /lustre/hpc/kemi/ree/PhD/git/ReactivityQM/calculations/RaltegravirCLI/reac01prodN07/conf08/RaltegravirCLI_reac01prodN07_conf08_gfn1.xyz --opt --vfukui --chrg 1 --uhf 0 --alpb DMSO

   ID    Z sym.   atoms
    1    6 C      1, 3, 5, 8, 9
    2    8 O      2, 10
    3   17 Cl     4
    4    7 N      6, 7
    5    1 H      11-16

      * Solvation model:               ALPB
        Solvent                        DMSO
        Solvent mass                       7.8130E+01 g/mol
          :  Hamiltonian                  GFN1-xTB          :
 * total energy  :   -33.4079102 Eh     change       -0.3502976E-11 Eh
 * total energy  :   -33.4152500 Eh     change       -0.7339774E-02 Eh
 * total energy  :   -33.4175240 Eh     change       -0.2274041E-02 Eh
 * total energy  :   -33.4178691 Eh     change       -0.3450864E-03 Eh
 * total energy  :   -33.4180057 Eh     change       -0.1365513E-03 Eh
 * total energy  :   -33.4180176 Eh     change       -0.1198416E-04 Eh
 * total energy  :   -33.4180230 Eh     change       -0.5346652E-05 Eh
 * total energy  :   -33.4180246 Eh     change       -0.1627102E-05 Eh
   *** GEOMETRY OPTIMIZATION CONVERGED AFTER 8 ITERATIONS ***

 final structure:
================
16
 xtb: 6.5.1 (579679a)
C            2.26719782188930        0.98134555509263       -0.04348093796856
O            2.54668472061231       -0.39713541128121        0.26142483252846
C            1.67538233983882       -1.30439435115918        0.48968784341102
Cl           2.27349656691276       -2.82374647984172        0.82006144432760
C            0.26797411808375       -1.10741499241687        0.48018757264786
N           -0.64940230367363       -2.02916257333590        0.70738795483727
N           -1.83119098056547       -1.44455040811021        0.60821785368977
C           -1.61803951608896       -0.17331192709239        0.32120027804518
C           -2.62703001030912        0.87342030566991        0.10303775947482
O           -0.31991688462234        0.08611500027516        0.23051709265774
H            1.67238529270357        1.04020458515625       -0.95432386392017
H            1.72682622837243        1.43553121210405        0.78650747527781
H            3.24075739532548        1.44761606302883       -0.17988746096398
H           -3.58794594342568        0.55233766823222        0.49947231508706
H           -2.72818509936834        1.06014212546424       -0.96835336484681
H           -2.30899374568484        1.80300262821417        0.57285020571493

          :  Hamiltonian                  GFN1-xTB          :
         :: total energy             -33.418024611457 Eh    ::
         :: gradient norm              0.000457409584 Eh/a0 ::
         :: HOMO-LUMO gap              2.420295879234 eV    ::
         :: SCC energy               -33.695274725260 Eh    ::
         :: -> Gsolv                  -0.081475810054 Eh    ::
         :: repulsion energy           0.284402585487 Eh    ::

    * Orbital Energies and Occupations

         #    Occupation            Energy/Eh            Energy/eV
      -------------------------------------------------------------
         1        2.0000           -1.0169816             -27.6735
       ...           ...                  ...                  ...
        15        2.0000           -0.6326836             -17.2162
        16        2.0000           -0.5992576             -16.3066
        17        2.0000           -0.5850685             -15.9205
        18        2.0000           -0.5814194             -15.8212
        19        2.0000           -0.5737374             -15.6122
        20        2.0000           -0.5614233             -15.2771
        21        2.0000           -0.5581129             -15.1870
        22        2.0000           -0.5512821             -15.0012
        23        2.0000           -0.5372597             -14.6196
        24        2.0000           -0.5337499             -14.5241
        25        2.0000           -0.5286880             -14.3863
        26        2.0000           -0.5039898             -13.7143
        27        2.0000           -0.5008748             -13.6295 (HOMO)
        28                         -0.4119305             -11.2092 (LUMO)
        29                         -0.3063200              -8.3354
        30                         -0.2837914              -7.7224
        31                         -0.2663436              -7.2476
        32                         -0.1676968              -4.5633
        33                         -0.1618969              -4.4054
        34                         -0.1413946              -3.8475
        35                         -0.1410946              -3.8394
        36                         -0.1392767              -3.7899
        37                         -0.1062311              -2.8907
        38                         -0.0980220              -2.6673
       ...                                ...                  ...
        57                          0.5021873              13.6652
      -------------------------------------------------------------
                  HL-Gap            0.0889442 Eh            2.4203 eV

Wiberg/Mayer (AO) data.
largest (>0.10) Wiberg bond orders for each atom

     #   Z sym  total        # sym  WBO       # sym  WBO       # sym  WBO
 ---------------------------------------------------------------------------
     1   6 C    3.804 --    13 H    0.978    11 H    0.965    12 H    0.965
                             2 O    0.836
     2   8 O    2.350 --     3 C    1.311     1 C    0.836
     3   6 C    3.887 --     2 O    1.311     4 Cl   1.217     5 C    1.182
     4  17 Cl   1.441 --     3 C    1.217
     5   6 C    3.888 --     6 N    1.456     3 C    1.182    10 O    1.033
     6   7 N    3.022 --     5 C    1.456     7 N    1.347
     7   7 N    3.000 --     8 C    1.455     6 N    1.347
     8   6 C    3.843 --     7 N    1.455    10 O    1.125     9 C    1.050
     9   6 C    3.971 --     8 C    1.050    14 H    0.974    16 H    0.959
                            15 H    0.935
    10   8 O    2.358 --     8 C    1.125     5 C    1.033
    11   1 H    0.998 --     1 C    0.965
    12   1 H    0.998 --     1 C    0.965
    13   1 H    0.999 --     1 C    0.978
    14   1 H    0.991 --     9 C    0.974
    15   1 H    0.985 --     9 C    0.935
    16   1 H    0.988 --     9 C    0.959
 ---------------------------------------------------------------------------

           -------------------------------------------------
          | TOTAL ENERGY              -33.418024611457 Eh   |
          | GRADIENT NORM               0.000457409584 Eh/α |
          | HOMO-LUMO GAP               2.420295879234 eV   |
           -------------------------------------------------

 * finished run on 2023/06/20 at 14:55:32.554
