   * xtb version 6.5.1 (579679a) compiled by 'ehlert@majestix' on 2022-07-11
          program call               : /lustre/hpc/kemi/ree/PhD/git/ReactivityQM/dep/xtb-6.5.1/bin/xtb --gfn 1 /lustre/hpc/kemi/ree/PhD/git/ReactivityQM/calculations/R02/reac01prodN10/conf16/R02_reac01prodN10_conf16_gfn1.xyz --opt --vfukui --chrg 1 --uhf 0 --alpb DMSO

   ID    Z sym.   atoms
    1    6 C      1, 3, 5, 6, 8, 11-15, 17, 19, 22, 23
    2    8 O      2, 4, 7, 9, 18, 24
    3    7 N      10, 16, 20, 21, 25
    4    1 H      26-43

      * Solvation model:               ALPB
        Solvent                        DMSO
        Solvent mass                       7.8130E+01 g/mol
          :  Hamiltonian                  GFN1-xTB          :
 * total energy  :   -83.0893314 Eh     change       -0.1847411E-10 Eh
 * total energy  :   -83.1075031 Eh     change       -0.1817169E-01 Eh
 * total energy  :   -83.1148674 Eh     change       -0.7364341E-02 Eh
 * total energy  :   -83.1164262 Eh     change       -0.1558850E-02 Eh
 * total energy  :   -83.1177434 Eh     change       -0.1317172E-02 Eh
 * total energy  :   -83.1185997 Eh     change       -0.8562557E-03 Eh
 * total energy  :   -83.1193609 Eh     change       -0.7612001E-03 Eh
 * total energy  :   -83.1200474 Eh     change       -0.6865487E-03 Eh
 * total energy  :   -83.1206499 Eh     change       -0.6024246E-03 Eh
 * total energy  :   -83.1211126 Eh     change       -0.4627032E-03 Eh
 * total energy  :   -83.1244334 Eh     change       -0.9362606E-05 Eh
 * total energy  :   -83.1244425 Eh     change       -0.9064293E-05 Eh
 * total energy  :   -83.1244492 Eh     change       -0.6758130E-05 Eh
 * total energy  :   -83.1244586 Eh     change       -0.9328215E-05 Eh
 * total energy  :   -83.1244628 Eh     change       -0.4284429E-05 Eh
 * total energy  :   -83.1244680 Eh     change       -0.5205262E-05 Eh
 * total energy  :   -83.1244714 Eh     change       -0.3363705E-05 Eh
 * total energy  :   -83.1244764 Eh     change       -0.4957312E-05 Eh
 * total energy  :   -83.1244799 Eh     change       -0.3510069E-05 Eh
   *** GEOMETRY OPTIMIZATION CONVERGED AFTER 44 ITERATIONS ***

 final structure:
================
43
 xtb: 6.5.1 (579679a)
C           -6.22344796758518       -1.42287072400437        0.55883659608158
O           -5.04228792746391       -0.60274346471266        0.70514209459423
C           -4.02540613542431       -0.88711762455854       -0.09748123742316
O           -4.02270010205896       -1.75455440755941       -0.92548922740503
C           -2.82915865498621        0.00870456332894        0.14933903219018
C           -2.76238940099836        1.00271981312407        1.15380976779629
O           -3.70207978350327        1.28294526705733        1.98514671670096
C           -1.52314590818716        1.83565621818382        1.28928897459162
O           -1.39971193613710        2.73021507171712        2.09032639699893
N           -0.55562600127792        1.48646989530528        0.39851053704372
C           -0.61174598678568        0.41876819444641       -0.54155963868900
C           -0.08300826334629        0.88875247823862       -1.89786598897781
C            0.37821775973624       -0.82681185853318        0.03225494665244
C            0.06082164091946       -1.00593191869506        1.51043229934104
C            0.07444082076433       -2.09118341291863       -0.75580559330629
N            1.71042814351692       -0.36385227125637       -0.09273200171271
C            2.56691429205525       -0.58544638933171       -1.15153976275277
O            2.27990659875360       -1.19228580686230       -2.15912456352745
C            3.89380183461742        0.00205421314007       -0.90850090940610
N            4.94638139245369       -0.06254170190978       -1.66662249902539
N            5.92604870868484        0.62973683582573       -1.03787012439239
C            5.41923117019405        1.08116580547012        0.07128654270392
C            6.08319389531083        1.89485129392315        1.10981986086682
O            4.13544779907245        0.71703669205964        0.21187569108771
N           -1.82572350676867       -0.20417890436169       -0.66715909452247
H           -6.00409486861892       -2.43158071971792        0.91180027731753
H           -6.99414333297583       -0.95968283514515        1.16853622592802
H           -6.51953890614902       -1.44999713287416       -0.49097568886052
H           -4.51432530728210        0.73560433293788        1.89438285969127
H            0.30006639949037        2.01955321503258        0.44753301262676
H           -0.04718230224321        0.06171854707843       -2.60304417499822
H           -0.75946576684434        1.65506391113245       -2.27254287622686
H            0.90915146756569        1.31456842046442       -1.77572149317616
H            0.37738256416127       -0.14180284088547        2.08997598155030
H            0.60084734933703       -1.88221041810083        1.86869735923721
H           -1.00375206125518       -1.17028210001552        1.66375708040696
H           -0.88506167046529       -2.48744395565898       -0.42656030205884
H            0.85742825135114       -2.82296513658044       -0.56046937206745
H            0.02516837684124       -1.91354845895850       -1.82692433836034
H            2.06405579667395        0.20456412799680        0.66202925529976
H            7.08682327302313        2.16122976692254        0.78596988439774
H            5.50179193933118        2.79668642235045        1.29857787158834
H            6.13644531649741        1.33096699690595        2.04146762219222

          :  Hamiltonian                  GFN1-xTB          :
         :: total energy             -83.124479877333 Eh    ::
         :: gradient norm              0.000470258435 Eh/a0 ::
         :: HOMO-LUMO gap              1.041465658746 eV    ::
         :: SCC energy               -83.915519132368 Eh    ::
         :: -> Gsolv                  -0.123448229801 Eh    ::
         :: repulsion energy           0.819576548091 Eh    ::

    * Orbital Energies and Occupations

         #    Occupation            Energy/Eh            Energy/eV
      -------------------------------------------------------------
         1        2.0000           -0.8954021             -24.3651
       ...           ...                  ...                  ...
        55        2.0000           -0.5326970             -14.4954
        56        2.0000           -0.5302831             -14.4297
        57        2.0000           -0.5236739             -14.2499
        58        2.0000           -0.5213402             -14.1864
        59        2.0000           -0.5208993             -14.1744
        60        2.0000           -0.5139856             -13.9863
        61        2.0000           -0.5038614             -13.7108
        62        2.0000           -0.4975729             -13.5396
        63        2.0000           -0.4920142             -13.3884
        64        2.0000           -0.4891894             -13.3115
        65        2.0000           -0.4819426             -13.1143
        66        2.0000           -0.4687521             -12.7554
        67        2.0000           -0.4675502             -12.7227 (HOMO)
        68                         -0.4292770             -11.6812 (LUMO)
        69                         -0.3578144              -9.7366
        70                         -0.3360018              -9.1431
        71                         -0.2788435              -7.5877
        72                         -0.2703395              -7.3563
        73                         -0.2275131              -6.1909
        74                         -0.2206672              -6.0047
        75                         -0.1591056              -4.3295
        76                         -0.1539508              -4.1892
        77                         -0.1501998              -4.0871
        78                         -0.1470863              -4.0024
       ...                                ...                  ...
       136                          0.7257933              19.7498
      -------------------------------------------------------------
                  HL-Gap            0.0382732 Eh            1.0415 eV

Wiberg/Mayer (AO) data.
largest (>0.10) Wiberg bond orders for each atom

     #   Z sym  total        # sym  WBO       # sym  WBO       # sym  WBO
 ---------------------------------------------------------------------------
     1   6 C    3.834 --    27 H    0.985    28 H    0.979    26 H    0.978
                             2 O    0.859
     2   8 O    2.226 --     3 C    1.125     1 C    0.859     4 O    0.144
     3   6 C    3.858 --     4 O    1.708     2 O    1.125     5 C    0.954
     4   8 O    1.973 --     3 C    1.708     2 O    0.144
     5   6 C    3.955 --    25 N    1.495     6 C    1.247     3 C    0.954
     6   6 C    3.834 --     7 O    1.310     5 C    1.247     8 C    0.976
     7   8 O    2.233 --     6 C    1.310    29 H    0.748
     8   6 C    3.917 --     9 O    1.648    10 N    1.196     6 C    0.976
     9   8 O    1.948 --     8 C    1.648    10 N    0.183
    10   7 N    3.423 --     8 C    1.196    11 C    0.993    30 H    0.873
                             9 O    0.183
    11   6 C    3.907 --    25 N    1.159    10 N    0.993    12 C    0.943
                            13 C    0.669
    12   6 C    3.962 --    33 H    0.980    31 H    0.976    32 H    0.975
                            11 C    0.943
    13   6 C    3.898 --    16 N    1.037    15 C    1.003    14 C    1.002
                            11 C    0.669
    14   6 C    3.984 --    13 C    1.002    36 H    0.980    34 H    0.980
                            35 H    0.963
    15   6 C    3.978 --    13 C    1.003    37 H    0.978    39 H    0.971
                            38 H    0.969
    16   7 N    3.383 --    17 C    1.139    13 C    1.037    40 H    0.882
                            18 O    0.131
    17   6 C    3.898 --    18 O    1.640    16 N    1.139    19 C    1.018
    18   8 O    1.940 --    17 C    1.640    16 N    0.131
    19   6 C    3.875 --    20 N    1.596    24 O    1.045    17 C    1.018
    20   7 N    3.004 --    19 C    1.596    21 N    1.224
    21   7 N    2.981 --    22 C    1.583    20 N    1.224
    22   6 C    3.855 --    21 N    1.583    24 O    1.077    23 C    1.036
    23   6 C    3.982 --    22 C    1.036    41 H    0.981    42 H    0.961
                            43 H    0.957
    24   8 O    2.322 --    22 C    1.077    19 C    1.045
    25   7 N    3.031 --     5 C    1.495    11 C    1.159
    26   1 H    1.000 --     1 C    0.978
    27   1 H    1.005 --     1 C    0.985
    28   1 H    1.002 --     1 C    0.979
    29   1 H    0.812 --     7 O    0.748
    30   1 H    0.910 --    10 N    0.873
    31   1 H    1.001 --    12 C    0.976
    32   1 H    0.995 --    12 C    0.975
    33   1 H    0.996 --    12 C    0.980
    34   1 H    0.995 --    14 C    0.980
    35   1 H    0.991 --    14 C    0.963
    36   1 H    0.998 --    14 C    0.980
    37   1 H    1.005 --    15 C    0.978
    38   1 H    0.994 --    15 C    0.969
    39   1 H    1.010 --    15 C    0.971
    40   1 H    0.928 --    16 N    0.882
    41   1 H    0.996 --    23 C    0.981
    42   1 H    0.994 --    23 C    0.961
    43   1 H    0.994 --    23 C    0.957
 ---------------------------------------------------------------------------

           -------------------------------------------------
          | TOTAL ENERGY              -83.124479877333 Eh   |
          | GRADIENT NORM               0.000470258435 Eh/α |
          | HOMO-LUMO GAP               1.041465658746 eV   |
           -------------------------------------------------

 * finished run on 2023/06/20 at 15:31:27.864
