   * xtb version 6.5.1 (579679a) compiled by 'ehlert@majestix' on 2022-07-11
          program call               : /lustre/hpc/kemi/ree/PhD/git/ReactivityQM/dep/xtb-6.5.1/bin/xtb --gfn 1 /lustre/hpc/kemi/ree/PhD/git/ReactivityQM/calculations/R02methylcation/reac01prodN06/conf07/R02methylcation_reac01prodN06_conf07_gfn1.xyz --opt --vfukui --chrg 0 --uhf 0 --alpb DMSO

   ID    Z sym.   atoms
    1    6 C      1, 3, 5, 7-10, 12, 14, 16, 17, 20, 22, 24
    2    8 O      2, 4, 13, 15, 23, 25
    3    7 N      6, 11, 18, 19, 21
    4    1 H      26-42

      * Solvation model:               ALPB
        Solvent                        DMSO
        Solvent mass                       7.8130E+01 g/mol
          :  Hamiltonian                  GFN1-xTB          :
 * total energy  :   -82.9562763 Eh     change       -0.5542802E-09 Eh
 * total energy  :   -82.9705658 Eh     change       -0.1428955E-01 Eh
 * total energy  :   -82.9770852 Eh     change       -0.6519381E-02 Eh
 * total energy  :   -82.9784412 Eh     change       -0.1355969E-02 Eh
 * total energy  :   -82.9796115 Eh     change       -0.1170339E-02 Eh
 * total energy  :   -82.9801497 Eh     change       -0.5382455E-03 Eh
 * total energy  :   -82.9805726 Eh     change       -0.4228644E-03 Eh
 * total energy  :   -82.9808773 Eh     change       -0.3046631E-03 Eh
 * total energy  :   -82.9810760 Eh     change       -0.1986901E-03 Eh
 * total energy  :   -82.9811994 Eh     change       -0.1234245E-03 Eh
 * total energy  :   -82.9815088 Eh     change       -0.5690529E-04 Eh
 * total energy  :   -82.9815575 Eh     change       -0.4878712E-04 Eh
 * total energy  :   -82.9815947 Eh     change       -0.3715956E-04 Eh
 * total energy  :   -82.9816251 Eh     change       -0.3040759E-04 Eh
 * total energy  :   -82.9816520 Eh     change       -0.2685518E-04 Eh
 * total energy  :   -82.9816688 Eh     change       -0.1683716E-04 Eh
 * total energy  :   -82.9816783 Eh     change       -0.9443675E-05 Eh
 * total energy  :   -82.9816841 Eh     change       -0.5840418E-05 Eh
 * total energy  :   -82.9816877 Eh     change       -0.3580649E-05 Eh
   *** GEOMETRY OPTIMIZATION CONVERGED AFTER 22 ITERATIONS ***

 final structure:
================
42
 xtb: 6.5.1 (579679a)
C            5.99209952540404        0.99113059926304        1.93306084841693
O            4.80331423033178        0.69915443065408        1.20874390398049
C            4.80013896876013        1.07596189336561       -0.10293858901387
O            5.76963058888192        1.63041526428449       -0.59163949861448
C            3.55422018826359        0.73105366557451       -0.77598412213149
N            2.61235276426290        0.10629054405239        0.01424857628924
C            1.48397824683624       -0.25085679875913       -0.47443593874979
C            0.48042534487422       -0.98936047208968        0.38259569029701
C            0.82360763686789       -0.81308361338479        1.86336079097044
C            0.47060222071019       -2.47099394329422       -0.01983064619862
N           -0.85276699617724       -0.40296039130418        0.11924289736116
C           -1.97658858103657       -0.88479314063517        0.64895224473818
O           -2.10092508189146       -1.82329059653292        1.41628677321954
C           -3.19461995982585       -0.14061230839528        0.19412487743778
O           -3.17562006997508        0.90411539538689       -0.62406649688385
C           -4.46060372834681        1.25992565884179       -0.80299397140021
C           -4.81539641279402        2.39944169813308       -1.66574547948808
N           -5.25991455190010        0.48121807454559       -0.13435659478079
N           -4.45276808591986       -0.39864955787237        0.48696492166890
C           -5.02254480865270       -1.42233288304691        1.33683405933082
N            1.16403393046514       -0.05470415430690       -1.80340592434131
C            2.00092140664096        0.56384924437058       -2.70457602632738
O            1.63987838508968        0.70769930186025       -3.86664818445649
C            3.33749648468250        1.01425630138392       -2.15337865553970
O            4.13565179678948        1.58010850384880       -2.91606436084957
H            6.19927992390354        2.06597504058814        1.91995435766310
H            5.82801316747191        0.65939258247726        2.95732004332751
H            6.84719171669019        0.45885790836019        1.50372247631870
H            0.75754624724784        0.23931328748787        2.13545456254354
H            1.84315900798211       -1.15761653760568        2.03368947012952
H            0.13956596534519       -1.38824653647006        2.48316510042776
H           -0.18870074958648       -3.04291814277048        0.62899969084398
H            0.13220130836084       -2.57379040586300       -1.04911596448608
H            1.48156197985641       -2.86777549593327        0.06479479182037
H           -0.91342571214111        0.41031647255749       -0.47277356391574
H           -4.32765672020332        3.30362370740013       -1.29957804387456
H           -5.89404470991945        2.53548233099935       -1.67034549570929
H           -4.46019573031401        2.21629972316828       -2.68072422551514
H           -4.41703526608108       -2.32271032554860        1.25640253729468
H           -5.01573652397577       -1.06627744164813        2.36693451441631
H           -6.04285979073428       -1.60166904383584        1.00809918158559
H            0.27453644376361       -0.36124083930136       -2.15435552780559

          :  Hamiltonian                  GFN1-xTB          :
         :: total energy             -82.981687672173 Eh    ::
         :: gradient norm              0.000529068792 Eh/a0 ::
         :: HOMO-LUMO gap              0.183098891647 eV    ::
         :: SCC energy               -83.770151724038 Eh    ::
         :: -> Gsolv                  -0.115552286693 Eh    ::
         :: repulsion energy           0.813608694451 Eh    ::

    * Orbital Energies and Occupations

         #    Occupation            Energy/Eh            Energy/eV
      -------------------------------------------------------------
         1        2.0000           -0.9287735             -25.2732
       ...           ...                  ...                  ...
        55        2.0000           -0.5088372             -13.8462
        56        2.0000           -0.5051419             -13.7456
        57        2.0000           -0.5015846             -13.6488
        58        2.0000           -0.4914881             -13.3741
        59        2.0000           -0.4850504             -13.1989
        60        2.0000           -0.4713105             -12.8250
        61        2.0000           -0.4696948             -12.7810
        62        2.0000           -0.4649151             -12.6510
        63        2.0000           -0.4496585             -12.2358
        64        2.0000           -0.4438708             -12.0783
        65        2.0000           -0.4270733             -11.6213
        66        2.0000           -0.3861723             -10.5083
        67        1.9437           -0.3743960             -10.1878 (HOMO)
        68        0.0563           -0.3676673             -10.0047 (LUMO)
        69                         -0.3164348              -8.6106
        70                         -0.2777233              -7.5572
        71                         -0.2506464              -6.8204
        72                         -0.2455712              -6.6823
        73                         -0.2038083              -5.5459
        74                         -0.1657782              -4.5111
        75                         -0.1632107              -4.4412
        76                         -0.1282956              -3.4911
        77                         -0.1253841              -3.4119
        78                         -0.1243868              -3.3847
       ...                                ...                  ...
       134                          0.7645824              20.8053
      -------------------------------------------------------------
                  HL-Gap            0.0067288 Eh            0.1831 eV

Wiberg/Mayer (AO) data.
largest (>0.10) Wiberg bond orders for each atom

     #   Z sym  total        # sym  WBO       # sym  WBO       # sym  WBO
 ---------------------------------------------------------------------------
     1   6 C    3.895 --    27 H    0.987    28 H    0.980    26 H    0.980
                             2 O    0.923
     2   8 O    2.142 --     3 C    1.035     1 C    0.923     4 O    0.112
     3   6 C    3.848 --     4 O    1.603     5 C    1.103     2 O    1.035
     4   8 O    1.872 --     3 C    1.603     2 O    0.112
     5   6 C    3.884 --    24 C    1.254     6 N    1.168     3 C    1.103
                            25 O    0.121
     6   7 N    3.030 --     7 C    1.623     5 C    1.168
     7   6 C    3.918 --     6 N    1.623    21 N    1.094     8 C    0.980
     8   6 C    3.911 --     9 C    0.991     7 C    0.980    10 C    0.980
                            11 N    0.892
     9   6 C    3.987 --     8 C    0.991    29 H    0.985    31 H    0.984
                            30 H    0.981
    10   6 C    3.985 --    33 H    0.985    34 H    0.984    32 H    0.980
                             8 C    0.980
    11   7 N    3.391 --    12 C    1.314     8 C    0.892    35 H    0.888
                            13 O    0.199
    12   6 C    3.920 --    13 O    1.567    11 N    1.314    14 C    0.965
    13   8 O    1.921 --    12 C    1.567    11 N    0.199
    14   6 C    3.802 --    19 N    1.430    15 O    1.116    12 C    0.965
    15   8 O    2.354 --    14 C    1.116    16 C    1.067
    16   6 C    3.839 --    18 N    1.580    15 O    1.067    17 C    1.042
    17   6 C    3.971 --    16 C    1.042    37 H    0.978    36 H    0.951
                            38 H    0.950
    18   7 N    2.962 --    16 C    1.580    19 N    1.152
    19   7 N    3.625 --    14 C    1.430    18 N    1.152    20 C    0.911
    20   6 C    3.883 --    41 H    0.977    39 H    0.969    40 H    0.960
                            19 N    0.911
    21   7 N    3.415 --    22 C    1.145     7 C    1.094    42 H    0.896
                            23 O    0.133
    22   6 C    3.870 --    23 O    1.596    21 N    1.145    24 C    0.963
    23   8 O    1.867 --    22 C    1.596    21 N    0.133
    24   6 C    3.934 --    25 O    1.540     5 C    1.254    22 C    0.963
    25   8 O    1.827 --    24 C    1.540     5 C    0.121
    26   1 H    1.013 --     1 C    0.980
    27   1 H    1.015 --     1 C    0.987
    28   1 H    1.012 --     1 C    0.980
    29   1 H    1.005 --     9 C    0.985
    30   1 H    1.013 --     9 C    0.981
    31   1 H    1.006 --     9 C    0.984
    32   1 H    1.007 --    10 C    0.980
    33   1 H    1.001 --    10 C    0.985
    34   1 H    1.002 --    10 C    0.984
    35   1 H    0.931 --    11 N    0.888
    36   1 H    0.989 --    17 C    0.951
    37   1 H    0.991 --    17 C    0.978
    38   1 H    0.989 --    17 C    0.950
    39   1 H    1.004 --    20 C    0.969
    40   1 H    0.991 --    20 C    0.960
    41   1 H    0.994 --    20 C    0.977
    42   1 H    0.942 --    21 N    0.896
 ---------------------------------------------------------------------------

           -------------------------------------------------
          | TOTAL ENERGY              -82.981687672173 Eh   |
          | GRADIENT NORM               0.000529068792 Eh/α |
          | HOMO-LUMO GAP               0.183098891647 eV   |
           -------------------------------------------------

 * finished run on 2023/06/21 at 17:36:25.116
