   * xtb version 6.5.1 (579679a) compiled by 'ehlert@majestix' on 2022-07-11
          program call               : /lustre/hpc/kemi/ree/PhD/git/ReactivityQM/dep/xtb-6.5.1/bin/xtb --gfn 1 /lustre/hpc/kemi/ree/PhD/git/ReactivityQM/calculations/R02deprot/reac01prodN02/conf16/R02deprot_reac01prodN02_conf16_gfn1.xyz --opt --vfukui --chrg 0 --uhf 0 --alpb DMSO

   ID    Z sym.   atoms
    1    6 C      1, 3, 5, 7-10, 12, 14, 15, 18, 19, 22, 24
    2    8 O      2, 4, 13, 20, 23, 25
    3    7 N      6, 11, 16, 17, 21
    4    1 H      26-42

      * Solvation model:               ALPB
        Solvent                        DMSO
        Solvent mass                       7.8130E+01 g/mol
          :  Hamiltonian                  GFN1-xTB          :
 * total energy  :   -82.9370015 Eh     change       -0.6096457E-11 Eh
 * total energy  :   -82.9569693 Eh     change       -0.1996786E-01 Eh
 * total energy  :   -82.9653373 Eh     change       -0.8367915E-02 Eh
 * total energy  :   -82.9670266 Eh     change       -0.1689360E-02 Eh
 * total energy  :   -82.9680948 Eh     change       -0.1068165E-02 Eh
 * total energy  :   -82.9684764 Eh     change       -0.3815842E-03 Eh
 * total energy  :   -82.9688088 Eh     change       -0.3324087E-03 Eh
 * total energy  :   -82.9691212 Eh     change       -0.3124398E-03 Eh
 * total energy  :   -82.9694198 Eh     change       -0.2985843E-03 Eh
 * total energy  :   -82.9697043 Eh     change       -0.2844677E-03 Eh
 * total energy  :   -82.9715679 Eh     change       -0.1726653E-04 Eh
 * total energy  :   -82.9715855 Eh     change       -0.1764569E-04 Eh
 * total energy  :   -82.9716036 Eh     change       -0.1810099E-04 Eh
 * total energy  :   -82.9716178 Eh     change       -0.1413220E-04 Eh
 * total energy  :   -82.9716277 Eh     change       -0.9963355E-05 Eh
 * total energy  :   -82.9716355 Eh     change       -0.7721950E-05 Eh
 * total energy  :   -82.9716421 Eh     change       -0.6611509E-05 Eh
 * total energy  :   -82.9716489 Eh     change       -0.6792123E-05 Eh
 * total energy  :   -82.9716516 Eh     change       -0.2733251E-05 Eh
   *** GEOMETRY OPTIMIZATION CONVERGED AFTER 44 ITERATIONS ***

 final structure:
================
42
 xtb: 6.5.1 (579679a)
C            6.75349949995803       -1.20647990431027       -2.03447998991364
O            5.39393505992033       -0.80451627899194       -2.23357931173271
C            4.55240239357537       -1.06178927671914       -1.21046514485826
O            4.93158373343855       -1.61066884694534       -0.19808280157175
C            3.16518578337636       -0.60291412039461       -1.44345147057880
N            2.34639414145357       -0.81107861810249       -0.36013133534713
C            1.10944496958415       -0.40537716307464       -0.46747584830989
C            0.21334738738110       -0.63606789172286        0.74683460320311
C           -0.04516065150207       -2.13435876576173        0.93189931252196
C            0.84574048099296       -0.01679446727558        1.99496873559489
N           -1.03634842558031        0.04880984615712        0.40975436017598
C           -2.10227465353048        0.21232869920483        1.12560217267966
O           -2.15281353797881       -0.31005601323844        2.32176888030602
C           -3.28948506891586       -0.18546642819778        3.18745861332572
C           -3.16297656504926        0.99062557146918        0.51557237889371
N           -3.10277770843553        1.49296609739318       -0.68525452688140
N           -4.25423960142966        2.16594358627000       -0.88689360394239
C           -4.96022012445619        2.04503776146428        0.20066968465334
C           -6.29290597328872        2.61189980263045        0.48313761871934
O           -4.32165396351939        1.30981527517833        1.12318318762264
N            0.53172419000585        0.18840145610663       -1.50637870281999
C            1.26167254828975        0.42271260507167       -2.63910700906424
O            0.77312803058269        0.96752421763327       -3.63477634800474
C            2.67167471100235       -0.01326367241330       -2.58312397498930
O            3.37982549754959        0.22364168802237       -3.70879104995666
H            7.15593546853314       -0.73293716131041       -1.13552393815952
H            7.31062597351100       -0.88350061927898       -2.91075928076774
H            6.81237509161896       -2.29240422782834       -1.92800651550114
H            0.91322642663715       -2.63810517808352        1.05246261868275
H           -0.55272514893771       -2.53714924360475        0.05655805495224
H           -0.65797787899171       -2.31293119641989        1.81254493829404
H            0.27519847867885       -0.26331643291922        2.88712208775120
H            1.85679079457256       -0.41162785899504        2.09382864370759
H            0.89561641475339        1.06599365530750        1.89108645207480
H           -0.97355076589375        0.43247228139563       -0.56236582318597
H           -3.03134083548249       -0.74214754032228        4.08645375562082
H           -3.46578563290952        0.86309481213479        3.42831302411579
H           -4.17280107812782       -0.61573942939005        2.71497890845020
H           -6.66424273014076        3.13487984808906       -0.39501126032878
H           -6.22784284550676        3.30474368420990        1.32230471371426
H           -6.98382426813148        1.81641013590958        0.76063654065824
H            4.30161738240209       -0.06861068834393       -3.63403234980072

          :  Hamiltonian                  GFN1-xTB          :
         :: total energy             -82.971651588228 Eh    ::
         :: gradient norm              0.000341547627 Eh/a0 ::
         :: HOMO-LUMO gap              0.702035297459 eV    ::
         :: SCC energy               -83.741589901578 Eh    ::
         :: -> Gsolv                  -0.081064254623 Eh    ::
         :: repulsion energy           0.795288415463 Eh    ::

    * Orbital Energies and Occupations

         #    Occupation            Energy/Eh            Energy/eV
      -------------------------------------------------------------
         1        2.0000           -0.8933642             -24.3097
       ...           ...                  ...                  ...
        55        2.0000           -0.5013916             -13.6436
        56        2.0000           -0.5001752             -13.6105
        57        2.0000           -0.4889861             -13.3060
        58        2.0000           -0.4876188             -13.2688
        59        2.0000           -0.4866219             -13.2417
        60        2.0000           -0.4797460             -13.0546
        61        2.0000           -0.4730465             -12.8723
        62        2.0000           -0.4621118             -12.5747
        63        2.0000           -0.4530344             -12.3277
        64        2.0000           -0.4360471             -11.8654
        65        2.0000           -0.4165031             -11.3336
        66        2.0000           -0.3919778             -10.6663
        67        2.0000           -0.3850907             -10.4789 (HOMO)
        68        0.0000           -0.3592914              -9.7768 (LUMO)
        69                         -0.2896580              -7.8820
        70                         -0.2804294              -7.6309
        71                         -0.2439587              -6.6385
        72                         -0.2412840              -6.5657
        73                         -0.2036768              -5.5423
        74                         -0.1532208              -4.1694
        75                         -0.1518816              -4.1329
        76                         -0.1305883              -3.5535
        77                         -0.1279150              -3.4807
        78                         -0.1256764              -3.4198
       ...                                ...                  ...
       134                          0.7359568              20.0264
      -------------------------------------------------------------
                  HL-Gap            0.0257993 Eh            0.7020 eV

Wiberg/Mayer (AO) data.
largest (>0.10) Wiberg bond orders for each atom

     #   Z sym  total        # sym  WBO       # sym  WBO       # sym  WBO
 ---------------------------------------------------------------------------
     1   6 C    3.874 --    27 H    0.987    28 H    0.980    26 H    0.980
                             2 O    0.896
     2   8 O    2.189 --     3 C    1.066     1 C    0.896     4 O    0.122
     3   6 C    3.837 --     4 O    1.651     2 O    1.066     5 C    1.029
     4   8 O    1.912 --     3 C    1.651     2 O    0.122
     5   6 C    3.961 --    24 C    1.484     6 N    1.188     3 C    1.029
     6   7 N    3.000 --     7 C    1.485     5 C    1.188
     7   6 C    3.961 --     6 N    1.485    21 N    1.360     8 C    0.962
     8   6 C    3.895 --    10 C    0.983     9 C    0.977     7 C    0.962
                            11 N    0.896
     9   6 C    3.988 --    30 H    0.985    31 H    0.984    29 H    0.982
                             8 C    0.977
    10   6 C    3.988 --    34 H    0.985    32 H    0.984     8 C    0.983
                            33 H    0.980
    11   7 N    3.509 --    12 C    1.511     8 C    0.896    35 H    0.803
                            13 O    0.115
    12   6 C    3.902 --    11 N    1.511    13 O    1.175    15 C    1.070
    13   8 O    2.263 --    12 C    1.175    14 C    0.866    11 N    0.115
    14   6 C    3.835 --    36 H    0.981    38 H    0.977    37 H    0.976
                            13 O    0.866
    15   6 C    3.889 --    16 N    1.564    12 C    1.070    20 O    1.054
    16   7 N    3.025 --    15 C    1.564    17 N    1.239
    17   7 N    2.988 --    18 C    1.569    16 N    1.239
    18   6 C    3.855 --    17 N    1.569    20 O    1.079    19 C    1.037
    19   6 C    3.980 --    18 C    1.037    39 H    0.980    41 H    0.959
                            40 H    0.956
    20   8 O    2.334 --    18 C    1.079    15 C    1.054
    21   7 N    3.051 --     7 C    1.360    22 C    1.206    23 O    0.126
                            35 H    0.111
    22   6 C    3.925 --    23 O    1.526    21 N    1.206    24 C    1.060
    23   8 O    1.812 --    22 C    1.526    21 N    0.126
    24   6 C    3.904 --     5 C    1.484    25 O    1.075    22 C    1.060
    25   8 O    2.059 --    24 C    1.075    42 H    0.818
    26   1 H    1.010 --     1 C    0.980
    27   1 H    1.011 --     1 C    0.987
    28   1 H    1.009 --     1 C    0.980
    29   1 H    1.007 --     9 C    0.982
    30   1 H    1.002 --     9 C    0.985
    31   1 H    1.004 --     9 C    0.984
    32   1 H    1.005 --    10 C    0.984
    33   1 H    1.013 --    10 C    0.980
    34   1 H    1.001 --    10 C    0.985
    35   1 H    0.962 --    11 N    0.803    21 N    0.111
    36   1 H    1.004 --    14 C    0.981
    37   1 H    1.004 --    14 C    0.976
    38   1 H    1.004 --    14 C    0.977
    39   1 H    0.996 --    19 C    0.980
    40   1 H    0.993 --    19 C    0.956
    41   1 H    0.993 --    19 C    0.959
    42   1 H    0.869 --    25 O    0.818
 ---------------------------------------------------------------------------

           -------------------------------------------------
          | TOTAL ENERGY              -82.971651588228 Eh   |
          | GRADIENT NORM               0.000341547627 Eh/α |
          | HOMO-LUMO GAP               0.702035297459 eV   |
           -------------------------------------------------

 * finished run on 2023/06/20 at 18:07:03.425
