   * xtb version 6.5.1 (579679a) compiled by 'ehlert@majestix' on 2022-07-11
          program call               : /lustre/hpc/kemi/ree/PhD/git/ReactivityQM/dep/xtb-6.5.1/bin/xtb --gfn 1 /lustre/hpc/kemi/ree/PhD/git/ReactivityQM/calculations/RaltegravirCLI/reac02prodN13/conf01/RaltegravirCLI_reac02prodN13_conf01_gfn1.xyz --opt --vfukui --chrg 1 --uhf 0 --alpb DMSO

   ID    Z sym.   atoms
    1    6 C      1, 3-6, 9, 10, 13-17, 19-21, 23, 24
    2    7 N      2, 7, 8, 12
    3    8 O      11, 22, 25
    4    9 F      18
    5    1 H      26-47

      * Solvation model:               ALPB
        Solvent                        DMSO
        Solvent mass                       7.8130E+01 g/mol
          :  Hamiltonian                  GFN1-xTB          :
 * total energy  :   -79.4000237 Eh     change        0.1651301E-10 Eh
 * total energy  :   -79.4187840 Eh     change       -0.1876034E-01 Eh
 * total energy  :   -79.4288419 Eh     change       -0.1005787E-01 Eh
 * total energy  :   -79.4318088 Eh     change       -0.2966871E-02 Eh
 * total energy  :   -79.4339324 Eh     change       -0.2123665E-02 Eh
 * total energy  :   -79.4348538 Eh     change       -0.9213664E-03 Eh
 * total energy  :   -79.4354212 Eh     change       -0.5673880E-03 Eh
 * total energy  :   -79.4357853 Eh     change       -0.3640997E-03 Eh
 * total energy  :   -79.4360388 Eh     change       -0.2535003E-03 Eh
 * total energy  :   -79.4362567 Eh     change       -0.2179315E-03 Eh
 * total energy  :   -79.4932802 Eh     change       -0.5751445E-05 Eh
 * total energy  :   -79.4932880 Eh     change       -0.7839740E-05 Eh
 * total energy  :   -79.4932991 Eh     change       -0.1108334E-04 Eh
 * total energy  :   -79.4933132 Eh     change       -0.1406240E-04 Eh
 * total energy  :   -79.4933226 Eh     change       -0.9390867E-05 Eh
 * total energy  :   -79.4933316 Eh     change       -0.9052602E-05 Eh
 * total energy  :   -79.4933403 Eh     change       -0.8693037E-05 Eh
 * total energy  :   -79.4933460 Eh     change       -0.5711109E-05 Eh
 * total energy  :   -79.4933498 Eh     change       -0.3762773E-05 Eh
   *** GEOMETRY OPTIMIZATION CONVERGED AFTER 83 ITERATIONS ***

 final structure:
================
47
 xtb: 6.5.1 (579679a)
C           -3.65340774690522        1.58462751175585       -1.79705252695262
N           -2.55675372486359        1.03931497637141       -0.99169005290399
C           -2.58462352177452       -0.14678717901470       -0.37898042934995
C           -3.81575689352810       -0.94735288479512       -0.07067941939864
C           -3.54788667957943       -1.82619537571805        1.16669512943099
C           -4.09002653104237       -1.84130601282412       -1.29681597035216
N           -4.95372969045268       -0.08208010836900        0.15659843426296
N           -1.42039448320394       -0.77648803335581       -0.12306642601233
C           -0.27669551702877       -0.18262146152822       -0.09703409917979
C            0.95628274799394       -1.06400047258874        0.01155120375590
O            0.92986169105564       -2.05341570080971        0.71924744215092
N            1.99017719514598       -0.67139086815819       -0.73731726211220
C            3.25300530631482       -1.39505737011507       -0.72294849410763
C            4.32164988273539       -0.64706268924117        0.04611327868137
C            4.01469777334743        0.43274091193930        0.86815028365090
C            5.01569476730103        1.09287591729208        1.56794111250267
C            6.31753673228937        0.64836396453483        1.43032492378058
F            7.29064936146969        1.28120754782843        2.10239619267191
C            6.65677074070711       -0.42295454501759        0.62243859135407
C            5.64540871872125       -1.06913679084290       -0.07255431446649
C           -0.27210701488760        1.30836013252516       -0.04937847339154
O            0.96095348525918        1.84348438925530       -0.40729046908020
C           -1.37397264383310        1.82380780255875       -0.97306311341849
C           -0.68083112791502        1.78282422028257        1.37534847550200
O           -1.30437373090018        2.87009834464169       -1.54688863218037
H           -4.59830326419759        1.22804493680432       -1.39161314200264
H           -3.59689029031313        2.67083368122180       -1.75735608346981
H           -3.52751383832488        1.24363886428788       -2.82402482679498
H           -3.30658251163180       -1.19805113688736        2.02213127811764
H           -2.72309400582601       -2.51248292166244        0.98124343884809
H           -4.44697389863343       -2.39693237417681        1.38826792635005
H           -4.92798383320817       -2.49685891224983       -1.06739001839553
H           -4.34308126992913       -1.22706529844161       -2.15854826914498
H           -3.21314410202799       -2.44415365579988       -1.52669492407531
H           -4.84439018312401        0.42466777568537        1.02315258216936
H           -5.79894195413853       -0.63290133257672        0.20667907744138
H            1.94030405293319        0.18139865444012       -1.26851811139130
H            3.57355243736829       -1.54965729284164       -1.75715636899409
H            3.07172490939351       -2.37322312066025       -0.26385078476215
H            2.99055447640091        0.77286164504993        0.95942466302630
H            4.78812626616084        1.93735341277831        2.20482862335611
H            7.68829247201469       -0.73958354765098        0.53625699526659
H            5.88786469159656       -1.90784461079847       -0.71485416840830
H            0.85644377882387        2.74868569456238       -0.73963306090398
H           -1.61386389611031        1.31600962795707        1.67979396365132
H           -0.79388866931463        2.86446859632279        1.36497555567932
H            0.11565953565932        1.50893308803092        2.06398126959376

          :  Hamiltonian                  GFN1-xTB          :
         :: total energy             -79.493349782633 Eh    ::
         :: gradient norm              0.000401332459 Eh/a0 ::
         :: HOMO-LUMO gap              0.766740807809 eV    ::
         :: SCC energy               -80.386921152021 Eh    ::
         :: -> Gsolv                  -0.108661697730 Eh    ::
         :: repulsion energy           0.924889016555 Eh    ::

    * Orbital Energies and Occupations

         #    Occupation            Energy/Eh            Energy/eV
      -------------------------------------------------------------
         1        2.0000           -0.8851810             -24.0870
       ...           ...                  ...                  ...
        55        2.0000           -0.5260990             -14.3159
        56        2.0000           -0.5219836             -14.2039
        57        2.0000           -0.5136291             -13.9766
        58        2.0000           -0.5112614             -13.9121
        59        2.0000           -0.5095381             -13.8652
        60        2.0000           -0.5075824             -13.8120
        61        2.0000           -0.4968542             -13.5201
        62        2.0000           -0.4809660             -13.0878
        63        2.0000           -0.4760000             -12.9526
        64        2.0000           -0.4671316             -12.7113
        65        2.0000           -0.4575097             -12.4495
        66        2.0000           -0.4428651             -12.0510
        67        2.0000           -0.4414114             -12.0114 (HOMO)
        68        0.0000           -0.4132342             -11.2447 (LUMO)
        69                         -0.3373567              -9.1799
        70                         -0.3016024              -8.2070
        71                         -0.2794839              -7.6051
        72                         -0.2716169              -7.3911
        73                         -0.2565448              -6.9809
        74                         -0.1597904              -4.3481
        75                         -0.1550147              -4.2182
        76                         -0.1503896              -4.0923
        77                         -0.1453989              -3.9565
        78                         -0.1383644              -3.7651
       ...                                ...                  ...
       144                          0.6870279              18.6950
      -------------------------------------------------------------
                  HL-Gap            0.0281772 Eh            0.7667 eV

Wiberg/Mayer (AO) data.
largest (>0.10) Wiberg bond orders for each atom

     #   Z sym  total        # sym  WBO       # sym  WBO       # sym  WBO
 ---------------------------------------------------------------------------
     1   6 C    3.881 --    27 H    0.975    28 H    0.966    26 H    0.954
                             2 N    0.901
     2   7 N    3.546 --     3 C    1.347    23 C    1.022     1 C    0.901
     3   6 C    3.877 --     2 N    1.347     8 N    1.260     4 C    1.008
     4   6 C    3.957 --     3 C    1.008     7 N    0.998     5 C    0.963
                             6 C    0.937
     5   6 C    3.985 --    29 H    0.984    31 H    0.981    30 H    0.981
                             4 C    0.963
     6   6 C    3.978 --    34 H    0.984    33 H    0.984    32 H    0.975
                             4 C    0.937
     7   7 N    3.021 --     4 C    0.998    35 H    0.929    36 H    0.925
     8   7 N    3.144 --     9 C    1.641     3 C    1.260
     9   6 C    3.897 --     8 N    1.641    21 C    1.004    10 C    0.943
    10   6 C    3.921 --    11 O    1.596    12 N    1.306     9 C    0.943
    11   8 O    1.920 --    10 C    1.596    12 N    0.199
    12   7 N    3.404 --    10 C    1.306    13 C    0.938    37 H    0.883
                            11 O    0.199
    13   6 C    3.930 --    14 C    0.992    38 H    0.966    39 H    0.960
                            12 N    0.938
    14   6 C    3.984 --    15 C    1.422    20 C    1.410    13 C    0.992
    15   6 C    3.994 --    16 C    1.439    14 C    1.422    40 H    0.968
                            19 C    0.109
    16   6 C    3.992 --    15 C    1.439    17 C    1.404    41 H    0.969
                            20 C    0.111
    17   6 C    3.862 --    16 C    1.404    19 C    1.395    18 F    0.928
    18   9 F    1.057 --    17 C    0.928
    19   6 C    3.991 --    20 C    1.449    17 C    1.395    42 H    0.969
                            15 C    0.109
    20   6 C    3.993 --    19 C    1.449    14 C    1.410    43 H    0.971
                            16 C    0.111
    21   6 C    3.933 --     9 C    1.004    22 O    0.989    23 C    0.922
                            24 C    0.895
    22   8 O    1.931 --    21 C    0.989    44 H    0.812
    23   6 C    3.862 --    25 O    1.771     2 N    1.022    21 C    0.922
    24   6 C    3.969 --    45 H    0.985    46 H    0.978    47 H    0.976
                            21 C    0.895
    25   8 O    2.039 --    23 C    1.771
    26   1 H    1.018 --     1 C    0.954
    27   1 H    0.997 --     1 C    0.975
    28   1 H    0.994 --     1 C    0.966
    29   1 H    0.998 --     5 C    0.984
    30   1 H    1.005 --     5 C    0.981
    31   1 H    0.998 --     5 C    0.981
    32   1 H    0.994 --     6 C    0.975
    33   1 H    0.998 --     6 C    0.984
    34   1 H    1.000 --     6 C    0.984
    35   1 H    0.944 --     7 N    0.929
    36   1 H    0.939 --     7 N    0.925
    37   1 H    0.938 --    12 N    0.883
    38   1 H    1.001 --    13 C    0.966
    39   1 H    1.007 --    13 C    0.960
    40   1 H    1.009 --    15 C    0.968
    41   1 H    0.997 --    16 C    0.969
    42   1 H    0.997 --    19 C    0.969
    43   1 H    0.997 --    20 C    0.971
    44   1 H    0.835 --    22 O    0.812
    45   1 H    0.996 --    24 C    0.985
    46   1 H    0.994 --    24 C    0.978
    47   1 H    0.995 --    24 C    0.976
 ---------------------------------------------------------------------------

           -------------------------------------------------
          | TOTAL ENERGY              -79.493349782633 Eh   |
          | GRADIENT NORM               0.000401332459 Eh/α |
          | HOMO-LUMO GAP               0.766740807809 eV   |
           -------------------------------------------------

 * finished run on 2023/06/20 at 15:34:54.173
