   * xtb version 6.5.1 (579679a) compiled by 'ehlert@majestix' on 2022-07-11
          program call               : /lustre/hpc/kemi/ree/PhD/git/ReactivityQM/dep/xtb-6.5.1/bin/xtb --gfn 1 /lustre/hpc/kemi/ree/PhD/git/ReactivityQM/calculations/R02methylcation/reac01prodE01/conf12/R02methylcation_reac01prodE01_conf12_gfn1.xyz --opt --vfukui --chrg -2 --uhf 0 --alpb DMSO

   ID    Z sym.   atoms
    1    6 C      1, 3, 5, 7-10, 12, 13, 15, 18, 19, 22, 24
    2    8 O      2, 4, 14, 20, 23, 25
    3    7 N      6, 11, 16, 17, 21
    4    1 H      26-42

      * Solvation model:               ALPB
        Solvent                        DMSO
        Solvent mass                       7.8130E+01 g/mol
          :  Hamiltonian                  GFN1-xTB          :
 * total energy  :   -83.6306689 Eh     change       -0.2081890E-10 Eh
 * total energy  :   -83.6437649 Eh     change       -0.1309598E-01 Eh
 * total energy  :   -83.6481848 Eh     change       -0.4419980E-02 Eh
 * total energy  :   -83.6490362 Eh     change       -0.8513806E-03 Eh
 * total energy  :   -83.6494402 Eh     change       -0.4039934E-03 Eh
 * total energy  :   -83.6496511 Eh     change       -0.2108503E-03 Eh
 * total energy  :   -83.6497821 Eh     change       -0.1310227E-03 Eh
 * total energy  :   -83.6498426 Eh     change       -0.6049240E-04 Eh
 * total energy  :   -83.6498734 Eh     change       -0.3086239E-04 Eh
 * total energy  :   -83.6498983 Eh     change       -0.2481097E-04 Eh
 * total energy  :   -83.6499801 Eh     change       -0.1155328E-04 Eh
 * total energy  :   -83.6500190 Eh     change       -0.3889637E-04 Eh
 * total energy  :   -83.6500338 Eh     change       -0.1486078E-04 Eh
 * total energy  :   -83.6500465 Eh     change       -0.1269926E-04 Eh
 * total energy  :   -83.6500609 Eh     change       -0.1436385E-04 Eh
 * total energy  :   -83.6500678 Eh     change       -0.6906594E-05 Eh
 * total energy  :   -83.6500754 Eh     change       -0.7576074E-05 Eh
 * total energy  :   -83.6500816 Eh     change       -0.6230674E-05 Eh
 * total energy  :   -83.6500862 Eh     change       -0.4545082E-05 Eh
   *** GEOMETRY OPTIMIZATION CONVERGED AFTER 25 ITERATIONS ***

 final structure:
================
42
 xtb: 6.5.1 (579679a)
C            6.25496719621298        2.13534432231277        0.51066033623575
O            5.06651052830143        1.84387283154910       -0.20515041932335
C            4.22115508720553        0.95413135187438        0.38802360041861
O            4.50816425201369        0.46696778696004        1.47827071246399
C            3.01829343520095        0.65842794215141       -0.36803579405573
N            2.18961006977788       -0.25000640844370        0.27630933181717
C            1.08667899506437       -0.61269146749082       -0.26576941404356
C            0.18454894926950       -1.66981254435193        0.34457026334352
C            0.47006602745055       -1.81117487732002        1.84749652677316
C            0.54028619459259       -3.00025948931837       -0.35171927765210
N           -1.20739056885848       -1.37184960161691       -0.01362620598539
C           -1.96993008427987       -0.39786358168941        0.90836050699124
C           -1.32790255593678        1.01763558071313        0.75985560136596
O           -2.12858384739172       -0.81402681544426        2.13130173820861
C           -3.34849039089471       -0.32486654908445        0.15796667042650
N           -4.01060582203385       -1.30970523095419       -0.36537816568358
N           -5.22699434625057       -0.80325303079873       -0.78489488077571
C           -5.21886968714652        0.45046765182358       -0.48044596058674
C           -6.29136397996564        1.44699170325287       -0.72089300328176
O           -4.06887686090004        0.82206291136866        0.11687178260333
N            0.69172530635783       -0.13659734103403       -1.49882579276563
C            1.40530897630022        0.75262282129669       -2.24505615251505
O            0.97813954388605        1.12605492867621       -3.34045909684781
C            2.71070261808196        1.21515629089800       -1.63664880747195
O            3.40940074037602        2.03007615341145       -2.27587846087547
H            6.02600311599149        2.53322317245710        1.50480655175902
H            6.80194968838644        2.88134304319216       -0.06481155703544
H            6.87079828691880        1.23736126976544        0.62686717400414
H            0.35555641913573       -0.85921242016995        2.36394242576916
H            1.49591460710948       -2.15796238756035        1.98297481329308
H           -0.21380099162320       -2.53221390747767        2.29209227303585
H           -0.04025915028886       -3.81646924557226        0.07626641786019
H            0.32067833286407       -2.93620991460726       -1.41732092771405
H            1.60015503490578       -3.22076924464618       -0.22471966364378
H           -1.73141499418036       -2.24395326242707        0.06683442952765
H           -0.33328090809764        1.02131169174633        1.20234464205955
H           -1.95027235519256        1.72875844231743        1.30104437475733
H           -1.26578238793868        1.31557861530608       -0.28585692298822
H           -6.60388504229300        1.89987316816599        0.21963818834728
H           -7.14375057521496        0.95825640175336       -1.18599849425612
H           -5.93072122701731        2.24085804600014       -1.37503677075039
H           -0.19444062990125       -0.46747880698295       -1.86073459281240

          :  Hamiltonian                  GFN1-xTB          :
         :: total energy             -83.650086150412 Eh    ::
         :: gradient norm              0.000619648768 Eh/a0 ::
         :: HOMO-LUMO gap              2.190680815111 eV    ::
         :: SCC energy               -84.382942151843 Eh    ::
         :: -> Gsolv                  -0.267069065029 Eh    ::
         :: repulsion energy           0.759761621270 Eh    ::

    * Orbital Energies and Occupations

         #    Occupation            Energy/Eh            Energy/eV
      -------------------------------------------------------------
         1        2.0000           -0.8157498             -22.1977
       ...           ...                  ...                  ...
        56        2.0000           -0.4424258             -12.0390
        57        2.0000           -0.4390757             -11.9479
        58        2.0000           -0.4327003             -11.7744
        59        2.0000           -0.4255579             -11.5800
        60        2.0000           -0.4218295             -11.4786
        61        2.0000           -0.4104586             -11.1691
        62        2.0000           -0.4045848             -11.0093
        63        2.0000           -0.3985472             -10.8450
        64        2.0000           -0.3738648             -10.1734
        65        2.0000           -0.3641308              -9.9085
        66        2.0000           -0.3509557              -9.5500
        67        2.0000           -0.3403038              -9.2601
        68        2.0000           -0.3382286              -9.2037 (HOMO)
        69                         -0.2577225              -7.0130 (LUMO)
        70                         -0.2229821              -6.0677
        71                         -0.2180191              -5.9326
        72                         -0.2064610              -5.6181
        73                         -0.1846842              -5.0255
        74                         -0.1278236              -3.4783
        75                         -0.1177310              -3.2036
        76                         -0.1019176              -2.7733
        77                         -0.0949057              -2.5825
        78                         -0.0833900              -2.2692
        79                         -0.0798905              -2.1739
       ...                                ...                  ...
       134                          0.7582511              20.6331
      -------------------------------------------------------------
                  HL-Gap            0.0805060 Eh            2.1907 eV

Wiberg/Mayer (AO) data.
largest (>0.10) Wiberg bond orders for each atom

     #   Z sym  total        # sym  WBO       # sym  WBO       # sym  WBO
 ---------------------------------------------------------------------------
     1   6 C    3.904 --    27 H    0.987    28 H    0.981    26 H    0.980
                             2 O    0.931
     2   8 O    2.151 --     3 C    1.034     1 C    0.931     4 O    0.106
     3   6 C    3.848 --     4 O    1.565     5 C    1.129     2 O    1.034
     4   8 O    1.843 --     3 C    1.565     2 O    0.106
     5   6 C    3.919 --    24 C    1.280     6 N    1.142     3 C    1.129
                            25 O    0.130
     6   7 N    3.018 --     7 C    1.634     5 C    1.142
     7   6 C    3.925 --     6 N    1.634    21 N    1.093     8 C    0.976
     8   6 C    3.969 --     9 C    0.989    11 N    0.978    10 C    0.977
                             7 C    0.976
     9   6 C    3.996 --     8 C    0.989    30 H    0.985    31 H    0.985
                            29 H    0.980
    10   6 C    3.994 --    34 H    0.987    33 H    0.986    32 H    0.985
                             8 C    0.977
    11   7 N    2.992 --     8 C    0.978    35 H    0.946    12 C    0.847
    12   6 C    3.937 --    14 O    1.211    13 C    0.946    15 C    0.878
                            11 N    0.847
    13   6 C    3.992 --    38 H    0.989    37 H    0.986    36 H    0.983
                            12 C    0.946
    14   8 O    1.542 --    12 C    1.211
    15   6 C    3.801 --    16 N    1.654    20 O    1.045    12 C    0.878
    16   7 N    2.970 --    15 C    1.654    17 N    1.148
    17   7 N    2.976 --    18 C    1.657    16 N    1.148
    18   6 C    3.888 --    17 N    1.657    20 O    1.062    19 C    1.024
    19   6 C    3.993 --    18 C    1.024    40 H    0.985    39 H    0.971
                            41 H    0.970
    20   8 O    2.292 --    18 C    1.062    15 C    1.045
    21   7 N    3.444 --    22 C    1.184     7 C    1.093    42 H    0.892
                            23 O    0.136
    22   6 C    3.884 --    23 O    1.554    21 N    1.184    24 C    0.972
    23   8 O    1.835 --    22 C    1.554    21 N    0.136
    24   6 C    3.944 --    25 O    1.502     5 C    1.280    22 C    0.972
    25   8 O    1.807 --    24 C    1.502     5 C    0.130
    26   1 H    1.016 --     1 C    0.980
    27   1 H    1.017 --     1 C    0.987
    28   1 H    1.015 --     1 C    0.981
    29   1 H    1.030 --     9 C    0.980
    30   1 H    1.016 --     9 C    0.985
    31   1 H    1.026 --     9 C    0.985
    32   1 H    1.004 --    10 C    0.985
    33   1 H    1.008 --    10 C    0.986
    34   1 H    1.009 --    10 C    0.987
    35   1 H    0.989 --    11 N    0.946
    36   1 H    1.017 --    13 C    0.983
    37   1 H    1.019 --    13 C    0.986
    38   1 H    1.014 --    13 C    0.989
    39   1 H    1.002 --    19 C    0.971
    40   1 H    1.003 --    19 C    0.985
    41   1 H    1.002 --    19 C    0.970
    42   1 H    0.977 --    21 N    0.892
 ---------------------------------------------------------------------------

           -------------------------------------------------
          | TOTAL ENERGY              -83.650086150412 Eh   |
          | GRADIENT NORM               0.000619648768 Eh/α |
          | HOMO-LUMO GAP               2.190680815111 eV   |
           -------------------------------------------------

 * finished run on 2023/06/21 at 17:03:59.490
