   * xtb version 6.5.1 (579679a) compiled by 'ehlert@majestix' on 2022-07-11
          program call               : /lustre/hpc/kemi/ree/PhD/git/ReactivityQM/dep/xtb-6.5.1/bin/xtb --gfn 1 /lustre/hpc/kemi/ree/PhD/git/ReactivityQM/calculations/R02/reac01prodN05/conf08/R02_reac01prodN05_conf08_gfn1.xyz --opt --vfukui --chrg 1 --uhf 0 --alpb DMSO

   ID    Z sym.   atoms
    1    6 C      1, 3, 5, 6, 8, 11-14, 16, 18, 21, 22, 25
    2    8 O      2, 4, 7, 9, 17, 23
    3    7 N      10, 15, 19, 20, 24
    4    1 H      26-43

      * Solvation model:               ALPB
        Solvent                        DMSO
        Solvent mass                       7.8130E+01 g/mol
          :  Hamiltonian                  GFN1-xTB          :
 * total energy  :   -83.1361483 Eh     change       -0.2144418E-10 Eh
 * total energy  :   -83.1545346 Eh     change       -0.1838628E-01 Eh
 * total energy  :   -83.1611405 Eh     change       -0.6605895E-02 Eh
 * total energy  :   -83.1624792 Eh     change       -0.1338684E-02 Eh
 * total energy  :   -83.1631630 Eh     change       -0.6838637E-03 Eh
 * total energy  :   -83.1635731 Eh     change       -0.4101072E-03 Eh
 * total energy  :   -83.1640082 Eh     change       -0.4350562E-03 Eh
 * total energy  :   -83.1643683 Eh     change       -0.3600773E-03 Eh
 * total energy  :   -83.1646648 Eh     change       -0.2964956E-03 Eh
 * total energy  :   -83.1649164 Eh     change       -0.2516654E-03 Eh
 * total energy  :   -83.1681706 Eh     change       -0.2339437E-04 Eh
 * total energy  :   -83.1681842 Eh     change       -0.1365524E-04 Eh
 * total energy  :   -83.1681957 Eh     change       -0.1143499E-04 Eh
 * total energy  :   -83.1682013 Eh     change       -0.5627186E-05 Eh
 * total energy  :   -83.1682093 Eh     change       -0.8028394E-05 Eh
 * total energy  :   -83.1682191 Eh     change       -0.9800828E-05 Eh
 * total energy  :   -83.1682310 Eh     change       -0.1187011E-04 Eh
 * total energy  :   -83.1682369 Eh     change       -0.5890774E-05 Eh
 * total energy  :   -83.1682408 Eh     change       -0.3945866E-05 Eh
   *** GEOMETRY OPTIMIZATION CONVERGED AFTER 39 ITERATIONS ***

 final structure:
================
43
 xtb: 6.5.1 (579679a)
C           -2.10036099220638        4.18879777282513       -0.03001110245712
O           -1.89685782743321        2.79823977621525        0.28959830513104
C           -2.92646191044044        1.98256762612695        0.16823106594012
O           -4.02561310768723        2.29116843643302       -0.19795761793238
C           -2.57646233036978        0.56657478555856        0.59998569048549
C           -3.34778604365892       -0.06221652341543        1.52820850436346
O           -4.40262968565877        0.51625085525121        2.08530666530480
C           -3.01272962895904       -1.41131419081728        1.97411649262088
O           -3.64784267706455       -2.05256021260512        2.77532818548324
N           -1.85199480795193       -1.90448685103102        1.38387655960374
C           -1.09264187314337       -1.28363192676401        0.46899743920611
C            0.10475046201715       -2.06064532643034       -0.06428627900291
C           -0.33335910642443       -2.73516911565783       -1.37691901204592
C            0.58877598345175       -3.12785282798947        0.92946287051179
N            1.20327954321290       -1.11492348115468       -0.25611390077972
C            2.35494485228609       -1.45588652791851       -0.91225214089346
O            2.50832447166966       -2.45009199051266       -1.59004719386136
C            3.41228114136828       -0.44012047513505       -0.72963431896669
N            4.61838205673189       -0.45866282157022       -1.20410472981572
N            5.23888729400714        0.66016689337868       -0.74576121266031
C            4.37568831588418        1.29751729434259       -0.01679694232866
C            4.56939410838818        2.57107097264681        0.70827664552263
O            3.19604417775969        0.65480466349068        0.03382926672810
N           -1.47051005256607       -0.08416724522353        0.04945412806533
C           -0.77879118167744        0.63170426958462       -1.03302675630507
H           -1.11848361578426        4.59635270092168       -0.25907971128194
H           -2.76775173780068        4.27900111219128       -0.88899499794097
H           -2.53043456811071        4.69527292891499        0.83590453691420
H           -4.81493061411420       -0.07319473458818        2.74180925331953
H           -1.58628277989009       -2.82466330022997        1.71109763071809
H           -0.46710676050834       -2.00649278665394       -2.17264837958587
H           -1.27503350868758       -3.25465615540088       -1.20803447291418
H            0.41886042404910       -3.45917880002726       -1.68363715912742
H            0.76694364345485       -2.68766491494202        1.90824366143159
H            1.52521181811450       -3.53764728120075        0.55258268512339
H           -0.12595926745000       -3.94436228203841        1.01283303855043
H            1.28831004743489       -0.39928656422356        0.44791080155889
H            4.25064221511105        2.45908718032086        1.74372958903153
H            5.61789515668005        2.85905293758837        0.67124603597432
H            3.96280458164624        3.35345739694569        0.25237636599394
H           -0.24037576981881       -0.07042116857762       -1.65679191543381
H           -0.08660488799415        1.34775931638202       -0.59496854273403
H           -1.52441555786809        1.15044958499483       -1.63093503151616

          :  Hamiltonian                  GFN1-xTB          :
         :: total energy             -83.168240822889 Eh    ::
         :: gradient norm              0.000472910268 Eh/a0 ::
         :: HOMO-LUMO gap              2.748372175846 eV    ::
         :: SCC energy               -83.972117626348 Eh    ::
         :: -> Gsolv                  -0.127136549916 Eh    ::
         :: repulsion energy           0.831548304684 Eh    ::

    * Orbital Energies and Occupations

         #    Occupation            Energy/Eh            Energy/eV
      -------------------------------------------------------------
         1        2.0000           -0.8963080             -24.3898
       ...           ...                  ...                  ...
        55        2.0000           -0.5346800             -14.5494
        56        2.0000           -0.5333041             -14.5119
        57        2.0000           -0.5280180             -14.3681
        58        2.0000           -0.5245233             -14.2730
        59        2.0000           -0.5189408             -14.1211
        60        2.0000           -0.5149590             -14.0127
        61        2.0000           -0.5011012             -13.6357
        62        2.0000           -0.4908586             -13.3569
        63        2.0000           -0.4837606             -13.1638
        64        2.0000           -0.4811990             -13.0941
        65        2.0000           -0.4758827             -12.9494
        66        2.0000           -0.4629217             -12.5967
        67        2.0000           -0.4614133             -12.5557 (HOMO)
        68                         -0.3604125              -9.8073 (LUMO)
        69                         -0.3573708              -9.7246
        70                         -0.3269324              -8.8963
        71                         -0.2914175              -7.9299
        72                         -0.2651182              -7.2142
        73                         -0.2237879              -6.0896
        74                         -0.2133944              -5.8068
        75                         -0.1674462              -4.5564
        76                         -0.1597158              -4.3461
        77                         -0.1515611              -4.1242
        78                         -0.1472079              -4.0057
       ...                                ...                  ...
       136                          0.7250534              19.7297
      -------------------------------------------------------------
                  HL-Gap            0.1010008 Eh            2.7484 eV

Wiberg/Mayer (AO) data.
largest (>0.10) Wiberg bond orders for each atom

     #   Z sym  total        # sym  WBO       # sym  WBO       # sym  WBO
 ---------------------------------------------------------------------------
     1   6 C    3.841 --    26 H    0.983    27 H    0.980    28 H    0.977
                             2 O    0.867
     2   8 O    2.225 --     3 C    1.147     1 C    0.867     4 O    0.149
     3   6 C    3.863 --     4 O    1.708     2 O    1.147     5 C    0.940
     4   8 O    1.972 --     3 C    1.708     2 O    0.149
     5   6 C    3.921 --     6 C    1.544    24 N    1.084     3 C    0.940
     6   6 C    3.928 --     5 C    1.544     7 O    1.139     8 C    1.042
     7   8 O    2.108 --     6 C    1.139    29 H    0.792
     8   6 C    3.901 --     9 O    1.661    10 N    1.069     6 C    1.042
     9   8 O    1.971 --     8 C    1.661    10 N    0.117
    10   7 N    3.492 --    11 C    1.282     8 C    1.069    30 H    0.860
                             9 O    0.117
    11   6 C    3.896 --    24 N    1.396    10 N    1.282    12 C    0.977
    12   6 C    3.929 --    14 C    0.984    11 C    0.977    13 C    0.964
                            15 N    0.941
    13   6 C    3.977 --    32 H    0.983    31 H    0.977    33 H    0.970
                            12 C    0.964
    14   6 C    3.982 --    12 C    0.984    34 H    0.982    36 H    0.977
                            35 H    0.974
    15   7 N    3.294 --    16 C    1.188    12 C    0.941    37 H    0.891
                            17 O    0.160
    16   6 C    3.907 --    17 O    1.625    15 N    1.188    18 C    1.004
    17   8 O    1.935 --    16 C    1.625    15 N    0.160
    18   6 C    3.876 --    19 N    1.616    23 O    1.044    16 C    1.004
    19   7 N    3.007 --    18 C    1.616    20 N    1.207
    20   7 N    2.984 --    21 C    1.603    19 N    1.207
    21   6 C    3.865 --    20 N    1.603    23 O    1.071    22 C    1.033
    22   6 C    3.985 --    21 C    1.033    39 H    0.981    38 H    0.965
                            40 H    0.958
    23   8 O    2.314 --    21 C    1.071    18 C    1.044
    24   7 N    3.583 --    11 C    1.396     5 C    1.084    25 C    0.905
    25   6 C    3.889 --    43 H    0.974    41 H    0.972    42 H    0.967
                            24 N    0.905
    26   1 H    1.005 --     1 C    0.983
    27   1 H    1.003 --     1 C    0.980
    28   1 H    1.001 --     1 C    0.977
    29   1 H    0.820 --     7 O    0.792
    30   1 H    0.913 --    10 N    0.860
    31   1 H    0.998 --    13 C    0.977
    32   1 H    0.997 --    13 C    0.983
    33   1 H    1.007 --    13 C    0.970
    34   1 H    0.994 --    14 C    0.982
    35   1 H    0.997 --    14 C    0.974
    36   1 H    0.994 --    14 C    0.977
    37   1 H    0.933 --    15 N    0.891
    38   1 H    0.996 --    22 C    0.965
    39   1 H    0.997 --    22 C    0.981
    40   1 H    0.996 --    22 C    0.958
    41   1 H    1.006 --    25 C    0.972
    42   1 H    1.001 --    25 C    0.967
    43   1 H    0.993 --    25 C    0.974
 ---------------------------------------------------------------------------

           -------------------------------------------------
          | TOTAL ENERGY              -83.168240822889 Eh   |
          | GRADIENT NORM               0.000472910268 Eh/α |
          | HOMO-LUMO GAP               2.748372175846 eV   |
           -------------------------------------------------

 * finished run on 2023/06/20 at 15:23:45.167
