   * xtb version 6.5.1 (579679a) compiled by 'ehlert@majestix' on 2022-07-11
          program call               : /lustre/hpc/kemi/ree/PhD/git/ReactivityQM/dep/xtb-6.5.1/bin/xtb --gfn 1 /lustre/hpc/kemi/ree/PhD/git/ReactivityQM/calculations/R01/reac02prodN03/conf13/R01_reac02prodN03_conf13_gfn1.xyz --opt --vfukui --chrg 1 --uhf 0 --alpb DMSO

   ID    Z sym.   atoms
    1    6 C      1, 3, 5, 7-10, 13, 15, 17
    2    8 O      2, 4, 14, 16
    3    7 N      6, 11, 12
    4    1 H      18-33

      * Solvation model:               ALPB
        Solvent                        DMSO
        Solvent mass                       7.8130E+01 g/mol
          :  Hamiltonian                  GFN1-xTB          :
 * total energy  :   -57.8076962 Eh     change       -0.2941647E-11 Eh
 * total energy  :   -57.8216963 Eh     change       -0.1400013E-01 Eh
 * total energy  :   -57.8278924 Eh     change       -0.6196100E-02 Eh
 * total energy  :   -57.8301005 Eh     change       -0.2208101E-02 Eh
 * total energy  :   -57.8329517 Eh     change       -0.2851145E-02 Eh
 * total energy  :   -57.8344417 Eh     change       -0.1490022E-02 Eh
 * total energy  :   -57.8366081 Eh     change       -0.2166436E-02 Eh
 * total energy  :   -57.8402228 Eh     change       -0.3614684E-02 Eh
 * total energy  :   -57.8435898 Eh     change       -0.3367020E-02 Eh
 * total energy  :   -57.8444451 Eh     change       -0.8552539E-03 Eh
 * total energy  :   -57.8535480 Eh     change       -0.9751802E-04 Eh
 * total energy  :   -57.8536911 Eh     change       -0.1431294E-03 Eh
 * total energy  :   -57.8537471 Eh     change       -0.5595552E-04 Eh
 * total energy  :   -57.8538037 Eh     change       -0.5663143E-04 Eh
 * total energy  :   -57.8538417 Eh     change       -0.3799016E-04 Eh
 * total energy  :   -57.8538694 Eh     change       -0.2769681E-04 Eh
 * total energy  :   -57.8538811 Eh     change       -0.1173888E-04 Eh
 * total energy  :   -57.8538886 Eh     change       -0.7429998E-05 Eh
 * total energy  :   -57.8538914 Eh     change       -0.2867652E-05 Eh
   *** GEOMETRY OPTIMIZATION CONVERGED AFTER 30 ITERATIONS ***

 final structure:
================
33
 xtb: 6.5.1 (579679a)
C            3.30920743606530        2.84391615968362       -0.06698655206700
O            2.15547978072101        1.98398189430506       -0.01224847680956
C            2.29440011926697        0.71661090607598       -0.13973196894200
O            3.48713858249604        0.25284704762189       -0.31400010357903
C            1.10625406251806       -0.10401077914240       -0.08548295257413
N           -0.06082119465106        0.59720894276136        0.08810606295230
C           -1.17162622294518       -0.06201667705844        0.14348876955930
C           -2.49734794686942        0.64726478713943        0.29523185527334
C           -2.89546690237024        1.18612064208291       -1.08647886527311
C           -2.36550614476522        1.79212247690815        1.30830945144116
N           -3.47998525892964       -0.34116954695495        0.72054146817771
N           -1.21610056026649       -1.41279437882836        0.01428131697195
C           -0.13466566856761       -2.23569176309420       -0.16188296534869
O           -0.26093953859857       -3.44042389298418       -0.27282052577140
C            1.13655121061633       -1.48670028172184       -0.20261510521252
O            2.31149210569268       -2.08987417602557       -0.35195352040483
C            2.44863477248193       -3.52053538758621       -0.46774776305175
H            4.01785685778751        2.55066846115531        0.70804959990901
H            3.77699305029171        2.75770353522420       -1.04826743533582
H            2.93803921968762        3.85207965845657        0.10206293391569
H           -3.02572620931192        0.35977338132147       -1.78397177235382
H           -3.83155914787612        1.73660348803827       -1.00821904342149
H           -2.12061328008350        1.85242436268099       -1.46352602562716
H           -2.08391079231020        1.39744883680598        2.28328537226542
H           -3.31734517683214        2.31224913868072        1.39813996570810
H           -1.60059480670071        2.49348190928208        0.97686197725502
H           -4.41244151370919       -0.00198731487569        0.52948140029243
H           -3.40274189379184       -0.49032103650053        1.71736800955473
H           -2.14123085953112       -1.83648885426245        0.07810358772277
H            3.53405509427817       -0.72435977132786       -0.40735631828315
H            2.04503641106575       -4.01105768182515        0.41801115726191
H            1.93826857149771       -3.87511903635139       -1.36349934499764
H            3.51921684364385       -3.69995504968514       -0.54453318920866

          :  Hamiltonian                  GFN1-xTB          :
         :: total energy             -57.853891446734 Eh    ::
         :: gradient norm              0.000821714516 Eh/a0 ::
         :: HOMO-LUMO gap              1.278470007873 eV    ::
         :: SCC energy               -58.426872713338 Eh    ::
         :: -> Gsolv                  -0.090931072734 Eh    ::
         :: repulsion energy           0.591131476995 Eh    ::

    * Orbital Energies and Occupations

         #    Occupation            Energy/Eh            Energy/eV
      -------------------------------------------------------------
         1        2.0000           -0.9107349             -24.7824
       ...           ...                  ...                  ...
        35        2.0000           -0.5481486             -14.9159
        36        2.0000           -0.5430485             -14.7771
        37        2.0000           -0.5403469             -14.7036
        38        2.0000           -0.5268763             -14.3370
        39        2.0000           -0.5224160             -14.2157
        40        2.0000           -0.5150908             -14.0163
        41        2.0000           -0.5125174             -13.9463
        42        2.0000           -0.5091225             -13.8539
        43        2.0000           -0.4981446             -13.5552
        44        2.0000           -0.4811309             -13.0922
        45        2.0000           -0.4788777             -13.0309
        46        2.0000           -0.4568439             -12.4314
        47        2.0000           -0.4293385             -11.6829 (HOMO)
        48                         -0.3823556             -10.4044 (LUMO)
        49                         -0.3086723              -8.3994
        50                         -0.2877922              -7.8312
        51                         -0.1966207              -5.3503
        52                         -0.1659022              -4.5144
        53                         -0.1473771              -4.0103
        54                         -0.1357024              -3.6926
        55                         -0.1331732              -3.6238
        56                         -0.1296947              -3.5292
        57                         -0.1119805              -3.0471
        58                         -0.1017831              -2.7697
       ...                                ...                  ...
       100                          0.6855625              18.6551
      -------------------------------------------------------------
                  HL-Gap            0.0469829 Eh            1.2785 eV

Wiberg/Mayer (AO) data.
largest (>0.10) Wiberg bond orders for each atom

     #   Z sym  total        # sym  WBO       # sym  WBO       # sym  WBO
 ---------------------------------------------------------------------------
     1   6 C    3.822 --    20 H    0.982    18 H    0.973    19 H    0.972
                             2 O    0.853
     2   8 O    2.317 --     3 C    1.283     1 C    0.853
     3   6 C    3.811 --     2 O    1.283     4 O    1.248     5 C    1.122
     4   8 O    2.194 --     3 C    1.248    30 H    0.745
     5   6 C    3.959 --    15 C    1.409     6 N    1.172     3 C    1.122
     6   7 N    3.014 --     7 C    1.563     5 C    1.172
     7   6 C    3.911 --     6 N    1.563    12 N    1.186     8 C    0.981
     8   6 C    3.964 --    11 N    0.991    10 C    0.982     7 C    0.981
                             9 C    0.974
     9   6 C    3.990 --    23 H    0.985    21 H    0.985    22 H    0.982
                             8 C    0.974
    10   6 C    3.992 --    24 H    0.985    25 H    0.984    26 H    0.983
                             8 C    0.982
    11   7 N    2.984 --     8 C    0.991    28 H    0.937    27 H    0.932
    12   7 N    3.489 --     7 C    1.186    13 C    1.151    29 H    0.854
                            14 O    0.141
    13   6 C    3.917 --    14 O    1.602    12 N    1.151    15 C    1.038
    14   8 O    1.931 --    13 C    1.602    12 N    0.141
    15   6 C    3.905 --     5 C    1.409    16 O    1.131    13 C    1.038
    16   8 O    2.246 --    15 C    1.131    17 C    0.857
    17   6 C    3.831 --    33 H    0.983    31 H    0.975    32 H    0.974
                            16 O    0.857
    18   1 H    0.997 --     1 C    0.973
    19   1 H    0.997 --     1 C    0.972
    20   1 H    1.002 --     1 C    0.982
    21   1 H    1.001 --     9 C    0.985
    22   1 H    0.998 --     9 C    0.982
    23   1 H    1.003 --     9 C    0.985
    24   1 H    1.002 --    10 C    0.985
    25   1 H    1.001 --    10 C    0.984
    26   1 H    1.007 --    10 C    0.983
    27   1 H    0.946 --    11 N    0.932
    28   1 H    0.950 --    11 N    0.937
    29   1 H    0.939 --    12 N    0.854
    30   1 H    0.808 --     4 O    0.745
    31   1 H    1.008 --    17 C    0.975
    32   1 H    1.008 --    17 C    0.974
    33   1 H    1.006 --    17 C    0.983
 ---------------------------------------------------------------------------

           -------------------------------------------------
          | TOTAL ENERGY              -57.853891446734 Eh   |
          | GRADIENT NORM               0.000821714516 Eh/α |
          | HOMO-LUMO GAP               1.278470007873 eV   |
           -------------------------------------------------

 * finished run on 2023/06/20 at 15:05:10.116
