   * xtb version 6.5.1 (579679a) compiled by 'ehlert@majestix' on 2022-07-11
          program call               : /lustre/hpc/kemi/ree/PhD/git/ReactivityQM/dep/xtb-6.5.1/bin/xtb --gfn 1 /lustre/hpc/kemi/ree/PhD/git/ReactivityQM/calculations/R02oxygendeprot/reac01prodN12/conf12/R02oxygendeprot_reac01prodN12_conf12_gfn1.xyz --opt --vfukui --chrg 0 --uhf 0 --alpb DMSO

   ID    Z sym.   atoms
    1    6 C      1, 3, 5, 7-10, 12, 14, 15, 18, 19, 22, 24
    2    8 O      2, 4, 13, 20, 23, 25
    3    7 N      6, 11, 16, 17, 21
    4    1 H      26-42

      * Solvation model:               ALPB
        Solvent                        DMSO
        Solvent mass                       7.8130E+01 g/mol
          :  Hamiltonian                  GFN1-xTB          :
 * total energy  :   -82.9294087 Eh     change       -0.2891056E-09 Eh
 * total energy  :   -82.9399009 Eh     change       -0.1049218E-01 Eh
 * total energy  :   -82.9437273 Eh     change       -0.3826442E-02 Eh
 * total energy  :   -82.9444409 Eh     change       -0.7135499E-03 Eh
 * total energy  :   -82.9450135 Eh     change       -0.5726650E-03 Eh
 * total energy  :   -82.9453341 Eh     change       -0.3205178E-03 Eh
 * total energy  :   -82.9455382 Eh     change       -0.2040957E-03 Eh
 * total energy  :   -82.9456451 Eh     change       -0.1069107E-03 Eh
 * total energy  :   -82.9457016 Eh     change       -0.5654135E-04 Eh
 * total energy  :   -82.9457416 Eh     change       -0.4003837E-04 Eh
 * total energy  :   -82.9465093 Eh     change       -0.8508847E-05 Eh
 * total energy  :   -82.9465170 Eh     change       -0.7637341E-05 Eh
 * total energy  :   -82.9465231 Eh     change       -0.6083652E-05 Eh
 * total energy  :   -82.9465296 Eh     change       -0.6579317E-05 Eh
 * total energy  :   -82.9465367 Eh     change       -0.7032586E-05 Eh
 * total energy  :   -82.9465447 Eh     change       -0.8065531E-05 Eh
 * total energy  :   -82.9465549 Eh     change       -0.1013570E-04 Eh
 * total energy  :   -82.9465662 Eh     change       -0.1129442E-04 Eh
 * total energy  :   -82.9465697 Eh     change       -0.3504814E-05 Eh
   *** GEOMETRY OPTIMIZATION CONVERGED AFTER 44 ITERATIONS ***

 final structure:
================
42
 xtb: 6.5.1 (579679a)
C           -5.12740921851720        0.30372901211878        3.01064722269598
O           -4.18377452226040        0.22610304738219        1.94321332071227
C           -4.40379613259728        1.04871112729787        0.89870686188717
O           -5.34815334353220        1.80873937053788        0.86701799396249
C           -3.37531307041000        0.89896228961059       -0.15111113930159
N           -2.38307603476200        0.01323515618762        0.11955817887752
C           -1.43500198474068       -0.20318033015118       -0.73490235563876
C           -0.34824584291308       -1.20323705804919       -0.42115348680108
C           -0.39649406120081       -2.36675867117011       -1.41961342505767
C           -0.48992558238824       -1.69538561673947        1.01971050717487
N            0.93516755631751       -0.48041137287768       -0.57903800913016
C            2.11515576161890       -1.05164935692092       -0.37548201127787
O            2.34620842423115       -2.18894065130917       -0.04605411640765
C            3.33244997199472       -0.06589411264149       -0.66220912426936
C            4.12272432891552       -0.65718794798846       -1.82836541272925
N            2.87644865089627        1.25787991942655       -0.88361323397477
N            3.31441885956863        2.01697737351365        0.07091763035367
C            4.06032908246663        1.26827745019296        0.89098190450255
C            4.75364104696107        1.73868327015276        2.09811674439482
O            4.12168430397772        0.01879495822106        0.50833322659176
N           -1.37684826577736        0.44741848257588       -1.93516119066821
C           -2.31105546356241        1.37760938602271       -2.35439865352730
O           -2.19621682548214        1.90741297977659       -3.44419550712741
C           -3.43059619669106        1.65415062689880       -1.37089855366741
O           -4.29449030341715        2.48162323757390       -1.66156002356407
H           -6.13012247130172        0.05596319948023        2.65118067223549
H           -5.13733549866382        1.31086773328910        3.43652618522381
H           -4.81045272730198       -0.41686527029069        3.76206520030959
H            0.35612211800521       -3.11018937342793       -1.16520471490697
H           -0.20749842102879       -2.00422030778858       -2.42801463076292
H           -1.38043859342356       -2.83201738756061       -1.38594159814618
H            0.28425376880182       -2.42461398581953        1.24711397013411
H           -0.40980557869464       -0.85651189158262        1.70913101362830
H           -1.46692741001124       -2.16030219543845        1.14279722200454
H            0.91581968096561        0.49190784798803       -0.85406518248840
H            5.01010691002206       -0.05268482831867       -2.00019622449721
H            3.49927436681877       -0.66031409515480       -2.71852363997131
H            4.41079482327023       -1.67522893806629       -1.57359377185297
H            4.46757711979163        2.76276856106793        2.32346624485419
H            4.52100145264614        1.08430990383493        2.93849797383937
H            5.83226570341173        1.68860924864977        1.93672292728132
H           -0.63246638200553        0.24286020950125       -2.58140599489335

          :  Hamiltonian                  GFN1-xTB          :
         :: total energy             -82.946569665472 Eh    ::
         :: gradient norm              0.000342072553 Eh/a0 ::
         :: HOMO-LUMO gap              0.093728780927 eV    ::
         :: SCC energy               -83.717671619835 Eh    ::
         :: -> Gsolv                  -0.078375125054 Eh    ::
         :: repulsion energy           0.797306610280 Eh    ::

    * Orbital Energies and Occupations

         #    Occupation            Energy/Eh            Energy/eV
      -------------------------------------------------------------
         1        2.0000           -0.8893965             -24.2017
       ...           ...                  ...                  ...
        55        2.0000           -0.5113904             -13.9156
        56        2.0000           -0.5096180             -13.8674
        57        2.0000           -0.5065383             -13.7836
        58        2.0000           -0.4965061             -13.5106
        59        2.0000           -0.4879618             -13.2781
        60        2.0000           -0.4876225             -13.2689
        61        2.0000           -0.4791462             -13.0382
        62        2.0000           -0.4756014             -12.9418
        63        2.0000           -0.4736660             -12.8891
        64        2.0000           -0.4689740             -12.7614
        65        2.0000           -0.4550904             -12.3836
        66        2.0000           -0.4152966             -11.3008
        67        1.7194           -0.4019053             -10.9364 (HOMO)
        68        0.2806           -0.3984609             -10.8427 (LUMO)
        69                         -0.3036801              -8.2636
        70                         -0.2917732              -7.9396
        71                         -0.2808028              -7.6410
        72                         -0.2785360              -7.5794
        73                         -0.2289328              -6.2296
        74                         -0.1590726              -4.3286
        75                         -0.1490647              -4.0563
        76                         -0.1426100              -3.8806
        77                         -0.1365463              -3.7156
        78                         -0.1333362              -3.6283
       ...                                ...                  ...
       134                          0.7542978              20.5255
      -------------------------------------------------------------
                  HL-Gap            0.0034445 Eh            0.0937 eV

Wiberg/Mayer (AO) data.
largest (>0.10) Wiberg bond orders for each atom

     #   Z sym  total        # sym  WBO       # sym  WBO       # sym  WBO
 ---------------------------------------------------------------------------
     1   6 C    3.880 --    28 H    0.986    27 H    0.980    26 H    0.979
                             2 O    0.908
     2   8 O    2.167 --     3 C    1.077     1 C    0.908     4 O    0.126
     3   6 C    3.841 --     4 O    1.638     2 O    1.077     5 C    1.043
     4   8 O    1.883 --     3 C    1.638     2 O    0.126
     5   6 C    3.739 --     6 N    1.259    24 C    1.185     3 C    1.043
     6   7 N    3.000 --     7 C    1.522     5 C    1.259
     7   6 C    3.835 --     6 N    1.522    21 N    1.155     8 C    0.984
     8   6 C    3.918 --    10 C    0.995     7 C    0.984     9 C    0.981
                            11 N    0.890
     9   6 C    3.983 --    31 H    0.984    30 H    0.983     8 C    0.981
                            29 H    0.979
    10   6 C    3.988 --     8 C    0.995    33 H    0.984    34 H    0.983
                            32 H    0.981
    11   7 N    3.359 --    12 C    1.327     8 C    0.890    35 H    0.881
                            13 O    0.178
    12   6 C    3.870 --    13 O    1.644    11 N    1.327    14 C    0.796
    13   8 O    1.989 --    12 C    1.644    11 N    0.178
    14   6 C    3.847 --    16 N    1.075    15 C    0.934    20 O    0.903
                            12 C    0.796
    15   6 C    3.938 --    37 H    0.981    36 H    0.979    38 H    0.978
                            14 C    0.934
    16   7 N    2.749 --    17 N    1.471    14 C    1.075
    17   7 N    2.955 --    16 N    1.471    18 C    1.333
    18   6 C    3.702 --    17 N    1.333    20 O    1.191    19 C    1.052
    19   6 C    3.974 --    18 C    1.052    39 H    0.979    40 H    0.950
                            41 H    0.937
    20   8 O    2.252 --    18 C    1.191    14 C    0.903
    21   7 N    3.421 --     7 C    1.155    22 C    1.116    42 H    0.887
                            23 O    0.119
    22   6 C    3.846 --    23 O    1.640    21 N    1.116    24 C    0.952
    23   8 O    1.872 --    22 C    1.640    21 N    0.119
    24   6 C    3.884 --    25 O    1.598     5 C    1.185    22 C    0.952
    25   8 O    1.797 --    24 C    1.598
    26   1 H    1.008 --     1 C    0.979
    27   1 H    1.008 --     1 C    0.980
    28   1 H    1.013 --     1 C    0.986
    29   1 H    1.003 --     9 C    0.979
    30   1 H    1.000 --     9 C    0.983
    31   1 H    0.999 --     9 C    0.984
    32   1 H    1.006 --    10 C    0.981
    33   1 H    1.006 --    10 C    0.984
    34   1 H    1.008 --    10 C    0.983
    35   1 H    0.948 --    11 N    0.881
    36   1 H    0.994 --    15 C    0.979
    37   1 H    0.995 --    15 C    0.981
    38   1 H    0.998 --    15 C    0.978
    39   1 H    0.994 --    19 C    0.979
    40   1 H    0.984 --    19 C    0.950
    41   1 H    0.979 --    19 C    0.937
    42   1 H    0.932 --    21 N    0.887
 ---------------------------------------------------------------------------

           -------------------------------------------------
          | TOTAL ENERGY              -82.946569665472 Eh   |
          | GRADIENT NORM               0.000342072553 Eh/α |
          | HOMO-LUMO GAP               0.093728780927 eV   |
           -------------------------------------------------

 * finished run on 2023/06/21 at 17:27:20.786
