   * xtb version 6.5.1 (579679a) compiled by 'ehlert@majestix' on 2022-07-11
          program call               : /lustre/hpc/kemi/ree/PhD/git/ReactivityQM/dep/xtb-6.5.1/bin/xtb --gfn 1 /lustre/hpc/kemi/ree/PhD/git/ReactivityQM/calculations/R02deprot/reac01prodN10/conf14/R02deprot_reac01prodN10_conf14_gfn1.xyz --opt --vfukui --chrg 0 --uhf 0 --alpb DMSO

   ID    Z sym.   atoms
    1    6 C      1, 3, 5, 6, 8-11, 13, 15, 18, 19, 22, 24
    2    8 O      2, 4, 14, 20, 23, 25
    3    7 N      7, 12, 16, 17, 21
    4    1 H      26-42

      * Solvation model:               ALPB
        Solvent                        DMSO
        Solvent mass                       7.8130E+01 g/mol
          :  Hamiltonian                  GFN1-xTB          :
 * total energy  :   -82.9332826 Eh     change       -0.3836931E-11 Eh
 * total energy  :   -82.9462085 Eh     change       -0.1292594E-01 Eh
 * total energy  :   -82.9511803 Eh     change       -0.4971800E-02 Eh
 * total energy  :   -82.9522007 Eh     change       -0.1020365E-02 Eh
 * total energy  :   -82.9529842 Eh     change       -0.7834783E-03 Eh
 * total energy  :   -82.9533952 Eh     change       -0.4110223E-03 Eh
 * total energy  :   -82.9537656 Eh     change       -0.3704150E-03 Eh
 * total energy  :   -82.9541027 Eh     change       -0.3371365E-03 Eh
 * total energy  :   -82.9543982 Eh     change       -0.2954231E-03 Eh
 * total energy  :   -82.9546499 Eh     change       -0.2517756E-03 Eh
 * total energy  :   -82.9564469 Eh     change       -0.8383829E-05 Eh
 * total energy  :   -82.9564582 Eh     change       -0.1123709E-04 Eh
 * total energy  :   -82.9564746 Eh     change       -0.1641736E-04 Eh
 * total energy  :   -82.9564870 Eh     change       -0.1241891E-04 Eh
 * total energy  :   -82.9564946 Eh     change       -0.7608136E-05 Eh
 * total energy  :   -82.9565034 Eh     change       -0.8820756E-05 Eh
 * total energy  :   -82.9565144 Eh     change       -0.1094910E-04 Eh
 * total energy  :   -82.9565211 Eh     change       -0.6686048E-05 Eh
 * total energy  :   -82.9565255 Eh     change       -0.4463352E-05 Eh
   *** GEOMETRY OPTIMIZATION CONVERGED AFTER 62 ITERATIONS ***

 final structure:
================
42
 xtb: 6.5.1 (579679a)
C           -5.15105379303412        2.15429673082681        0.35094240945751
O           -4.51678225965735        0.85999384346964        0.34708810494617
C           -3.23386752522866        0.81995532497175        0.11178035093260
O           -2.50737919811107        1.74276065462621       -0.09697440186600
C           -2.71867818592055       -0.69717014048128        0.13676701765176
C           -3.83999159511883       -1.63842617515872       -0.30380266934912
N           -1.62113145039054       -0.72315411553828       -0.76493186211869
C           -0.42485834001832       -0.50320946106726       -0.30949018468649
C            0.66560588805341       -0.42638610451866       -1.36779356575083
C            0.33514993724742        0.73272718636454       -2.31988745832533
C            0.72081416786311       -1.76154150304456       -2.12339122249471
N            1.93587734274287       -0.17729205992633       -0.69504781150658
C            3.10747449335185       -0.03887001357524       -1.33144365628038
O            3.27580477644000       -0.11249517646775       -2.54081946308453
C            4.23863465394988        0.23044572660665       -0.40196386224485
N            5.48448358936856        0.42339455023571       -0.70660601589662
N            6.14718425938148        0.64383498665229        0.46545205608846
C            5.26421464250071        0.57236913594354        1.41196660037165
C            5.47930629881817        0.74066201910943        2.86584443320602
O            4.03704720510457        0.31370641736706        0.93132957695972
N           -0.03593476827821       -0.34282581080761        0.97610298369040
C           -0.92241115991562       -0.50670469965163        1.96006944648692
O           -0.72233622242415       -0.48198590991763        3.17652703188266
C           -2.32748085545287       -0.77627409890679        1.53917827101491
O           -3.17138352737615       -0.95654517024152        2.49106122087770
H           -6.18303474833685        1.98112328532425        0.64512363583719
H           -5.10145528498354        2.58822472500624       -0.64863731580375
H           -4.64729141342209        2.80658399467643        1.06583318824201
H           -4.19866941507060       -1.34412932308154       -1.28712071977586
H           -3.44247318810741       -2.64989373455037       -0.35633870950842
H           -4.65877399648581       -1.60801033000438        0.41061639884626
H            0.35578471078197        1.67617344146010       -1.77565748006265
H           -0.66308693590094        0.58149172930742       -2.72762851029733
H            1.05480135405906        0.77159029057775       -3.13583655216124
H            1.44319705430012       -1.70750816917964       -2.93617970879337
H           -0.26430545906451       -1.97897592884508       -2.53249925705605
H            1.00688540587956       -2.56170933042061       -1.44232568320631
H            1.89485942664787       -0.10443946282320        0.31537366230924
H            6.51848975922990        0.99885690773521        3.05422779615413
H            5.23346978201830       -0.18357898911718        3.38879390024456
H            4.82991201289286        1.52684364383438        3.24968544709193
H           -2.67661543834416       -0.88390688677582        3.35217257797839

          :  Hamiltonian                  GFN1-xTB          :
         :: total energy             -82.956525528026 Eh    ::
         :: gradient norm              0.000602990019 Eh/a0 ::
         :: HOMO-LUMO gap              1.273945357726 eV    ::
         :: SCC energy               -83.728104827401 Eh    ::
         :: -> Gsolv                  -0.056532263092 Eh    ::
         :: repulsion energy           0.798011903070 Eh    ::

    * Orbital Energies and Occupations

         #    Occupation            Energy/Eh            Energy/eV
      -------------------------------------------------------------
         1        2.0000           -0.8760304             -23.8380
       ...           ...                  ...                  ...
        55        2.0000           -0.5013669             -13.6429
        56        2.0000           -0.4980435             -13.5525
        57        2.0000           -0.4959103             -13.4944
        58        2.0000           -0.4871309             -13.2555
        59        2.0000           -0.4860454             -13.2260
        60        2.0000           -0.4762695             -12.9600
        61        2.0000           -0.4606297             -12.5344
        62        2.0000           -0.4551474             -12.3852
        63        2.0000           -0.4519122             -12.2972
        64        2.0000           -0.4460619             -12.1380
        65        2.0000           -0.4401486             -11.9771
        66        2.0000           -0.4307623             -11.7216
        67        2.0000           -0.4247191             -11.5572 (HOMO)
        68                         -0.3779025             -10.2833 (LUMO)
        69                         -0.3042680              -8.2796
        70                         -0.2941101              -8.0031
        71                         -0.2696920              -7.3387
        72                         -0.2538137              -6.9066
        73                         -0.1977985              -5.3824
        74                         -0.1923258              -5.2335
        75                         -0.1522066              -4.1418
        76                         -0.1411742              -3.8415
        77                         -0.1336038              -3.6355
        78                         -0.1183526              -3.2205
       ...                                ...                  ...
       134                          0.7355249              20.0147
      -------------------------------------------------------------
                  HL-Gap            0.0468166 Eh            1.2739 eV

Wiberg/Mayer (AO) data.
largest (>0.10) Wiberg bond orders for each atom

     #   Z sym  total        # sym  WBO       # sym  WBO       # sym  WBO
 ---------------------------------------------------------------------------
     1   6 C    3.839 --    26 H    0.983    28 H    0.979    27 H    0.979
                             2 O    0.859
     2   8 O    2.242 --     3 C    1.180     1 C    0.859     4 O    0.142
     3   6 C    3.851 --     4 O    1.729     2 O    1.180     5 C    0.758
     4   8 O    2.027 --     3 C    1.729     2 O    0.142
     5   6 C    3.968 --    24 C    1.059     7 N    1.029     6 C    0.961
                             3 C    0.758
     6   6 C    3.980 --    29 H    0.984    31 H    0.983    30 H    0.980
                             5 C    0.961
     7   7 N    2.999 --     8 C    1.583     5 C    1.029
     8   6 C    3.943 --     7 N    1.583    21 N    1.254     9 C    0.978
     9   6 C    3.937 --    11 C    0.980    10 C    0.979     8 C    0.978
                            12 N    0.932
    10   6 C    3.990 --    32 H    0.986    33 H    0.984    34 H    0.982
                             9 C    0.979
    11   6 C    3.990 --    37 H    0.986    36 H    0.984    35 H    0.981
                             9 C    0.980
    12   7 N    3.373 --    13 C    1.286     9 C    0.932    38 H    0.874
                            14 O    0.183
    13   6 C    3.921 --    14 O    1.567    12 N    1.286    15 C    0.987
    14   8 O    1.886 --    13 C    1.567    12 N    0.183
    15   6 C    3.870 --    16 N    1.626    20 O    1.048    13 C    0.987
    16   7 N    2.997 --    15 C    1.626    17 N    1.194
    17   7 N    2.980 --    18 C    1.614    16 N    1.194
    18   6 C    3.870 --    17 N    1.614    20 O    1.073    19 C    1.031
    19   6 C    3.987 --    18 C    1.031    39 H    0.983    41 H    0.965
                            40 H    0.962
    20   8 O    2.316 --    18 C    1.073    15 C    1.048
    21   7 N    3.034 --    22 C    1.303     8 C    1.254    23 O    0.161
                            24 C    0.108
    22   6 C    3.934 --    23 O    1.517    21 N    1.303    24 C    0.989
    23   8 O    1.886 --    22 C    1.517    21 N    0.161
    24   6 C    3.788 --    25 O    1.323     5 C    1.059    22 C    0.989
                            21 N    0.108
    25   8 O    2.248 --    24 C    1.323    42 H    0.747
    26   1 H    1.005 --     1 C    0.983
    27   1 H    1.001 --     1 C    0.979
    28   1 H    1.001 --     1 C    0.979
    29   1 H    1.001 --     6 C    0.984
    30   1 H    0.999 --     6 C    0.980
    31   1 H    1.004 --     6 C    0.983
    32   1 H    1.004 --    10 C    0.986
    33   1 H    1.011 --    10 C    0.984
    34   1 H    1.010 --    10 C    0.982
    35   1 H    1.010 --    11 C    0.981
    36   1 H    1.010 --    11 C    0.984
    37   1 H    1.003 --    11 C    0.986
    38   1 H    0.960 --    12 N    0.874
    39   1 H    0.999 --    19 C    0.983
    40   1 H    0.997 --    19 C    0.962
    41   1 H    0.997 --    19 C    0.965
    42   1 H    0.821 --    25 O    0.747
 ---------------------------------------------------------------------------

           -------------------------------------------------
          | TOTAL ENERGY              -82.956525528026 Eh   |
          | GRADIENT NORM               0.000602990019 Eh/α |
          | HOMO-LUMO GAP               1.273945357726 eV   |
           -------------------------------------------------

 * finished run on 2023/06/20 at 18:18:08.715
