   * xtb version 6.5.1 (579679a) compiled by 'ehlert@majestix' on 2022-07-11
          program call               : /lustre/hpc/kemi/ree/PhD/git/ReactivityQM/dep/xtb-6.5.1/bin/xtb --gfn 1 /lustre/hpc/kemi/ree/PhD/git/ReactivityQM/calculations/R02methylcation/reac01prodE12/conf18/R02methylcation_reac01prodE12_conf18_gfn1.xyz --opt --vfukui --chrg -2 --uhf 0 --alpb DMSO

   ID    Z sym.   atoms
    1    6 C      1, 3, 5, 6, 8, 9, 12-15, 17, 19, 22, 23
    2    8 O      2, 4, 7, 10, 18, 24
    3    7 N      11, 16, 20, 21, 25
    4    1 H      26-42

      * Solvation model:               ALPB
        Solvent                        DMSO
        Solvent mass                       7.8130E+01 g/mol
          :  Hamiltonian                  GFN1-xTB          :
 * total energy  :   -83.5999324 Eh     change       -0.1802363E-09 Eh
 * total energy  :   -83.6144409 Eh     change       -0.1450853E-01 Eh
 * total energy  :   -83.6206772 Eh     change       -0.6236300E-02 Eh
 * total energy  :   -83.6220596 Eh     change       -0.1382406E-02 Eh
 * total energy  :   -83.6234486 Eh     change       -0.1388999E-02 Eh
 * total energy  :   -83.6241664 Eh     change       -0.7177270E-03 Eh
 * total energy  :   -83.6248125 Eh     change       -0.6461355E-03 Eh
 * total energy  :   -83.6251974 Eh     change       -0.3848817E-03 Eh
 * total energy  :   -83.6253791 Eh     change       -0.1817467E-03 Eh
 * total energy  :   -83.6255626 Eh     change       -0.1834768E-03 Eh
 * total energy  :   -83.6453880 Eh     change       -0.1099460E-04 Eh
 * total energy  :   -83.6453963 Eh     change       -0.8319879E-05 Eh
 * total energy  :   -83.6454064 Eh     change       -0.1011855E-04 Eh
 * total energy  :   -83.6454142 Eh     change       -0.7753823E-05 Eh
 * total energy  :   -83.6454203 Eh     change       -0.6089292E-05 Eh
 * total energy  :   -83.6454263 Eh     change       -0.6040306E-05 Eh
 * total energy  :   -83.6454325 Eh     change       -0.6182848E-05 Eh
 * total energy  :   -83.6454379 Eh     change       -0.5378952E-05 Eh
 * total energy  :   -83.6454421 Eh     change       -0.4271160E-05 Eh
   *** GEOMETRY OPTIMIZATION CONVERGED AFTER 85 ITERATIONS ***

 final structure:
================
42
 xtb: 6.5.1 (579679a)
C           -5.53933599340303        2.66365241054753        1.29522539302572
O           -4.46308315713605        2.11888005380719        0.55708492142674
C           -3.62310152371322        1.28128744916708        1.26495662729555
O           -3.85841293962301        1.06597830672639        2.45899568773732
C           -2.55170830671610        0.72506956685601        0.50169728010864
C           -2.26498023479552        1.01221471496308       -0.84746389735727
O           -2.91159189105092        1.74629746520187       -1.62184936444247
C           -0.99251853632748        0.29101699516912       -1.40323011756042
C           -1.08896634128961        0.13728331121793       -2.92409617339884
O            0.19091544215384        1.00448731471876       -1.06471946014310
N           -0.95318269945160       -1.02314200475241       -0.78366391044747
C           -0.89274425602165       -0.88269382563174        0.62132552721201
C            0.28926816093411       -1.57161965016134        1.28044341512453
C            0.21974358076845       -3.09450520691515        1.07529660102351
C            0.30505050851383       -1.23936348217534        2.77991013926241
N            1.42951442912572       -0.97273237695668        0.56565199783993
C            2.63554406747352       -1.33630734431884        0.92225799543769
O            3.01805378491119       -2.14828859707603        1.79823233184442
C            3.70575814902842       -0.62225599594616        0.12732071935249
N            4.99017569439811       -0.68062919622128        0.32829576606785
N            5.58086540648495        0.13218225275089       -0.61050062455817
C            4.61859974791413        0.62847790140771       -1.31819619972795
C            4.74168654124965        1.56216975108752       -2.46376009006574
O            3.41396172879376        0.19932327717865       -0.90906343698149
N           -1.65850452920420       -0.08740643744466        1.25250045006210
H           -6.09390073815356        3.31983804460149        0.62383337141501
H           -5.17929795914716        3.24284668722556        2.15379012280023
H           -6.20628178275939        1.87541826841456        1.66422130456738
H           -1.95157022077301       -0.47509320562645       -3.18096601770013
H           -1.19860722696622        1.11970705818097       -3.38149196103774
H           -0.18579729536934       -0.33426312189779       -3.30514875271414
H           -0.14960887849070       -1.54207575041920       -1.12624872258108
H           -0.71141150166335       -3.48108380996443        1.49156800543666
H            0.25585634820049       -3.33981195657761        0.01431964896077
H            1.05599288045316       -3.58456689814146        1.57277467101971
H           -0.62866633783973       -1.57187665722084        3.23641611655936
H            0.39628380476259       -0.16177400530387        2.92407484597973
H            1.13594045287115       -1.73737761724957        3.27744609946389
H            0.80469104830735        0.37485287627147       -0.58809632069982
H            4.12680924915844        2.44695406830353       -2.30085404377162
H            5.78129274293095        1.85907271586239       -2.57615084012227
H            4.40726558146527        1.07985665034383       -3.38213810572148

          :  Hamiltonian                  GFN1-xTB          :
         :: total energy             -83.645442126709 Eh    ::
         :: gradient norm              0.000372819011 Eh/a0 ::
         :: HOMO-LUMO gap              2.336690979295 eV    ::
         :: SCC energy               -84.371059216811 Eh    ::
         :: -> Gsolv                  -0.266372700986 Eh    ::
         :: repulsion energy           0.752144907571 Eh    ::

    * Orbital Energies and Occupations

         #    Occupation            Energy/Eh            Energy/eV
      -------------------------------------------------------------
         1        2.0000           -0.8195397             -22.3008
       ...           ...                  ...                  ...
        56        2.0000           -0.4386021             -11.9350
        57        2.0000           -0.4329697             -11.7817
        58        2.0000           -0.4214910             -11.4694
        59        2.0000           -0.4160367             -11.3209
        60        2.0000           -0.4120512             -11.2125
        61        2.0000           -0.4107749             -11.1778
        62        2.0000           -0.3971770             -10.8077
        63        2.0000           -0.3834035             -10.4329
        64        2.0000           -0.3757446             -10.2245
        65        2.0000           -0.3646019              -9.9213
        66        2.0000           -0.3520594              -9.5800
        67        2.0000           -0.3499869              -9.5236
        68        2.0000           -0.3290277              -8.9533 (HOMO)
        69                         -0.2431559              -6.6166 (LUMO)
        70                         -0.2195094              -5.9732
        71                         -0.2190464              -5.9606
        72                         -0.2001100              -5.4453
        73                         -0.1272917              -3.4638
        74                         -0.1268525              -3.4518
        75                         -0.1132889              -3.0827
        76                         -0.1030605              -2.8044
        77                         -0.0904603              -2.4615
        78                         -0.0861195              -2.3434
        79                         -0.0800496              -2.1783
       ...                                ...                  ...
       134                          0.7574859              20.6122
      -------------------------------------------------------------
                  HL-Gap            0.0858718 Eh            2.3367 eV

Wiberg/Mayer (AO) data.
largest (>0.10) Wiberg bond orders for each atom

     #   Z sym  total        # sym  WBO       # sym  WBO       # sym  WBO
 ---------------------------------------------------------------------------
     1   6 C    3.913 --    26 H    0.987    28 H    0.981    27 H    0.980
                             2 O    0.942
     2   8 O    2.117 --     3 C    0.991     1 C    0.942
     3   6 C    3.853 --     4 O    1.520     5 C    1.211     2 O    0.991
     4   8 O    1.814 --     3 C    1.520
     5   6 C    3.892 --     6 C    1.318     3 C    1.211    25 N    1.045
                             7 O    0.117
     6   6 C    3.923 --     7 O    1.520     5 C    1.318     8 C    0.908
     7   8 O    1.823 --     6 C    1.520     5 C    0.117
     8   6 C    3.890 --     9 C    0.989    11 N    0.949    10 O    0.944
                             6 C    0.908
     9   6 C    3.997 --     8 C    0.989    29 H    0.988    31 H    0.987
                            30 H    0.984
    10   8 O    1.879 --     8 C    0.944    39 H    0.809
    11   7 N    3.130 --    12 C    1.042     8 C    0.949    32 H    0.932
                            25 N    0.101
    12   6 C    3.938 --    25 N    1.741    11 N    1.042    13 C    0.972
    13   6 C    3.970 --    15 C    0.990    14 C    0.981    12 C    0.972
                            16 N    0.967
    14   6 C    3.993 --    33 H    0.988    34 H    0.984    35 H    0.982
                            13 C    0.981
    15   6 C    3.995 --    13 C    0.990    36 H    0.987    37 H    0.986
                            38 H    0.984
    16   7 N    2.989 --    17 C    1.494    13 C    0.967    18 O    0.223
                            39 H    0.108
    17   6 C    3.941 --    16 N    1.494    18 O    1.418    19 C    0.956
    18   8 O    1.770 --    17 C    1.418    16 N    0.223
    19   6 C    3.831 --    20 N    1.623    24 O    1.044    17 C    0.956
    20   7 N    2.967 --    19 C    1.623    21 N    1.168
    21   7 N    2.974 --    22 C    1.637    20 N    1.168
    22   6 C    3.886 --    21 N    1.637    24 O    1.077    23 C    1.025
    23   6 C    3.993 --    22 C    1.025    41 H    0.985    40 H    0.971
                            42 H    0.968
    24   8 O    2.310 --    22 C    1.077    19 C    1.044
    25   7 N    3.016 --    12 C    1.741     5 C    1.045    11 N    0.101
    26   1 H    1.019 --     1 C    0.987
    27   1 H    1.019 --     1 C    0.980
    28   1 H    1.018 --     1 C    0.981
    29   1 H    1.012 --     9 C    0.988
    30   1 H    1.019 --     9 C    0.984
    31   1 H    1.009 --     9 C    0.987
    32   1 H    0.982 --    11 N    0.932
    33   1 H    1.008 --    14 C    0.988
    34   1 H    1.008 --    14 C    0.984
    35   1 H    1.020 --    14 C    0.982
    36   1 H    1.015 --    15 C    0.987
    37   1 H    1.018 --    15 C    0.986
    38   1 H    1.022 --    15 C    0.984
    39   1 H    0.940 --    10 O    0.809    16 N    0.108
    40   1 H    1.001 --    23 C    0.971
    41   1 H    1.003 --    23 C    0.985
    42   1 H    1.001 --    23 C    0.968
 ---------------------------------------------------------------------------

           -------------------------------------------------
          | TOTAL ENERGY              -83.645442126709 Eh   |
          | GRADIENT NORM               0.000372819011 Eh/α |
          | HOMO-LUMO GAP               2.336690979295 eV   |
           -------------------------------------------------

 * finished run on 2023/06/21 at 17:25:45.360
