   * xtb version 6.5.1 (579679a) compiled by 'ehlert@majestix' on 2022-07-11
          program call               : /lustre/hpc/kemi/ree/PhD/git/ReactivityQM/dep/xtb-6.5.1/bin/xtb --gfn 1 /lustre/hpc/kemi/ree/PhD/git/ReactivityQM/calculations/R02methylcation/reac01prodN02/conf19/R02methylcation_reac01prodN02_conf19_gfn1.xyz --opt --vfukui --chrg 0 --uhf 0 --alpb DMSO

   ID    Z sym.   atoms
    1    6 C      1, 3, 5, 7-10, 12, 14, 15, 18, 19, 22, 24
    2    8 O      2, 4, 13, 20, 23, 25
    3    7 N      6, 11, 16, 17, 21
    4    1 H      26-42

      * Solvation model:               ALPB
        Solvent                        DMSO
        Solvent mass                       7.8130E+01 g/mol
          :  Hamiltonian                  GFN1-xTB          :
 * total energy  :   -82.9418584 Eh     change       -0.6177459E-10 Eh
 * total energy  :   -82.9601347 Eh     change       -0.1827627E-01 Eh
 * total energy  :   -82.9679436 Eh     change       -0.7808915E-02 Eh
 * total energy  :   -82.9691518 Eh     change       -0.1208193E-02 Eh
 * total energy  :   -82.9699441 Eh     change       -0.7923658E-03 Eh
 * total energy  :   -82.9702456 Eh     change       -0.3014675E-03 Eh
 * total energy  :   -82.9705195 Eh     change       -0.2738492E-03 Eh
 * total energy  :   -82.9707277 Eh     change       -0.2081981E-03 Eh
 * total energy  :   -82.9708665 Eh     change       -0.1388767E-03 Eh
 * total energy  :   -82.9709892 Eh     change       -0.1226445E-03 Eh
 * total energy  :   -82.9715621 Eh     change       -0.5638426E-05 Eh
 * total energy  :   -82.9715693 Eh     change       -0.7165224E-05 Eh
 * total energy  :   -82.9715759 Eh     change       -0.6650645E-05 Eh
 * total energy  :   -82.9715855 Eh     change       -0.9564920E-05 Eh
 * total energy  :   -82.9715968 Eh     change       -0.1132303E-04 Eh
 * total energy  :   -82.9716014 Eh     change       -0.4631626E-05 Eh
 * total energy  :   -82.9716085 Eh     change       -0.7065289E-05 Eh
 * total energy  :   -82.9716140 Eh     change       -0.5498674E-05 Eh
 * total energy  :   -82.9716185 Eh     change       -0.4493508E-05 Eh
   *** GEOMETRY OPTIMIZATION CONVERGED AFTER 38 ITERATIONS ***

 final structure:
================
42
 xtb: 6.5.1 (579679a)
C            6.52436437734521       -0.38649706153239        2.10395320059925
O            5.39859562585463        0.38158534379319        1.69583289263290
C            4.42442763721287       -0.29752169367594        1.04991756100737
O            4.52974422739914       -1.49824810034227        0.83630539937151
C            3.27827757530267        0.51249909132897        0.64998267577943
N            2.30423915027023       -0.22765185156618        0.01263580574811
C            1.22690088547916        0.32510130106419       -0.39943771961384
C            0.18574148805067       -0.48866322563056       -1.13649305202080
C            0.49217985865739       -1.97973996241697       -0.98860427199816
C            0.14166915652705       -0.05593350655847       -2.60718013039907
N           -1.12396970680525       -0.19565739804399       -0.49911889498696
C           -2.29031626026506       -0.65929778125723       -0.86979388066193
O           -2.36529645324891       -1.47031709626177       -1.88596036048515
C           -3.60745429928875       -2.00506334553234       -2.36596886221527
C           -3.44490902870071       -0.23631191390346       -0.11481617039968
N           -4.70480231961837       -0.54646397790359       -0.26695751839061
N           -5.38842851118212        0.10905164008465        0.68958670176765
C           -4.51800704725775        0.79052851259996        1.38455344332712
C           -4.77527301765117        1.66874239019479        2.54144369827340
O           -3.27428746042038        0.61035790954726        0.92311910865554
N            0.98621181036511        1.67703324758935       -0.24516536615747
C            1.86859859946540        2.53653300128220        0.37155322873958
O            1.58401020604043        3.72294833057307        0.47676571564156
C            3.15290249600832        1.91062019596736        0.87550770067703
O            3.98607849342143        2.64122292759172        1.43408523403822
H            6.22014468132607       -1.17634624028935        2.79742724482466
H            7.01244967990207       -0.84507108158670        1.23845094402677
H            7.21345852906277        0.29603165703464        2.59984088414637
H            0.43525806636507       -2.26649166038240        0.06018551569311
H            1.50377359869068       -2.16412628215691       -1.34886812166629
H           -0.20884701716787       -2.57756395569405       -1.56433350034130
H           -0.52917170162860       -0.68882385324864       -3.18174213280163
H            1.14436281206796       -0.13613620888461       -3.02533696533516
H           -0.19384552440378        0.97639847654197       -2.68224780756128
H           -1.12479285498698        0.41693193073205        0.30728076249313
H           -3.34624017307908       -2.62292042573143       -3.22297391520622
H           -4.08274863924191       -2.60445985617617       -1.58811550338509
H           -4.27304390080611       -1.19350795790848       -2.66327604624417
H           -4.22993456451990        1.30239947710284        3.41242099973809
H           -4.42155634471927        2.67746834333722        2.32527317381185
H           -5.84131118801365        1.68945024309458        2.75609657835938
H            0.13084805818281        2.07790841723143       -0.58585724947052

          :  Hamiltonian                  GFN1-xTB          :
         :: total energy             -82.971618490707 Eh    ::
         :: gradient norm              0.000876046538 Eh/a0 ::
         :: HOMO-LUMO gap              0.212906558975 eV    ::
         :: SCC energy               -83.747717293041 Eh    ::
         :: -> Gsolv                  -0.104062983329 Eh    ::
         :: repulsion energy           0.801456108524 Eh    ::

    * Orbital Energies and Occupations

         #    Occupation            Energy/Eh            Energy/eV
      -------------------------------------------------------------
         1        2.0000           -0.8979549             -24.4346
       ...           ...                  ...                  ...
        55        2.0000           -0.5076159             -13.8129
        56        2.0000           -0.5027805             -13.6814
        57        2.0000           -0.4982665             -13.5585
        58        2.0000           -0.4920063             -13.3882
        59        2.0000           -0.4835521             -13.1581
        60        2.0000           -0.4797696             -13.0552
        61        2.0000           -0.4699899             -12.7891
        62        2.0000           -0.4670739             -12.7097
        63        2.0000           -0.4520626             -12.3012
        64        2.0000           -0.4437814             -12.0759
        65        2.0000           -0.4299547             -11.6997
        66        2.0000           -0.3889975             -10.5852
        67        1.9680           -0.3768133             -10.2536 (HOMO)
        68        0.0320           -0.3689892             -10.0407 (LUMO)
        69                         -0.2843774              -7.7383
        70                         -0.2790262              -7.5927
        71                         -0.2544954              -6.9252
        72                         -0.2493784              -6.7859
        73                         -0.2056342              -5.5956
        74                         -0.1585640              -4.3147
        75                         -0.1522047              -4.1417
        76                         -0.1358866              -3.6977
        77                         -0.1339990              -3.6463
        78                         -0.1238292              -3.3696
       ...                                ...                  ...
       134                          0.7542402              20.5239
      -------------------------------------------------------------
                  HL-Gap            0.0078242 Eh            0.2129 eV

Wiberg/Mayer (AO) data.
largest (>0.10) Wiberg bond orders for each atom

     #   Z sym  total        # sym  WBO       # sym  WBO       # sym  WBO
 ---------------------------------------------------------------------------
     1   6 C    3.894 --    28 H    0.987    26 H    0.980    27 H    0.980
                             2 O    0.920
     2   8 O    2.168 --     3 C    1.061     1 C    0.920     4 O    0.113
     3   6 C    3.850 --     4 O    1.584     5 C    1.099     2 O    1.061
     4   8 O    1.855 --     3 C    1.584     2 O    0.113
     5   6 C    3.895 --    24 C    1.260     6 N    1.166     3 C    1.099
                            25 O    0.124
     6   7 N    3.036 --     7 C    1.628     5 C    1.166
     7   6 C    3.924 --     6 N    1.628    21 N    1.090     8 C    0.978
     8   6 C    3.893 --     9 C    0.989    10 C    0.980     7 C    0.978
                            11 N    0.874
     9   6 C    3.983 --     8 C    0.989    31 H    0.984    29 H    0.984
                            30 H    0.979
    10   6 C    3.982 --    34 H    0.983    33 H    0.982    32 H    0.981
                             8 C    0.980
    11   7 N    3.471 --    12 C    1.454     8 C    0.874    35 H    0.874
                            13 O    0.108
    12   6 C    3.879 --    11 N    1.454    13 O    1.188    15 C    1.090
    13   8 O    2.270 --    12 C    1.188    14 C    0.864    11 N    0.108
    14   6 C    3.831 --    36 H    0.980    38 H    0.974    37 H    0.974
                            13 O    0.864
    15   6 C    3.881 --    16 N    1.542    12 C    1.090    20 O    1.046
    16   7 N    3.014 --    15 C    1.542    17 N    1.248
    17   7 N    2.986 --    18 C    1.553    16 N    1.248
    18   6 C    3.847 --    17 N    1.553    20 O    1.086    19 C    1.039
    19   6 C    3.979 --    18 C    1.039    41 H    0.980    40 H    0.955
                            39 H    0.955
    20   8 O    2.329 --    18 C    1.086    15 C    1.046
    21   7 N    3.412 --    22 C    1.143     7 C    1.090    42 H    0.896
                            23 O    0.133
    22   6 C    3.871 --    23 O    1.599    21 N    1.143    24 C    0.962
    23   8 O    1.875 --    22 C    1.599    21 N    0.133
    24   6 C    3.937 --    25 O    1.537     5 C    1.260    22 C    0.962
    25   8 O    1.832 --    24 C    1.537     5 C    0.124
    26   1 H    1.013 --     1 C    0.980
    27   1 H    1.013 --     1 C    0.980
    28   1 H    1.015 --     1 C    0.987
    29   1 H    1.005 --     9 C    0.984
    30   1 H    1.012 --     9 C    0.979
    31   1 H    1.004 --     9 C    0.984
    32   1 H    1.003 --    10 C    0.981
    33   1 H    1.000 --    10 C    0.982
    34   1 H    0.999 --    10 C    0.983
    35   1 H    0.925 --    11 N    0.874
    36   1 H    1.003 --    14 C    0.980
    37   1 H    1.009 --    14 C    0.974
    38   1 H    1.008 --    14 C    0.974
    39   1 H    0.992 --    19 C    0.955
    40   1 H    0.992 --    19 C    0.955
    41   1 H    0.995 --    19 C    0.980
    42   1 H    0.940 --    21 N    0.896
 ---------------------------------------------------------------------------

           -------------------------------------------------
          | TOTAL ENERGY              -82.971618490707 Eh   |
          | GRADIENT NORM               0.000876046538 Eh/α |
          | HOMO-LUMO GAP               0.212906558975 eV   |
           -------------------------------------------------

 * finished run on 2023/06/21 at 17:31:14.839
