   * xtb version 6.5.1 (579679a) compiled by 'ehlert@majestix' on 2022-07-11
          program call               : /lustre/hpc/kemi/ree/PhD/git/ReactivityQM/dep/xtb-6.5.1/bin/xtb --gfn 1 /lustre/hpc/kemi/ree/PhD/git/ReactivityQM/calculations/R02deprot/reac01prodE06/conf09/R02deprot_reac01prodE06_conf09_gfn1.xyz --opt --vfukui --chrg -2 --uhf 0 --alpb DMSO

   ID    Z sym.   atoms
    1    6 C      1, 3, 5, 6, 8, 11-15, 17, 19, 22, 23
    2    8 O      2, 4, 7, 9, 18, 24
    3    7 N      10, 16, 20, 21, 25
    4    1 H      26-42

      * Solvation model:               ALPB
        Solvent                        DMSO
        Solvent mass                       7.8130E+01 g/mol
          :  Hamiltonian                  GFN1-xTB          :
 * total energy  :   -83.5809337 Eh     change       -0.2124096E-09 Eh
 * total energy  :   -83.5917820 Eh     change       -0.1084832E-01 Eh
 * total energy  :   -83.5960770 Eh     change       -0.4294979E-02 Eh
 * total energy  :   -83.5968593 Eh     change       -0.7823121E-03 Eh
 * total energy  :   -83.5975304 Eh     change       -0.6711208E-03 Eh
 * total energy  :   -83.5979165 Eh     change       -0.3861417E-03 Eh
 * total energy  :   -83.5982429 Eh     change       -0.3263526E-03 Eh
 * total energy  :   -83.5985034 Eh     change       -0.2605196E-03 Eh
 * total energy  :   -83.5986873 Eh     change       -0.1838801E-03 Eh
 * total energy  :   -83.5988245 Eh     change       -0.1372355E-03 Eh
 * total energy  :   -83.5998033 Eh     change       -0.2009078E-04 Eh
 * total energy  :   -83.5998588 Eh     change       -0.5556114E-04 Eh
 * total energy  :   -83.5998603 Eh     change       -0.1447697E-05 Eh
 * total energy  :   -83.5998992 Eh     change       -0.3889951E-04 Eh
 * total energy  :   -83.5999098 Eh     change       -0.1063672E-04 Eh
 * total energy  :   -83.5999307 Eh     change       -0.2093368E-04 Eh
 * total energy  :   -83.5999399 Eh     change       -0.9124634E-05 Eh
 * total energy  :   -83.5999520 Eh     change       -0.1218103E-04 Eh
 * total energy  :   -83.5999550 Eh     change       -0.2954437E-05 Eh
   *** GEOMETRY OPTIMIZATION CONVERGED AFTER 34 ITERATIONS ***

 final structure:
================
42
 xtb: 6.5.1 (579679a)
C            3.65066997160376        3.69574455723399       -1.06893848554326
O            3.56089959003193        2.30588160412587       -0.77832965601653
C            2.34135299041982        1.87255658826782       -0.33227613520579
O            1.42919540832230        2.67340500190335       -0.19989752351333
C            2.26065572981156        0.42863488815024       -0.05265469748725
C            3.35195960624509       -0.41619842338139        0.10444248227544
O            4.67570363843047       -0.04863370846562       -0.08258651593649
C            3.15000932259452       -1.75218891938093        0.73767354124267
O            4.14528351524687       -2.39736511021539        1.17738556219435
N            1.90401051888534       -2.18600686161061        0.86755442443950
C            0.84088441515701       -1.44172995836845        0.23338987381271
C            0.62588931244416       -2.02080524502712       -1.20048950999678
C           -0.45285274014271       -1.66426249704957        1.09728260250647
C           -0.17899376651273       -1.13570349088800        2.51341843422223
C           -0.83623539185510       -3.14587672155926        1.15292522214957
N           -1.50408373841168       -0.85134004616253        0.48367646005768
C           -2.81874325554704       -0.93097423995133        0.75833962732275
O           -3.34101646421074       -1.76094643181910        1.51834185497492
C           -3.64089828751862        0.05287237137649        0.03974879822352
N           -4.94207338705656        0.21191524997036        0.13499510322800
N           -5.27483045830665        1.23631551130503       -0.70793572789542
C           -4.17719792439426        1.64115632565455       -1.26227204290296
C           -4.02472000714320        2.73362131193334       -2.25187139798921
O           -3.10201667057624        0.94566289700428       -0.84093593711926
N            0.99056494066954       -0.00393329234093        0.10998710592818
H            4.64773539591740        3.87786193706275       -1.46569851873178
H            3.49821951974865        4.29049667258546       -0.16302343118873
H            2.89925180771888        3.98152147460748       -1.81117454952179
H            4.74574305606478        0.84870111386404       -0.43268512037758
H            1.45530216716678       -1.70713549376051       -1.83407502578361
H           -0.30275444635996       -1.64584136746395       -1.62971096443782
H            0.60230434547503       -3.10981816371348       -1.17445628632447
H            0.65232908882254       -1.69305437518763        2.94817020406086
H            0.09185666827242       -0.08011723905941        2.46345010177397
H           -1.05774066652310       -1.24834341326974        3.14852647764393
H           -1.30866763051045       -3.46439067341746        0.22406139214925
H           -1.52322194703366       -3.34967794227238        1.97410608907777
H            0.07390571792878       -3.72991570779405        1.30706300965646
H           -1.15307825821494       -0.04235117170422       -0.02427515887156
H           -3.53052970849404        3.59320284568562       -1.79667205939099
H           -5.00620458605038        3.03789820976829       -2.60786043470567
H           -3.41786339213232        2.39915693336772       -3.09279818799213

          :  Hamiltonian                  GFN1-xTB          :
         :: total energy             -83.599954998418 Eh    ::
         :: gradient norm              0.000779894681 Eh/a0 ::
         :: HOMO-LUMO gap              0.135342102266 eV    ::
         :: SCC energy               -84.321012100757 Eh    ::
         :: -> Gsolv                  -0.276228077466 Eh    ::
         :: repulsion energy           0.748125230056 Eh    ::

    * Orbital Energies and Occupations

         #    Occupation            Energy/Eh            Energy/eV
      -------------------------------------------------------------
         1        2.0000           -0.8275221             -22.5180
       ...           ...                  ...                  ...
        56        2.0000           -0.4371482             -11.8954
        57        2.0000           -0.4277089             -11.6386
        58        2.0000           -0.4232641             -11.5176
        59        2.0000           -0.4203196             -11.4375
        60        2.0000           -0.4154309             -11.3045
        61        2.0000           -0.4043852             -11.0039
        62        2.0000           -0.3979839             -10.8297
        63        2.0000           -0.3918337             -10.6623
        64        2.0000           -0.3713729             -10.1056
        65        2.0000           -0.3456697              -9.4062
        66        2.0000           -0.3202678              -8.7149
        67        2.0000           -0.3110827              -8.4650
        68        1.8640           -0.2784544              -7.5771 (HOMO)
        69        0.1360           -0.2734807              -7.4418 (LUMO)
        70                         -0.2360880              -6.4243
        71                         -0.2279633              -6.2032
        72                         -0.1566040              -4.2614
        73                         -0.1416114              -3.8534
        74                         -0.1300296              -3.5383
        75                         -0.1153413              -3.1386
        76                         -0.0920946              -2.5060
        77                         -0.0840802              -2.2879
        78                         -0.0767785              -2.0892
        79                         -0.0718969              -1.9564
       ...                                ...                  ...
       134                          0.7440553              20.2468
      -------------------------------------------------------------
                  HL-Gap            0.0049737 Eh            0.1353 eV

Wiberg/Mayer (AO) data.
largest (>0.10) Wiberg bond orders for each atom

     #   Z sym  total        # sym  WBO       # sym  WBO       # sym  WBO
 ---------------------------------------------------------------------------
     1   6 C    3.895 --    26 H    0.987    27 H    0.981    28 H    0.981
                             2 O    0.918
     2   8 O    2.160 --     3 C    1.020     1 C    0.918     4 O    0.108
     3   6 C    3.810 --     4 O    1.616     5 C    1.052     2 O    1.020
     4   8 O    1.880 --     3 C    1.616     2 O    0.108
     5   6 C    3.957 --     6 C    1.390    25 N    1.302     3 C    1.052
     6   6 C    3.769 --     5 C    1.390     8 C    1.027     7 O    0.996
                            25 N    0.159
     7   8 O    1.968 --     6 C    0.996    29 H    0.847
     8   6 C    3.936 --    10 N    1.418     9 O    1.398     6 C    1.027
     9   8 O    1.677 --     8 C    1.398    10 N    0.171
    10   7 N    2.845 --     8 C    1.418    11 C    1.002     9 O    0.171
    11   6 C    3.959 --    10 N    1.002    25 N    0.995    12 C    0.953
                            13 C    0.935
    12   6 C    3.975 --    31 H    0.986    30 H    0.986    32 H    0.985
                            11 C    0.953
    13   6 C    3.914 --    15 C    1.001    14 C    0.989    11 C    0.935
                            16 N    0.920
    14   6 C    3.993 --    13 C    0.989    35 H    0.988    34 H    0.983
                            33 H    0.982
    15   6 C    3.996 --    13 C    1.001    36 H    0.986    37 H    0.984
                            38 H    0.982
    16   7 N    3.349 --    17 C    1.263    13 C    0.920    39 H    0.889
                            18 O    0.165
    17   6 C    3.882 --    18 O    1.484    16 N    1.263    19 C    1.036
    18   8 O    1.781 --    17 C    1.484    16 N    0.165
    19   6 C    3.786 --    20 N    1.531    17 C    1.036    24 O    1.015
    20   7 N    2.870 --    19 C    1.531    21 N    1.187
    21   7 N    2.979 --    22 C    1.624    20 N    1.187
    22   6 C    3.846 --    21 N    1.624    24 O    1.062    23 C    1.027
    23   6 C    3.992 --    22 C    1.027    41 H    0.984    42 H    0.972
                            40 H    0.965
    24   8 O    2.261 --    22 C    1.062    19 C    1.015
    25   7 N    2.780 --     5 C    1.302    11 C    0.995     6 C    0.159
    26   1 H    1.015 --     1 C    0.987
    27   1 H    1.014 --     1 C    0.981
    28   1 H    1.015 --     1 C    0.981
    29   1 H    0.899 --     7 O    0.847
    30   1 H    1.016 --    12 C    0.986
    31   1 H    1.016 --    12 C    0.986
    32   1 H    1.018 --    12 C    0.985
    33   1 H    1.027 --    14 C    0.982
    34   1 H    1.027 --    14 C    0.983
    35   1 H    1.011 --    14 C    0.988
    36   1 H    1.010 --    15 C    0.986
    37   1 H    1.022 --    15 C    0.984
    38   1 H    1.033 --    15 C    0.982
    39   1 H    0.992 --    16 N    0.889
    40   1 H    0.999 --    23 C    0.965
    41   1 H    1.002 --    23 C    0.984
    42   1 H    0.999 --    23 C    0.972
 ---------------------------------------------------------------------------

           -------------------------------------------------
          | TOTAL ENERGY              -83.599954998418 Eh   |
          | GRADIENT NORM               0.000779894681 Eh/α |
          | HOMO-LUMO GAP               0.135342102266 eV   |
           -------------------------------------------------

 * finished run on 2023/06/20 at 17:44:59.396
