   * xtb version 6.5.1 (579679a) compiled by 'ehlert@majestix' on 2022-07-11
          program call               : /lustre/hpc/kemi/ree/PhD/git/ReactivityQM/dep/xtb-6.5.1/bin/xtb --gfn 1 /lustre/hpc/kemi/ree/PhD/git/ReactivityQM/calculations/R01/reac02prodN04/conf12/R01_reac02prodN04_conf12_gfn1.xyz --opt --vfukui --chrg 1 --uhf 0 --alpb DMSO

   ID    Z sym.   atoms
    1    6 C      1, 3, 5, 6, 8, 11-14, 17
    2    8 O      2, 4, 7, 9
    3    7 N      10, 15, 16
    4    1 H      18-33

      * Solvation model:               ALPB
        Solvent                        DMSO
        Solvent mass                       7.8130E+01 g/mol
          :  Hamiltonian                  GFN1-xTB          :
 * total energy  :   -57.8355462 Eh     change       -0.1369926E-10 Eh
 * total energy  :   -57.8519834 Eh     change       -0.1643725E-01 Eh
 * total energy  :   -57.8574999 Eh     change       -0.5516485E-02 Eh
 * total energy  :   -57.8583522 Eh     change       -0.8522853E-03 Eh
 * total energy  :   -57.8586321 Eh     change       -0.2799003E-03 Eh
 * total energy  :   -57.8587249 Eh     change       -0.9280951E-04 Eh
 * total energy  :   -57.8588415 Eh     change       -0.1165534E-03 Eh
 * total energy  :   -57.8589775 Eh     change       -0.1360743E-03 Eh
 * total energy  :   -57.8591428 Eh     change       -0.1652686E-03 Eh
 * total energy  :   -57.8593025 Eh     change       -0.1596684E-03 Eh
 * total energy  :   -57.8600786 Eh     change       -0.3747817E-04 Eh
 * total energy  :   -57.8600922 Eh     change       -0.1352688E-04 Eh
 * total energy  :   -57.8601085 Eh     change       -0.1630894E-04 Eh
 * total energy  :   -57.8601232 Eh     change       -0.1473134E-04 Eh
 * total energy  :   -57.8601371 Eh     change       -0.1389544E-04 Eh
 * total energy  :   -57.8601490 Eh     change       -0.1186491E-04 Eh
 * total energy  :   -57.8601565 Eh     change       -0.7555519E-05 Eh
 * total energy  :   -57.8601616 Eh     change       -0.5056053E-05 Eh
 * total energy  :   -57.8601655 Eh     change       -0.3952310E-05 Eh
   *** GEOMETRY OPTIMIZATION CONVERGED AFTER 29 ITERATIONS ***

 final structure:
================
33
 xtb: 6.5.1 (579679a)
C            4.36100243454552        1.19906874883988       -0.19749341694174
O            2.98697604191941        0.77546811011756       -0.10124145348328
C            2.77921152966277       -0.48953752171055        0.19393955532404
O            3.67502837831102       -1.28855366101061        0.37608229664852
C            1.35069436115775       -0.92886907495276        0.19136596147003
C            1.09542728115277       -2.26354280538095       -0.00513753276028
O            2.01436534242280       -3.20286481254855       -0.05505015005019
C           -0.28381284584488       -2.72869036359235       -0.22745544883513
O           -0.64819998518523       -3.86765191744341       -0.36795375709262
N           -1.18858471408147       -1.67002103045410       -0.30488323471045
C           -0.94757835338182       -0.37518623018114       -0.04973685824815
C           -2.13728527120909        0.57110826839926       -0.14272094180808
C           -3.15137253837552        0.07178235115325       -1.18818455676330
C           -2.81593414889169        0.64252052634287        1.23480081942702
N           -1.66756237652821        1.89001765851874       -0.53323483506427
N            0.28488601890719       -0.01920451421192        0.27384481492588
C            0.57114958217620        1.30912381504403        0.83769082236895
H            4.33385174734793        2.25597780001092       -0.45133341810220
H            4.85942969432440        1.04207741560757        0.76055801966836
H            4.86673396024585        0.62421275476229       -0.97520001784684
H            2.91867464134507       -2.82548240210270        0.09866838336908
H           -2.13459360701759       -1.95315634726665       -0.52657643546177
H           -3.69744795734436       -0.80264488286354       -0.83722962217670
H           -3.87154805715454        0.86887455816043       -1.36441821988859
H           -2.65199546693313       -0.15962616281102       -2.12708756868231
H           -2.14815410221970        1.06880066065773        1.98078777864603
H           -3.11559604193572       -0.35391366094088        1.55532543061723
H           -3.70122325050021        1.27115823425929        1.15671075876313
H           -2.40394367551246        2.56383289244154       -0.37437366561575
H           -1.44784229690029        1.89275569007646       -1.52020187523752
H            0.85639381578767        1.98972380444574        0.03957083623495
H            1.37415316228494        1.20829860277248        1.56254771933855
H           -0.31530230257326        1.68414449586265        1.33474281196616

          :  Hamiltonian                  GFN1-xTB          :
         :: total energy             -57.860165524644 Eh    ::
         :: gradient norm              0.000689558119 Eh/a0 ::
         :: HOMO-LUMO gap              2.037010899442 eV    ::
         :: SCC energy               -58.438016867744 Eh    ::
         :: -> Gsolv                  -0.101689607483 Eh    ::
         :: repulsion energy           0.597555150509 Eh    ::

    * Orbital Energies and Occupations

         #    Occupation            Energy/Eh            Energy/eV
      -------------------------------------------------------------
         1        2.0000           -0.8882854             -24.1715
       ...           ...                  ...                  ...
        35        2.0000           -0.5580000             -15.1840
        36        2.0000           -0.5433228             -14.7846
        37        2.0000           -0.5387821             -14.6610
        38        2.0000           -0.5360357             -14.5863
        39        2.0000           -0.5311953             -14.4546
        40        2.0000           -0.5285687             -14.3831
        41        2.0000           -0.5279516             -14.3663
        42        2.0000           -0.5242371             -14.2652
        43        2.0000           -0.5214427             -14.1892
        44        2.0000           -0.5155514             -14.0289
        45        2.0000           -0.4962651             -13.5041
        46        2.0000           -0.4773681             -12.9898
        47        2.0000           -0.4409772             -11.9996 (HOMO)
        48                         -0.3661184              -9.9626 (LUMO)
        49                         -0.3514125              -9.5624
        50                         -0.2838160              -7.7230
        51                         -0.2178093              -5.9269
        52                         -0.1606040              -4.3703
        53                         -0.1542320              -4.1969
        54                         -0.1507436              -4.1019
        55                         -0.1444115              -3.9296
        56                         -0.1326460              -3.6095
        57                         -0.1094994              -2.9796
        58                         -0.1043222              -2.8388
       ...                                ...                  ...
       100                          0.7120791              19.3767
      -------------------------------------------------------------
                  HL-Gap            0.0748588 Eh            2.0370 eV

Wiberg/Mayer (AO) data.
largest (>0.10) Wiberg bond orders for each atom

     #   Z sym  total        # sym  WBO       # sym  WBO       # sym  WBO
 ---------------------------------------------------------------------------
     1   6 C    3.839 --    18 H    0.984    19 H    0.978    20 H    0.978
                             2 O    0.865
     2   8 O    2.236 --     3 C    1.157     1 C    0.865     4 O    0.135
     3   6 C    3.864 --     4 O    1.619     2 O    1.157     5 C    1.007
     4   8 O    1.974 --     3 C    1.619     2 O    0.135
     5   6 C    3.920 --     6 C    1.507    16 N    1.065     3 C    1.007
                             7 O    0.111
     6   6 C    3.927 --     5 C    1.507     7 O    1.182     8 C    1.023
     7   8 O    2.135 --     6 C    1.182    21 H    0.743     5 C    0.111
     8   6 C    3.899 --     9 O    1.683    10 N    1.068     6 C    1.023
     9   8 O    1.970 --     8 C    1.683    10 N    0.119
    10   7 N    3.483 --    11 C    1.271     8 C    1.068    22 H    0.865
                             9 O    0.119
    11   6 C    3.884 --    16 N    1.408    10 N    1.271    12 C    0.973
    12   6 C    3.954 --    15 N    0.996    13 C    0.981    11 C    0.973
                            14 C    0.967
    13   6 C    3.988 --    25 H    0.983    12 C    0.981    24 H    0.977
                            23 H    0.976
    14   6 C    3.986 --    27 H    0.984    26 H    0.978    28 H    0.978
                            12 C    0.967
    15   7 N    2.974 --    12 C    0.996    30 H    0.933    29 H    0.928
    16   7 N    3.579 --    11 C    1.408     5 C    1.065    17 C    0.902
    17   6 C    3.889 --    32 H    0.977    33 H    0.973    31 H    0.968
                            16 N    0.902
    18   1 H    1.005 --     1 C    0.984
    19   1 H    1.002 --     1 C    0.978
    20   1 H    1.002 --     1 C    0.978
    21   1 H    0.829 --     7 O    0.743
    22   1 H    0.919 --    10 N    0.865
    23   1 H    0.996 --    13 C    0.976
    24   1 H    0.997 --    13 C    0.977
    25   1 H    0.996 --    13 C    0.983
    26   1 H    0.999 --    14 C    0.978
    27   1 H    0.998 --    14 C    0.984
    28   1 H    0.994 --    14 C    0.978
    29   1 H    0.942 --    15 N    0.928
    30   1 H    0.946 --    15 N    0.933
    31   1 H    1.014 --    17 C    0.968
    32   1 H    1.000 --    17 C    0.977
    33   1 H    1.018 --    17 C    0.973
 ---------------------------------------------------------------------------

           -------------------------------------------------
          | TOTAL ENERGY              -57.860165524644 Eh   |
          | GRADIENT NORM               0.000689558119 Eh/α |
          | HOMO-LUMO GAP               2.037010899442 eV   |
           -------------------------------------------------

 * finished run on 2023/06/20 at 15:05:29.423
