   * xtb version 6.5.1 (579679a) compiled by 'ehlert@majestix' on 2022-07-11
          program call               : /lustre/hpc/kemi/ree/PhD/git/ReactivityQM/dep/xtb-6.5.1/bin/xtb --gfn 1 /lustre/hpc/kemi/ree/PhD/git/ReactivityQM/calculations/R02methylcation/reac01prodE04/conf10/R02methylcation_reac01prodE04_conf10_gfn1.xyz --opt --vfukui --chrg -2 --uhf 0 --alpb DMSO

   ID    Z sym.   atoms
    1    6 C      1, 3, 5, 6, 8-11, 13, 15, 18, 19, 22, 24
    2    8 O      2, 4, 14, 20, 23, 25
    3    7 N      7, 12, 16, 17, 21
    4    1 H      26-42

      * Solvation model:               ALPB
        Solvent                        DMSO
        Solvent mass                       7.8130E+01 g/mol
          :  Hamiltonian                  GFN1-xTB          :
 * total energy  :   -83.5729129 Eh     change       -0.8085976E-11 Eh
 * total energy  :   -83.5941098 Eh     change       -0.2119690E-01 Eh
 * total energy  :   -83.6012478 Eh     change       -0.7138020E-02 Eh
 * total energy  :   -83.6029199 Eh     change       -0.1672110E-02 Eh
 * total energy  :   -83.6039119 Eh     change       -0.9919963E-03 Eh
 * total energy  :   -83.6042996 Eh     change       -0.3877186E-03 Eh
 * total energy  :   -83.6045436 Eh     change       -0.2439792E-03 Eh
 * total energy  :   -83.6048165 Eh     change       -0.2729126E-03 Eh
 * total energy  :   -83.6051142 Eh     change       -0.2977021E-03 Eh
 * total energy  :   -83.6054455 Eh     change       -0.3312693E-03 Eh
 * total energy  :   -83.6115143 Eh     change       -0.9051078E-05 Eh
 * total energy  :   -83.6115248 Eh     change       -0.1051339E-04 Eh
 * total energy  :   -83.6115383 Eh     change       -0.1344442E-04 Eh
 * total energy  :   -83.6115510 Eh     change       -0.1275530E-04 Eh
 * total energy  :   -83.6115603 Eh     change       -0.9230396E-05 Eh
 * total energy  :   -83.6115686 Eh     change       -0.8357541E-05 Eh
 * total energy  :   -83.6115734 Eh     change       -0.4758519E-05 Eh
 * total energy  :   -83.6115759 Eh     change       -0.2559539E-05 Eh
 * total energy  :   -83.6115786 Eh     change       -0.2660785E-05 Eh
   *** GEOMETRY OPTIMIZATION CONVERGED AFTER 58 ITERATIONS ***

 final structure:
================
42
 xtb: 6.5.1 (579679a)
C            6.02841764933122       -0.26330304230099        0.59186800593834
O            4.87140837612629       -0.85790509952553        0.02172688207788
C            3.67534714286280       -0.36791942992199        0.44866144704417
O            3.61478129686412        0.51073906424416        1.29899557234718
C            2.50182992719539       -0.92107273725413       -0.34211770618935
C            2.71801832311363       -2.37826330364164       -0.75929047464726
N            1.28747318214012       -0.81663533693625        0.44579054345752
C            0.69110583560123        0.32214905281632        0.48801363089586
C           -0.49093444917339        0.45207060805074        1.45609373953469
C           -0.19523748442549       -0.42863024404598        2.67704260014364
C           -0.71178555560071        1.89629682702266        1.92700172202886
N           -1.69547493416376       -0.09389450733317        0.82306700163492
C           -2.34655128441836        0.58476688179096       -0.21244983091817
O           -1.80811448385670        1.49296686877166       -0.87613291181771
C           -3.65641702092258        0.05674809824217       -0.43715097695964
N           -4.23602794730929       -0.93962555675734        0.24405980457536
N           -5.48170603306293       -1.10455097989621       -0.29767060220117
C           -5.60777272165205       -0.23682368085775       -1.24843446725235
C           -6.79351440323728       -0.03333454124121       -2.11782265734032
O           -4.50826907928331        0.53691102727574       -1.41267615668518
N            1.06313970220758        1.39242133588954       -0.25505597647693
C            1.88006636733438        1.26703770496210       -1.42565273653138
O            1.85363516778553        2.23324103744410       -2.24069195256333
C            2.57461215986154        0.04142020900950       -1.55982054011830
O            3.28385210923951       -0.30435626426097       -2.56612392697772
H            6.07371171000610        0.80656127012084        0.36248202182414
H            6.89272642918710       -0.76918436908507        0.16397958791413
H            6.03092681706995       -0.38995964460969        1.67903012196061
H            1.82386011997490       -2.74940965364717       -1.26093465470896
H            2.91095025662366       -2.99951230102906        0.11448471150009
H            3.56288580041628       -2.45250417100487       -1.44337266842448
H            0.71568410783614       -0.08608571886823        3.16716508356260
H           -0.05276452626308       -1.46349601906655        2.36588191936268
H           -1.01707891515185       -0.38017996803154        3.38965828921458
H           -1.49489190423785        1.91408227381834        2.68352496179693
H           -1.01506092757823        2.54569833910611        1.10784678437915
H            0.20661444759296        2.28415123642201        2.36626063521675
H           -2.32456957774850       -0.55613546024681        1.46424363230686
H           -7.57392395576466       -0.73485020375698       -1.83286213909729
H           -6.53349841839983       -0.19115343190294       -3.16508179822412
H           -7.17059023059526        0.98454415640383       -2.01420235572861
H            0.45313992447362        2.19698067383736       -0.26481516585686

          :  Hamiltonian                  GFN1-xTB          :
         :: total energy             -83.611578609335 Eh    ::
         :: gradient norm              0.000381064873 Eh/a0 ::
         :: HOMO-LUMO gap              0.035760973197 eV    ::
         :: SCC energy               -84.337581204615 Eh    ::
         :: -> Gsolv                  -0.289519474468 Eh    ::
         :: repulsion energy           0.752810745655 Eh    ::

    * Orbital Energies and Occupations

         #    Occupation            Energy/Eh            Energy/eV
      -------------------------------------------------------------
         1        2.0000           -0.8021041             -21.8264
       ...           ...                  ...                  ...
        56        2.0000           -0.4469771             -12.1629
        57        2.0000           -0.4415073             -12.0140
        58        2.0000           -0.4305801             -11.7167
        59        2.0000           -0.4228543             -11.5065
        60        2.0000           -0.4099394             -11.1550
        61        2.0000           -0.4050924             -11.0231
        62        2.0000           -0.4037770             -10.9873
        63        2.0000           -0.3981118             -10.8332
        64        2.0000           -0.3900472             -10.6137
        65        2.0000           -0.3768903             -10.2557
        66        2.0000           -0.3718436             -10.1184
        67        2.0000           -0.3432706              -9.3409
        68        1.3327           -0.2682530              -7.2995 (HOMO)
        69        0.6673           -0.2669388              -7.2638 (LUMO)
        70                         -0.2200111              -5.9868
        71                         -0.2110915              -5.7441
        72                         -0.1995077              -5.4289
        73                         -0.1405422              -3.8243
        74                         -0.1247765              -3.3953
        75                         -0.1221367              -3.3235
        76                         -0.1122672              -3.0549
        77                         -0.1030896              -2.8052
        78                         -0.0984548              -2.6791
        79                         -0.0897171              -2.4413
       ...                                ...                  ...
       134                          0.7130790              19.4039
      -------------------------------------------------------------
                  HL-Gap            0.0013142 Eh            0.0358 eV

Wiberg/Mayer (AO) data.
largest (>0.10) Wiberg bond orders for each atom

     #   Z sym  total        # sym  WBO       # sym  WBO       # sym  WBO
 ---------------------------------------------------------------------------
     1   6 C    3.898 --    27 H    0.987    28 H    0.981    26 H    0.981
                             2 O    0.923
     2   8 O    2.148 --     3 C    1.039     1 C    0.923     4 O    0.106
     3   6 C    3.772 --     4 O    1.589     2 O    1.039     5 C    0.943
     4   8 O    1.844 --     3 C    1.589     2 O    0.106
     5   6 C    3.960 --     6 C    0.991     7 N    0.984     3 C    0.943
                            24 C    0.876
     6   6 C    3.990 --     5 C    0.991    30 H    0.989    29 H    0.987
                            31 H    0.983
     7   7 N    2.937 --     8 C    1.646     5 C    0.984    21 N    0.149
     8   6 C    3.930 --     7 N    1.646    21 N    1.192     9 C    0.961
     9   6 C    3.951 --    10 C    0.998    11 C    0.992     8 C    0.961
                            12 N    0.938
    10   6 C    3.996 --     9 C    0.998    34 H    0.986    32 H    0.986
                            33 H    0.983
    11   6 C    3.992 --     9 C    0.992    37 H    0.987    35 H    0.985
                            36 H    0.977
    12   7 N    3.142 --    13 C    1.087     9 C    0.938    38 H    0.917
                            14 O    0.112
    13   6 C    3.757 --    14 O    1.455    15 C    1.148    12 N    1.087
    14   8 O    1.702 --    13 C    1.455    12 N    0.112
    15   6 C    3.689 --    16 N    1.392    13 C    1.148    20 O    0.978
    16   7 N    2.740 --    15 C    1.392    17 N    1.185
    17   7 N    2.980 --    18 C    1.628    16 N    1.185
    18   6 C    3.820 --    17 N    1.628    20 O    1.051    19 C    1.024
    19   6 C    3.994 --    18 C    1.024    39 H    0.986    40 H    0.971
                            41 H    0.971
    20   8 O    2.185 --    18 C    1.051    15 C    0.978
    21   7 N    3.341 --     8 C    1.192    22 C    0.968    42 H    0.904
                             7 N    0.149
    22   6 C    3.753 --    23 O    1.396    24 C    1.235    21 N    0.968
    23   8 O    1.609 --    22 C    1.396
    24   6 C    3.728 --    25 O    1.370    22 C    1.235     5 C    0.876
    25   8 O    1.574 --    24 C    1.370
    26   1 H    1.012 --     1 C    0.981
    27   1 H    1.016 --     1 C    0.987
    28   1 H    1.014 --     1 C    0.981
    29   1 H    1.013 --     6 C    0.987
    30   1 H    1.011 --     6 C    0.989
    31   1 H    1.028 --     6 C    0.983
    32   1 H    1.010 --    10 C    0.986
    33   1 H    1.025 --    10 C    0.983
    34   1 H    1.004 --    10 C    0.986
    35   1 H    1.005 --    11 C    0.985
    36   1 H    1.015 --    11 C    0.977
    37   1 H    1.005 --    11 C    0.987
    38   1 H    0.974 --    12 N    0.917
    39   1 H    1.004 --    19 C    0.986
    40   1 H    1.001 --    19 C    0.971
    41   1 H    1.001 --    19 C    0.971
    42   1 H    0.980 --    21 N    0.904
 ---------------------------------------------------------------------------

           -------------------------------------------------
          | TOTAL ENERGY              -83.611578609335 Eh   |
          | GRADIENT NORM               0.000381064873 Eh/α |
          | HOMO-LUMO GAP               0.035760973197 eV   |
           -------------------------------------------------

 * finished run on 2023/06/21 at 17:10:36.155
