   * xtb version 6.5.1 (579679a) compiled by 'ehlert@majestix' on 2022-07-11
          program call               : /lustre/hpc/kemi/ree/PhD/git/ReactivityQM/dep/xtb-6.5.1/bin/xtb --gfn 1 /lustre/hpc/kemi/ree/PhD/git/ReactivityQM/calculations/R03/reac02prodE01/conf05/R03_reac02prodE01_conf05_gfn1.xyz --opt --vfukui --chrg -1 --uhf 0 --alpb DMSO

   ID    Z sym.   atoms
    1    6 C      1, 3, 5, 7-10, 12, 13, 15, 18, 19, 22, 23, 25
    2    8 O      2, 4, 14, 20, 24, 26
    3    7 N      6, 11, 16, 17, 21
    4    1 H      27-46

      * Solvation model:               ALPB
        Solvent                        DMSO
        Solvent mass                       7.8130E+01 g/mol
          :  Hamiltonian                  GFN1-xTB          :
 * total energy  :   -87.0225904 Eh     change       -0.4744436E-09 Eh
 * total energy  :   -87.0379096 Eh     change       -0.1531926E-01 Eh
 * total energy  :   -87.0437761 Eh     change       -0.5866500E-02 Eh
 * total energy  :   -87.0449709 Eh     change       -0.1194714E-02 Eh
 * total energy  :   -87.0454604 Eh     change       -0.4895806E-03 Eh
 * total energy  :   -87.0456356 Eh     change       -0.1751353E-03 Eh
 * total energy  :   -87.0457686 Eh     change       -0.1330163E-03 Eh
 * total energy  :   -87.0458787 Eh     change       -0.1101565E-03 Eh
 * total energy  :   -87.0459729 Eh     change       -0.9412032E-04 Eh
 * total energy  :   -87.0460674 Eh     change       -0.9457609E-04 Eh
 * total energy  :   -87.0485813 Eh     change       -0.4879858E-05 Eh
 * total energy  :   -87.0485878 Eh     change       -0.6559218E-05 Eh
 * total energy  :   -87.0485993 Eh     change       -0.1151464E-04 Eh
 * total energy  :   -87.0486068 Eh     change       -0.7479869E-05 Eh
 * total energy  :   -87.0486141 Eh     change       -0.7336946E-05 Eh
 * total energy  :   -87.0486213 Eh     change       -0.7107119E-05 Eh
 * total energy  :   -87.0486280 Eh     change       -0.6760656E-05 Eh
 * total energy  :   -87.0486356 Eh     change       -0.7563500E-05 Eh
 * total energy  :   -87.0486400 Eh     change       -0.4420360E-05 Eh
   *** GEOMETRY OPTIMIZATION CONVERGED AFTER 71 ITERATIONS ***

 final structure:
================
46
 xtb: 6.5.1 (579679a)
C            5.30615767029397        3.53133340696547        1.35880893487547
O            4.74469014872122        2.21394953609474        1.29933884558761
C            3.56662975980518        2.10632327623955        0.66095157798011
O            3.00749734107799        3.05818075064030        0.16948537171099
C            3.03970092147753        0.71562257663174        0.62787090392168
N            1.86016649498123        0.60279440884497       -0.04761283972204
C            1.24640684011115       -0.53331935991877       -0.17278981482202
C           -0.04161169035743       -0.52616111712373       -1.00352707383515
C            0.23075168469065       -1.30218115563014       -2.30539204980786
C           -0.38236898675396        0.93557694942412       -1.35390984328771
N           -1.08360764070268       -1.16900693414501       -0.20083096969530
C           -2.53448834820325       -1.08823946155038       -0.73976354914285
C           -3.19069036945196       -2.40794307897663       -0.20025068898153
O           -2.66095134128481       -0.90309574807659       -2.01416535525233
C           -3.17489725093438        0.05694143903932        0.12186625600705
N           -2.58373440160330        0.92256414123040        0.88536965760920
N           -3.56640444390821        1.74153760643535        1.40774972924279
C           -4.68402583844620        1.31200496424643        0.92577666671792
C           -6.04276419949297        1.85276332883615        1.17445918320109
O           -4.51282151474393        0.25347050289633        0.11024247356713
N            1.76480004205216       -1.67499311983219        0.38584996988580
C            1.13295472222754       -2.99550934761862        0.31011467130799
C            2.97282964205129       -1.68707271537572        1.06725782909380
O            3.42576634944288       -2.73296520960054        1.52238880231884
C            3.62769308473188       -0.38749220316318        1.18956174055214
O            4.78866969265492       -0.41501427485441        1.86633595714988
H            4.64645667320426        4.19247426513576        1.92529162782748
H            6.26774143588634        3.44019326949260        1.85719446075983
H            5.43808380745874        3.92684459242594        0.34912811788322
H           -0.61373801138588       -1.19156753207989       -2.98428608477549
H            1.12653525308467       -0.90865863792658       -2.78601234241910
H            0.37602911532008       -2.36200412405268       -2.10891515039130
H           -1.28098568866966        0.96512879921795       -1.96855878160371
H            0.43972143168919        1.38674232611501       -1.90875879669806
H           -0.55274176072097        1.51099578166331       -0.44425917450981
H           -1.08235366763769       -0.73924961560424        0.72351671173684
H           -3.05780257939113       -2.50395008344710        0.87552426170302
H           -2.72046326947587       -3.25182232982520       -0.70135914994389
H           -4.25275370615536       -2.39359591527676       -0.43891270900025
H           -6.47446184865268        2.22866422566943        0.24680697570726
H           -6.69547023834882        1.06929905428429        1.55755806247181
H           -5.98563494409184        2.66234281742926        1.89790023635645
H            1.22431726345538       -3.47346351660450        1.28582743525426
H            0.08115316529579       -2.89527533147113        0.05110269858261
H            1.65514309003083       -3.60311095112387       -0.42942747773545
H            5.20488011067143        0.45994374431321        1.92868869260803

          :  Hamiltonian                  GFN1-xTB          :
         :: total energy             -87.048639995416 Eh    ::
         :: gradient norm              0.000807169924 Eh/a0 ::
         :: HOMO-LUMO gap              0.910062914803 eV    ::
         :: SCC energy               -87.838923304238 Eh    ::
         :: -> Gsolv                  -0.118016320388 Eh    ::
         :: repulsion energy           0.820211143949 Eh    ::

    * Orbital Energies and Occupations

         #    Occupation            Energy/Eh            Energy/eV
      -------------------------------------------------------------
         1        2.0000           -0.8390113             -22.8307
       ...           ...                  ...                  ...
        59        2.0000           -0.4643979             -12.6369
        60        2.0000           -0.4630634             -12.6006
        61        2.0000           -0.4556427             -12.3987
        62        2.0000           -0.4485388             -12.2054
        63        2.0000           -0.4424351             -12.0393
        64        2.0000           -0.4397988             -11.9675
        65        2.0000           -0.4288897             -11.6707
        66        2.0000           -0.4183187             -11.3830
        67        2.0000           -0.4139602             -11.2644
        68        2.0000           -0.4137395             -11.2584
        69        2.0000           -0.3804574             -10.3528
        70        2.0000           -0.3519223              -9.5763
        71        2.0000           -0.3464877              -9.4284 (HOMO)
        72                         -0.3130435              -8.5183 (LUMO)
        73                         -0.2650865              -7.2134
        74                         -0.2312750              -6.2933
        75                         -0.2292484              -6.2382
        76                         -0.2149475              -5.8490
        77                         -0.1456655              -3.9638
        78                         -0.1358510              -3.6967
        79                         -0.1301390              -3.5413
        80                         -0.1239118              -3.3718
        81                         -0.0997105              -2.7133
        82                         -0.0914888              -2.4895
       ...                                ...                  ...
       144                          0.7353247              20.0092
      -------------------------------------------------------------
                  HL-Gap            0.0334442 Eh            0.9101 eV

Wiberg/Mayer (AO) data.
largest (>0.10) Wiberg bond orders for each atom

     #   Z sym  total        # sym  WBO       # sym  WBO       # sym  WBO
 ---------------------------------------------------------------------------
     1   6 C    3.866 --    28 H    0.986    27 H    0.980    29 H    0.980
                             2 O    0.890
     2   8 O    2.198 --     3 C    1.080     1 C    0.890     4 O    0.127
     3   6 C    3.842 --     4 O    1.669     2 O    1.080     5 C    1.009
     4   8 O    1.929 --     3 C    1.669     2 O    0.127
     5   6 C    3.966 --    25 C    1.485     6 N    1.197     3 C    1.009
     6   7 N    3.027 --     7 C    1.553     5 C    1.197
     7   6 C    3.908 --     6 N    1.553    21 N    1.173     8 C    0.968
     8   6 C    3.962 --    10 C    0.988     9 C    0.980    11 N    0.974
                             7 C    0.968
     9   6 C    3.993 --    31 H    0.988    32 H    0.983     8 C    0.980
                            30 H    0.973
    10   6 C    3.995 --     8 C    0.988    34 H    0.986    35 H    0.983
                            33 H    0.978
    11   7 N    3.021 --     8 C    0.974    36 H    0.947    12 C    0.835
    12   6 C    3.934 --    14 O    1.232    13 C    0.929    15 C    0.880
                            11 N    0.835
    13   6 C    3.992 --    37 H    0.991    39 H    0.987    38 H    0.986
                            12 C    0.929
    14   8 O    1.565 --    12 C    1.232
    15   6 C    3.808 --    16 N    1.647    20 O    1.053    12 C    0.880
    16   7 N    2.994 --    15 C    1.647    17 N    1.146
    17   7 N    2.975 --    18 C    1.655    16 N    1.146
    18   6 C    3.887 --    17 N    1.655    20 O    1.065    19 C    1.024
    19   6 C    3.992 --    18 C    1.024    42 H    0.985    41 H    0.971
                            40 H    0.969
    20   8 O    2.300 --    18 C    1.065    15 C    1.053
    21   7 N    3.515 --     7 C    1.173    23 C    1.132    22 C    0.929
                            24 O    0.137
    22   6 C    3.921 --    45 H    0.977    43 H    0.977    44 H    0.965
                            21 N    0.929
    23   6 C    3.918 --    24 O    1.559    21 N    1.132    25 C    1.078
    24   8 O    1.874 --    23 C    1.559    21 N    0.137
    25   6 C    3.917 --     5 C    1.485    26 O    1.090    23 C    1.078
    26   8 O    2.072 --    25 C    1.090    46 H    0.808
    27   1 H    1.007 --     1 C    0.980
    28   1 H    1.010 --     1 C    0.986
    29   1 H    1.008 --     1 C    0.980
    30   1 H    1.032 --     9 C    0.973
    31   1 H    1.006 --     9 C    0.988
    32   1 H    1.009 --     9 C    0.983
    33   1 H    1.030 --    10 C    0.978
    34   1 H    1.016 --    10 C    0.986
    35   1 H    1.028 --    10 C    0.983
    36   1 H    0.991 --    11 N    0.947
    37   1 H    1.010 --    13 C    0.991
    38   1 H    1.019 --    13 C    0.986
    39   1 H    1.016 --    13 C    0.987
    40   1 H    1.001 --    19 C    0.969
    41   1 H    1.001 --    19 C    0.971
    42   1 H    1.002 --    19 C    0.985
    43   1 H    1.010 --    22 C    0.977
    44   1 H    1.034 --    22 C    0.965
    45   1 H    1.006 --    22 C    0.977
    46   1 H    0.859 --    26 O    0.808
 ---------------------------------------------------------------------------

           -------------------------------------------------
          | TOTAL ENERGY              -87.048639995416 Eh   |
          | GRADIENT NORM               0.000807169924 Eh/α |
          | HOMO-LUMO GAP               0.910062914803 eV   |
           -------------------------------------------------

 * finished run on 2023/06/20 at 15:15:17.933
