                         Program Version 5.0.1 -  RELEASE  -
|  1> # ORCA input file
|  2> ! SP r2SCAN-3c CPCM
|  3>
|  4> %maxcore 1875.0
|  5> %pal nprocs 4 end
|  6> %cpcm smd true SMDsolvent "DMSO" end
|  7>
|  8> *xyz -1 1
|  9> C      -3.417452   -0.933582    2.414209
| 10> C      -4.218699   -0.557083    1.133833
| 11> C      -3.306910   -0.018345    0.053265
| 12> C      -3.315918    1.288454   -0.347425
| 13> C      -2.350803    1.766522   -1.422516
| 14> N      -1.049595    1.119927   -1.345259
| 15> C      -0.672827    0.121838   -2.164309
| 16> O      -1.375466   -0.281599   -3.111263
| 17> C       0.645497   -0.458527   -1.874090
| 18> N       1.389041    0.103430   -0.870467
| 19> C       2.558861   -0.365307   -0.568015
| 20> C       3.295578    0.350544    0.561167
| 21> C       2.553292    1.652956    0.902876
| 22> C       3.346320   -0.539591    1.810768
| 23> N       4.662298    0.675080    0.146846
| 24> N       3.083874   -1.459372   -1.212278
| 25> C       4.369350   -2.068252   -0.873627
| 26> C       2.393218   -2.129702   -2.244289
| 27> O       2.896671   -3.128407   -2.769090
| 28> C       1.124144   -1.547662   -2.582942
| 29> O       0.419497   -2.115467   -3.587550
| 30> C      -4.250024    2.225762    0.140954
| 31> C      -5.250276    1.766742    1.032659
| 32> C      -5.253430    0.480995    1.441271
| 33> F      -6.266845    0.035988    2.265517
| 34> H      -2.688979   -1.710415    2.182681
| 35> H      -4.093973   -1.302237    3.185969
| 36> H      -2.890601   -0.058592    2.794736
| 37> H      -4.710162   -1.488890    0.794988
| 38> H      -2.591788   -0.722820   -0.359324
| 39> H      -2.764320    1.559990   -2.418346
| 40> H      -2.199372    2.848431   -1.336159
| 41> H      -0.439349    1.359619   -0.578222
| 42> H       1.547604    1.438425    1.261957
| 43> H       2.482310    2.285958    0.019584
| 44> H       3.100848    2.188419    1.676510
| 45> H       3.954745   -1.425624    1.641436
| 46> H       2.339729   -0.850913    2.087794
| 47> H       3.779242    0.019308    2.639334
| 48> H       4.637399    1.389101   -0.569218
| 49> H       5.158569    1.058250    0.938427
| 50> H       4.211904   -2.914925   -0.202559
| 51> H       4.833567   -2.430617   -1.792340
| 52> H       5.023267   -1.338087   -0.407026
| 53> H      -0.419993   -1.584345   -3.683911
| 54> H      -4.245900    3.253853   -0.196529
| 55> H      -6.034142    2.440768    1.363368
| 56> **                         ****END OF INPUT****

CARTESIAN COORDINATES (ANGSTROEM)
---------------------------------
  C     -3.417452   -0.933582    2.414209
  C     -4.218699   -0.557083    1.133833
  C     -3.306910   -0.018345    0.053265
  C     -3.315918    1.288454   -0.347425
  C     -2.350803    1.766522   -1.422516
  N     -1.049595    1.119927   -1.345259
  C     -0.672827    0.121838   -2.164309
  O     -1.375466   -0.281599   -3.111263
  C      0.645497   -0.458527   -1.874090
  N      1.389041    0.103430   -0.870467
  C      2.558861   -0.365307   -0.568015
  C      3.295578    0.350544    0.561167
  C      2.553292    1.652956    0.902876
  C      3.346320   -0.539591    1.810768
  N      4.662298    0.675080    0.146846
  N      3.083874   -1.459372   -1.212278
  C      4.369350   -2.068252   -0.873627
  C      2.393218   -2.129702   -2.244289
  O      2.896671   -3.128407   -2.769090
  C      1.124144   -1.547662   -2.582942
  O      0.419497   -2.115467   -3.587550
  C     -4.250024    2.225762    0.140954
  C     -5.250276    1.766742    1.032659
  C     -5.253430    0.480995    1.441271
  F     -6.266845    0.035988    2.265517
  H     -2.688979   -1.710415    2.182681
  H     -4.093973   -1.302237    3.185969
  H     -2.890601   -0.058592    2.794736
  H     -4.710162   -1.488890    0.794988
  H     -2.591788   -0.722820   -0.359324
  H     -2.764320    1.559990   -2.418346
  H     -2.199372    2.848431   -1.336159
  H     -0.439349    1.359619   -0.578222
  H      1.547604    1.438425    1.261957
  H      2.482310    2.285958    0.019584
  H      3.100848    2.188419    1.676510
  H      3.954745   -1.425624    1.641436
  H      2.339729   -0.850913    2.087794
  H      3.779242    0.019308    2.639334
  H      4.637399    1.389101   -0.569218
  H      5.158569    1.058250    0.938427
  H      4.211904   -2.914925   -0.202559
  H      4.833567   -2.430617   -1.792340
  H      5.023267   -1.338087   -0.407026
  H     -0.419993   -1.584345   -3.683911
  H     -4.245900    3.253853   -0.196529
  H     -6.034142    2.440768    1.363368

 Total Charge           Charge          ....   -1
 Multiplicity           Mult            ....    1
 Number of Electrons    NEL             ....  186
 Basis Dimension        Dim             ....  625

ORBITAL ENERGIES
----------------

  NO   OCC          E(Eh)            E(eV)
   0   2.0000     -24.461632      -665.6348
   1   2.0000     -18.977321      -516.3992
   2   2.0000     -18.928458      -515.0695
   3   2.0000     -18.921282      -514.8743
   4   2.0000     -14.230937      -387.2435
   5   2.0000     -14.183239      -385.9456
   6   2.0000     -14.158367      -385.2688
   7   2.0000     -14.133878      -384.6024
   8   2.0000     -10.137169      -275.8464
   9   2.0000     -10.135350      -275.7969
  10   2.0000     -10.115950      -275.2690
  11   2.0000     -10.110148      -275.1111
  12   2.0000     -10.080126      -274.2942
  13   2.0000     -10.079802      -274.2853
  14   2.0000     -10.054553      -273.5983
  15   2.0000     -10.054129      -273.5868
  16   2.0000     -10.047232      -273.3991
  17   2.0000     -10.022605      -272.7289
  18   2.0000     -10.016987      -272.5761
  19   2.0000     -10.008178      -272.3364
  20   2.0000     -10.006359      -272.2869
  21   2.0000      -9.999016      -272.0870
  22   2.0000      -9.996009      -272.0052
  23   2.0000      -9.975435      -271.4454
  24   2.0000      -9.967124      -271.2192
  25   2.0000      -1.142770       -31.0964
  26   2.0000      -1.034893       -28.1609
  27   2.0000      -1.008164       -27.4335
  28   2.0000      -0.998253       -27.1638
  29   2.0000      -0.954434       -25.9715
  30   2.0000      -0.894119       -24.3302
  31   2.0000      -0.872857       -23.7516
  32   2.0000      -0.861498       -23.4425
  33   2.0000      -0.780263       -21.2320
  34   2.0000      -0.758535       -20.6408
  35   2.0000      -0.719760       -19.5857
  36   2.0000      -0.712697       -19.3935
  37   2.0000      -0.701387       -19.0857
  38   2.0000      -0.688180       -18.7263
  39   2.0000      -0.652273       -17.7492
  40   2.0000      -0.644684       -17.5427
  41   2.0000      -0.625059       -17.0087
  42   2.0000      -0.617445       -16.8015
  43   2.0000      -0.608239       -16.5510
  44   2.0000      -0.555798       -15.1240
  45   2.0000      -0.551043       -14.9946
  46   2.0000      -0.545000       -14.8302
  47   2.0000      -0.527529       -14.3548
  48   2.0000      -0.520484       -14.1631
  49   2.0000      -0.507411       -13.8074
  50   2.0000      -0.485362       -13.2074
  51   2.0000      -0.464263       -12.6333
  52   2.0000      -0.463079       -12.6010
  53   2.0000      -0.454427       -12.3656
  54   2.0000      -0.434600       -11.8261
  55   2.0000      -0.433333       -11.7916
  56   2.0000      -0.427954       -11.6452
  57   2.0000      -0.420136       -11.4325
  58   2.0000      -0.413674       -11.2566
  59   2.0000      -0.406478       -11.0608
  60   2.0000      -0.404837       -11.0162
  61   2.0000      -0.400524       -10.8988
  62   2.0000      -0.394494       -10.7347
  63   2.0000      -0.383773       -10.4430
  64   2.0000      -0.380212       -10.3461
  65   2.0000      -0.371780       -10.1166
  66   2.0000      -0.369254       -10.0479
  67   2.0000      -0.361905        -9.8479
  68   2.0000      -0.360844        -9.8191
  69   2.0000      -0.356703        -9.7064
  70   2.0000      -0.351804        -9.5731
  71   2.0000      -0.350166        -9.5285
  72   2.0000      -0.346660        -9.4331
  73   2.0000      -0.339053        -9.2261
  74   2.0000      -0.335894        -9.1401
  75   2.0000      -0.329917        -8.9775
  76   2.0000      -0.328180        -8.9302
  77   2.0000      -0.323347        -8.7987
  78   2.0000      -0.318029        -8.6540
  79   2.0000      -0.310738        -8.4556
  80   2.0000      -0.308766        -8.4020
  81   2.0000      -0.285039        -7.7563
  82   2.0000      -0.267086        -7.2678
  83   2.0000      -0.263541        -7.1713
  84   2.0000      -0.261793        -7.1238
  85   2.0000      -0.255951        -6.9648
  86   2.0000      -0.237199        -6.4545
  87   2.0000      -0.231523        -6.3000
  88   2.0000      -0.227039        -6.1781
  89   2.0000      -0.208763        -5.6807
  90   2.0000      -0.199927        -5.4403
  91   2.0000      -0.191870        -5.2210
  92   2.0000      -0.091582        -2.4921
  93   0.0000      -0.084099        -2.2885
  94   0.0000      -0.032436        -0.8826
  95   0.0000       0.010476         0.2851
  96   0.0000       0.025011         0.6806
  97   0.0000       0.050666         1.3787

MULLIKEN ATOMIC CHARGES
-----------------------
   0 C :   -0.511097
   1 C :   -0.029156
   2 C :   -0.541435
   3 C :    0.252293
   4 C :   -0.382318
   5 N :   -0.092119
   6 C :    0.054007
   7 O :   -0.542771
   8 C :    0.123378
   9 N :   -0.136892
  10 C :    0.051927
  11 C :    0.233206
  12 C :   -0.594666
  13 C :   -0.525682
  14 N :   -0.687531
  15 N :    0.244913
  16 C :   -0.491182
  17 C :    0.073768
  18 O :   -0.437980
  19 C :    0.054700
  20 O :   -0.374498
  21 C :   -0.682621
  22 C :   -0.261893
  23 C :    0.084644
  24 F :   -0.290799
  25 H :    0.152313
  26 H :    0.149406
  27 H :    0.150918
  28 H :    0.139362
  29 H :    0.163283
  30 H :    0.192831
  31 H :    0.180011
  32 H :    0.303240
  33 H :    0.176156
  34 H :    0.177940
  35 H :    0.169897
  36 H :    0.178247
  37 H :    0.184696
  38 H :    0.180644
  39 H :    0.287035
  40 H :    0.293731
  41 H :    0.195419
  42 H :    0.187672
  43 H :    0.227095
  44 H :    0.388159
  45 H :    0.165029
  46 H :    0.166721
Sum of atomic charges:   -1.0000000

LOEWDIN ATOMIC CHARGES
----------------------
   0 C :   -0.443560
   1 C :   -0.202821
   2 C :   -0.346040
   3 C :   -0.097819
   4 C :   -0.006091
   5 N :   -0.603689
   6 C :    0.365382
   7 O :   -0.541947
   8 C :    0.201000
   9 N :   -0.600761
  10 C :    0.369241
  11 C :    0.064093
  12 C :   -0.363598
  13 C :   -0.354931
  14 N :   -0.708717
  15 N :   -0.629680
  16 C :   -0.100389
  17 C :    0.378204
  18 O :   -0.480365
  19 C :    0.272105
  20 O :   -0.470412
  21 C :   -0.444756
  22 C :   -0.220231
  23 C :    0.093075
  24 F :   -0.369936
  25 H :    0.151728
  26 H :    0.150565
  27 H :    0.152468
  28 H :    0.146880
  29 H :    0.167349
  30 H :    0.206041
  31 H :    0.192649
  32 H :    0.296569
  33 H :    0.168310
  34 H :    0.169778
  35 H :    0.161588
  36 H :    0.170921
  37 H :    0.171772
  38 H :    0.169788
  39 H :    0.253742
  40 H :    0.255236
  41 H :    0.190090
  42 H :    0.204086
  43 H :    0.214420
  44 H :    0.313532
  45 H :    0.159052
  46 H :    0.176077

  Mayer bond orders larger than 0.100000
B(  0-C ,  1-C ) :   0.8220 B(  0-C , 25-H ) :   0.9782 B(  0-C , 26-H ) :   0.9715
B(  0-C , 27-H ) :   0.9866 B(  1-C ,  2-C ) :   0.9324 B(  1-C , 23-C ) :   1.0166
B(  1-C , 28-H ) :   0.9984 B(  2-C ,  3-C ) :   1.5602 B(  2-C , 23-C ) :   0.1101
B(  2-C , 29-H ) :   0.9634 B(  3-C ,  4-C ) :   0.7978 B(  3-C , 21-C ) :   1.2062
B(  4-C ,  5-N ) :   0.8674 B(  4-C , 30-H ) :   0.9534 B(  4-C , 31-H ) :   0.9951
B(  5-N ,  6-C ) :   1.2768 B(  5-N , 32-H ) :   0.8872 B(  6-C ,  7-O ) :   1.6624
B(  6-C ,  8-C ) :   0.9662 B(  7-O , 44-H ) :   0.1194 B(  8-C ,  9-N ) :   1.0003
B(  8-C , 19-C ) :   1.2629 B(  9-N , 10-C ) :   1.6754 B(  9-N , 11-C ) :  -0.1199
B( 10-C , 11-C ) :   0.8956 B( 10-C , 15-N ) :   1.2686 B( 10-C , 19-C ) :   0.1058
B( 11-C , 12-C ) :   0.9691 B( 11-C , 13-C ) :   0.9311 B( 11-C , 14-N ) :   0.7713
B( 12-C , 33-H ) :   0.9779 B( 12-C , 34-H ) :   0.9665 B( 12-C , 35-H ) :   0.9665
B( 13-C , 36-H ) :   0.9467 B( 13-C , 37-H ) :   0.9744 B( 13-C , 38-H ) :   0.9630
B( 14-N , 39-H ) :   0.9083 B( 14-N , 40-H ) :   0.9119 B( 15-N , 16-C ) :   0.8488
B( 15-N , 17-C ) :   1.0531 B( 16-C , 41-H ) :   0.9385 B( 16-C , 42-H ) :   0.9406
B( 16-C , 43-H ) :   0.9222 B( 17-C , 18-O ) :   1.8937 B( 17-C , 19-C ) :   1.0453
B( 19-C , 20-O ) :   1.1378 B( 20-O , 44-H ) :   0.7283 B( 21-C , 22-C ) :   1.0907
B( 21-C , 45-H ) :   0.9973 B( 22-C , 23-C ) :   1.6485 B( 22-C , 46-H ) :   0.9522
B( 23-C , 24-F ) :   0.8312

Dispersion correction           -0.021408071
FINAL SINGLE POINT ENERGY     -1205.475532049101

DIPOLE MOMENT
-------------
                                X             Y             Z
Electronic contribution:    -11.20833      -6.46964     -15.21385
Nuclear contribution   :     19.48076       7.33824      16.21020
                        -----------------------------------------
Total Dipole Moment    :      8.27243       0.86860       0.99635
                        -----------------------------------------
Magnitude (a.u.)       :      8.37736
Magnitude (Debye)      :     21.29357

Rotational constants in cm-1:     0.011877     0.003528     0.003197
Rotational constants in MHz :   356.055804   105.778328    95.854379

                             ****ORCA TERMINATED NORMALLY****
TOTAL RUN TIME: 0 days 0 hours 3 minutes 0 seconds 158 msec
