   * xtb version 6.5.1 (579679a) compiled by 'ehlert@majestix' on 2022-07-11
          program call               : /lustre/hpc/kemi/ree/PhD/git/ReactivityQM/dep/xtb-6.5.1/bin/xtb --gfn 1 /lustre/hpc/kemi/ree/PhD/git/ReactivityQM/calculations/RaltegravirCLI/reac02prodE08/conf17/RaltegravirCLI_reac02prodE08_conf17_gfn1.xyz --opt --vfukui --chrg -1 --uhf 0 --alpb DMSO

   ID    Z sym.   atoms
    1    6 C      1-5, 7, 9, 11-14, 17, 18, 20, 22-24
    2    7 N      6, 10, 15, 16
    3    8 O      8, 19, 21
    4    9 F      25
    5    1 H      26-47

      * Solvation model:               ALPB
        Solvent                        DMSO
        Solvent mass                       7.8130E+01 g/mol
          :  Hamiltonian                  GFN1-xTB          :
 * total energy  :   -80.1792491 Eh     change       -0.1908106E-08 Eh
 * total energy  :   -80.1875207 Eh     change       -0.8271574E-02 Eh
 * total energy  :   -80.1898518 Eh     change       -0.2331171E-02 Eh
 * total energy  :   -80.1902193 Eh     change       -0.3675002E-03 Eh
 * total energy  :   -80.1905445 Eh     change       -0.3251175E-03 Eh
 * total energy  :   -80.1907066 Eh     change       -0.1621802E-03 Eh
 * total energy  :   -80.1908729 Eh     change       -0.1662129E-03 Eh
 * total energy  :   -80.1909571 Eh     change       -0.8428226E-04 Eh
 * total energy  :   -80.1910161 Eh     change       -0.5900693E-04 Eh
 * total energy  :   -80.1910665 Eh     change       -0.5031880E-04 Eh
 * total energy  :   -80.1911789 Eh     change       -0.1314894E-04 Eh
 * total energy  :   -80.1911900 Eh     change       -0.1108005E-04 Eh
 * total energy  :   -80.1911968 Eh     change       -0.6772290E-05 Eh
 * total energy  :   -80.1912087 Eh     change       -0.1191222E-04 Eh
 * total energy  :   -80.1912032 Eh     change        0.5471740E-05 Eh
 * total energy  :   -80.1912129 Eh     change       -0.9735961E-05 Eh
 * total energy  :   -80.1912218 Eh     change       -0.8864658E-05 Eh
 * total energy  :   -80.1912296 Eh     change       -0.7828636E-05 Eh
 * total energy  :   -80.1912343 Eh     change       -0.4640383E-05 Eh
   *** GEOMETRY OPTIMIZATION CONVERGED AFTER 22 ITERATIONS ***

 final structure:
================
47
 xtb: 6.5.1 (579679a)
C           -3.41745249579378       -0.93358225870600        2.41420928733041
C           -4.21869890526999       -0.55708316094327        1.13383335689102
C           -3.30691011529643       -0.01834492144616        0.05326525349080
C           -3.31591847644586        1.28845413536598       -0.34742485796075
C           -2.35080259214299        1.76652207095158       -1.42251612849125
N           -1.04959496492259        1.11992677404866       -1.34525907731680
C           -0.67282707271817        0.12183830350531       -2.16430909389863
O           -1.37546647197287       -0.28159928310624       -3.11126292185630
C            0.64549703290344       -0.45852688890933       -1.87408975122294
N            1.38904139148438        0.10343045668835       -0.87046695994759
C            2.55886105015759       -0.36530692154423       -0.56801472004381
C            3.29557845066940        0.35054449574662        0.56116716369374
C            2.55329185406822        1.65295557813418        0.90287616022456
C            3.34632044298802       -0.53959134249671        1.81076766452557
N            4.66229780093830        0.67507976902480        0.14684556793826
N            3.08387399864447       -1.45937173644883       -1.21227786122080
C            4.36935009694837       -2.06825247041090       -0.87362678527843
C            2.39321824993156       -2.12970208563754       -2.24428890726069
O            2.89667118417242       -3.12840698581003       -2.76909027848331
C            1.12414449484988       -1.54766241397236       -2.58294181761946
O            0.41949749577537       -2.11546655611835       -3.58755010005819
C           -4.25002413701439        2.22576209112598        0.14095413075619
C           -5.25027606000062        1.76674231224500        1.03265852878708
C           -5.25343008402402        0.48099463681551        1.44127097418390
F           -6.26684523457734        0.03598814747789        2.26551744343919
H           -2.68897910662218       -1.71041548779161        2.18268130132017
H           -4.09397305021252       -1.30223652144608        3.18596921976165
H           -2.89060097163322       -0.05859238865002        2.79473574451773
H           -4.71016158656106       -1.48888988765741        0.79498822906260
H           -2.59178786704728       -0.72281961675938       -0.35932384706335
H           -2.76431950001848        1.55999002591595       -2.41834645363993
H           -2.19937243643620        2.84843148078345       -1.33615857819690
H           -0.43934907661839        1.35961928808137       -0.57822186202195
H            1.54760407885220        1.43842451200883        1.26195685456181
H            2.48231020245490        2.28595829906584        0.01958384287729
H            3.10084771175846        2.18841914613177        1.67651013252488
H            3.95474479784465       -1.42562359330459        1.64143620198848
H            2.33972930272092       -0.85091293573456        2.08779434685756
H            3.77924247039505        0.01930845160573        2.63933383392975
H            4.63739896512419        1.38910135725596       -0.56921823534394
H            5.15856856473695        1.05825032034593        0.93842734235187
H            4.21190379042745       -2.91492458763011       -0.20255944852343
H            4.83356692379400       -2.43061694349478       -1.79233989523727
H            5.02326703470497       -1.33808712331373       -0.40702604206005
H           -0.41999268433911       -1.58434528588643       -3.68391059369146
H           -4.24590018410035        3.25385304654821       -0.19652863178031
H           -6.03414231257498        2.44076769836220        1.36336826719719

          :  Hamiltonian                  GFN1-xTB          :
         :: total energy             -80.191234277876 Eh    ::
         :: gradient norm              0.000357020054 Eh/a0 ::
         :: HOMO-LUMO gap              0.094254665638 eV    ::
         :: SCC energy               -81.043578464391 Eh    ::
         :: -> Gsolv                  -0.099478018122 Eh    ::
         :: repulsion energy           0.882406468806 Eh    ::

    * Orbital Energies and Occupations

         #    Occupation            Energy/Eh            Energy/eV
      -------------------------------------------------------------
         1        2.0000           -0.8035806             -21.8665
       ...           ...                  ...                  ...
        56        2.0000           -0.4573893             -12.4462
        57        2.0000           -0.4452922             -12.1170
        58        2.0000           -0.4418992             -12.0247
        59        2.0000           -0.4404151             -11.9843
        60        2.0000           -0.4295108             -11.6876
        61        2.0000           -0.4254873             -11.5781
        62        2.0000           -0.4200910             -11.4313
        63        2.0000           -0.4096359             -11.1468
        64        2.0000           -0.4069581             -11.0739
        65        2.0000           -0.4048303             -11.0160
        66        2.0000           -0.3924898             -10.6802
        67        2.0000           -0.3828478             -10.4178
        68        1.7218           -0.2937340              -7.9929 (HOMO)
        69        0.2782           -0.2902702              -7.8987 (LUMO)
        70                         -0.2524398              -6.8692
        71                         -0.2026882              -5.5154
        72                         -0.1983990              -5.3987
        73                         -0.1298018              -3.5321
        74                         -0.1274547              -3.4682
        75                         -0.1217383              -3.3127
        76                         -0.1158100              -3.1514
        77                         -0.1102585              -3.0003
        78                         -0.0965385              -2.6269
        79                         -0.0944096              -2.5690
       ...                                ...                  ...
       144                          0.7068865              19.2354
      -------------------------------------------------------------
                  HL-Gap            0.0034638 Eh            0.0943 eV

Wiberg/Mayer (AO) data.
largest (>0.10) Wiberg bond orders for each atom

     #   Z sym  total        # sym  WBO       # sym  WBO       # sym  WBO
 ---------------------------------------------------------------------------
     1   6 C    3.970 --    28 H    0.989    26 H    0.988    27 H    0.987
                             2 C    0.964
     2   6 C    3.992 --    24 C    1.007     3 C    1.006     1 C    0.964
                            29 H    0.961
     3   6 C    3.811 --     4 C    1.594     2 C    1.006    30 H    0.975
     4   6 C    3.981 --     3 C    1.594    22 C    1.306     5 C    0.980
     5   6 C    3.937 --     4 C    0.980    32 H    0.976    31 H    0.968
                             6 N    0.939
     6   7 N    3.334 --     7 C    1.267     5 C    0.939    33 H    0.905
                             8 O    0.150
     7   6 C    3.868 --     8 O    1.465     6 N    1.267     9 C    1.055
     8   8 O    1.847 --     7 C    1.465     6 N    0.150
     9   6 C    3.874 --    20 C    1.399    10 N    1.180     7 C    1.055
    10   7 N    3.040 --    11 C    1.563     9 C    1.180
    11   6 C    3.905 --    10 N    1.563    16 N    1.166    12 C    0.975
    12   6 C    3.966 --    13 C    0.992    14 C    0.987    15 N    0.978
                            11 C    0.975
    13   6 C    3.995 --    12 C    0.992    36 H    0.986    35 H    0.984
                            34 H    0.983
    14   6 C    3.993 --    12 C    0.987    38 H    0.986    39 H    0.984
                            37 H    0.982
    15   7 N    2.992 --    12 C    0.978    40 H    0.943    41 H    0.943
    16   7 N    3.422 --    11 C    1.166    18 C    1.063    17 C    0.940
                            19 O    0.116
    17   6 C    3.935 --    42 H    0.978    43 H    0.977    44 H    0.970
                            16 N    0.940
    18   6 C    3.862 --    19 O    1.517    20 C    1.143    16 N    1.063
    19   8 O    1.810 --    18 C    1.517    16 N    0.116
    20   6 C    3.833 --     9 C    1.399    18 C    1.143    21 O    1.080
    21   8 O    2.018 --    20 C    1.080    45 H    0.767
    22   6 C    3.753 --     4 C    1.306    23 C    1.272    46 H    0.976
    23   6 C    3.989 --    24 C    1.625    22 C    1.272    47 H    0.971
    24   6 C    3.690 --    23 C    1.625     2 C    1.007    25 F    0.859
    25   9 F    0.965 --    24 C    0.859
    26   1 H    1.010 --     1 C    0.988
    27   1 H    1.010 --     1 C    0.987
    28   1 H    1.017 --     1 C    0.989
    29   1 H    1.006 --     2 C    0.961
    30   1 H    1.003 --     3 C    0.975
    31   1 H    1.018 --     5 C    0.968
    32   1 H    1.010 --     5 C    0.976
    33   1 H    0.971 --     6 N    0.905
    34   1 H    1.014 --    13 C    0.983
    35   1 H    1.011 --    13 C    0.984
    36   1 H    1.004 --    13 C    0.986
    37   1 H    1.005 --    14 C    0.982
    38   1 H    1.004 --    14 C    0.986
    39   1 H    1.001 --    14 C    0.984
    40   1 H    0.959 --    15 N    0.943
    41   1 H    0.957 --    15 N    0.943
    42   1 H    1.005 --    17 C    0.978
    43   1 H    1.014 --    17 C    0.977
    44   1 H    1.031 --    17 C    0.970
    45   1 H    0.872 --    21 O    0.767
    46   1 H    1.002 --    22 C    0.976
    47   1 H    1.006 --    23 C    0.971
 ---------------------------------------------------------------------------

           -------------------------------------------------
          | TOTAL ENERGY              -80.191234277876 Eh   |
          | GRADIENT NORM               0.000357020054 Eh/α |
          | HOMO-LUMO GAP               0.094254665638 eV   |
           -------------------------------------------------

 * finished run on 2023/06/20 at 15:07:06.373
