   * xtb version 6.5.1 (579679a) compiled by 'ehlert@majestix' on 2022-07-11
          program call               : /lustre/hpc/kemi/ree/PhD/git/ReactivityQM/dep/xtb-6.5.1/bin/xtb --gfn 1 /lustre/hpc/kemi/ree/PhD/git/ReactivityQM/calculations/R01/reac01prodE02/conf06/R01_reac01prodE02_conf06_gfn1.xyz --opt --vfukui --chrg -1 --uhf 0 --alpb DMSO

   ID    Z sym.   atoms
    1    6 C      1, 3, 5, 6, 9, 10
    2    8 O      2, 4, 11
    3    7 N      7, 8
    4    1 H      12-20

      * Solvation model:               ALPB
        Solvent                        DMSO
        Solvent mass                       7.8130E+01 g/mol
          :  Hamiltonian                  GFN1-xTB          :
 * total energy  :   -38.2750218 Eh     change       -0.3112177E-11 Eh
 * total energy  :   -38.2863877 Eh     change       -0.1136594E-01 Eh
 * total energy  :   -38.2899396 Eh     change       -0.3551864E-02 Eh
 * total energy  :   -38.2904606 Eh     change       -0.5210624E-03 Eh
 * total energy  :   -38.2906714 Eh     change       -0.2107633E-03 Eh
 * total energy  :   -38.2907889 Eh     change       -0.1175622E-03 Eh
 * total energy  :   -38.2910558 Eh     change       -0.2668628E-03 Eh
 * total energy  :   -38.2907751 Eh     change        0.2807573E-03 Eh
 * total energy  :   -38.2916457 Eh     change       -0.8706842E-03 Eh
 * total energy  :   -38.2919630 Eh     change       -0.3172484E-03 Eh
 * total energy  :   -38.3033092 Eh     change       -0.2253408E-04 Eh
 * total energy  :   -38.3033427 Eh     change       -0.3350043E-04 Eh
 * total energy  :   -38.3033619 Eh     change       -0.1924955E-04 Eh
 * total energy  :   -38.3033847 Eh     change       -0.2278030E-04 Eh
 * total energy  :   -38.3033981 Eh     change       -0.1344181E-04 Eh
 * total energy  :   -38.3034114 Eh     change       -0.1327291E-04 Eh
 * total energy  :   -38.3034089 Eh     change        0.2535559E-05 Eh
 * total energy  :   -38.3034202 Eh     change       -0.1127955E-04 Eh
 * total energy  :   -38.3034227 Eh     change       -0.2538731E-05 Eh
   *** GEOMETRY OPTIMIZATION CONVERGED AFTER 57 ITERATIONS ***

 final structure:
================
20
 xtb: 6.5.1 (579679a)
C           -1.44066806089563        2.14906708279952       -0.28740415712375
O           -1.37780354883821        0.95163338904817       -1.05530094453378
C           -1.02725332708652       -0.21527668493524       -0.35047515823771
O           -2.06162326612223       -0.71042359011516        0.49686580614811
C           -3.00539154119245       -1.51931924691327       -0.18030038783428
C            0.28100375669211       -0.43454428616608        0.04565213421216
N            0.75542786763825       -1.42565946450554        0.82602114081479
N            2.13475947471282       -1.36734133497437        0.72125002784302
C            2.42925784557418       -0.40332928536836       -0.07448176521310
C            3.78297655343636        0.04394630967435       -0.50010865658481
O            1.32395893526551        0.25042871593852       -0.55760883597218
H           -1.75900995781834        2.95093985830607       -0.95723484266507
H           -2.16653416412226        2.06102975339119        0.53190059801784
H           -0.45912509033301        2.40494422106797        0.13438854041799
H           -3.71451873514429       -1.89517166656128        0.56079186207401
H           -3.55473383428429       -0.94275089006293       -0.93670835154647
H           -2.52029048247863       -2.37058797623786       -0.67818287953175
H            3.89748979564102       -0.04763382155785       -1.58140469115658
H            4.53668483704686       -0.56919848584880       -0.01023878440867
H            3.94539194230628        1.08924540302065       -0.23319765471969

          :  Hamiltonian                  GFN1-xTB          :
         :: total energy             -38.303422692425 Eh    ::
         :: gradient norm              0.000428386741 Eh/a0 ::
         :: HOMO-LUMO gap              2.789231841581 eV    ::
         :: SCC energy               -38.606835359896 Eh    ::
         :: -> Gsolv                  -0.102242375097 Eh    ::
         :: repulsion energy           0.311500479035 Eh    ::

    * Orbital Energies and Occupations

         #    Occupation            Energy/Eh            Energy/eV
      -------------------------------------------------------------
         1        2.0000           -0.7737047             -21.0536
       ...           ...                  ...                  ...
        19        2.0000           -0.5100196             -13.8783
        20        2.0000           -0.5066829             -13.7875
        21        2.0000           -0.4932665             -13.4225
        22        2.0000           -0.4753058             -12.9337
        23        2.0000           -0.4697829             -12.7834
        24        2.0000           -0.4609397             -12.5428
        25        2.0000           -0.4214342             -11.4678
        26        2.0000           -0.4211435             -11.4599
        27        2.0000           -0.4184611             -11.3869
        28        2.0000           -0.3976544             -10.8207
        29        2.0000           -0.3877509             -10.5512
        30        2.0000           -0.3716115             -10.1121
        31        2.0000           -0.2901007              -7.8940 (HOMO)
        32                         -0.1875983              -5.1048 (LUMO)
        33                         -0.1503193              -4.0904
        34                         -0.1167381              -3.1766
        35                         -0.1066855              -2.9031
        36                         -0.1045068              -2.8438
        37                         -0.0501789              -1.3654
        38                         -0.0492663              -1.3406
        39                         -0.0489387              -1.3317
        40                         -0.0474662              -1.2916
        41                         -0.0448012              -1.2191
        42                         -0.0409296              -1.1138
       ...                                ...                  ...
        62                          0.6466757              17.5969
      -------------------------------------------------------------
                  HL-Gap            0.1025024 Eh            2.7892 eV

Wiberg/Mayer (AO) data.
largest (>0.10) Wiberg bond orders for each atom

     #   Z sym  total        # sym  WBO       # sym  WBO       # sym  WBO
 ---------------------------------------------------------------------------
     1   6 C    3.937 --    12 H    0.986    13 H    0.983    14 H    0.982
                             2 O    0.945
     2   8 O    1.992 --     1 C    0.945     3 C    0.926
     3   6 C    3.582 --     6 C    1.422     2 O    0.926     4 O    0.900
                             7 N    0.154
     4   8 O    1.991 --     5 C    0.959     3 C    0.900
     5   6 C    3.935 --    15 H    0.985    16 H    0.982    17 H    0.981
                             4 O    0.959
     6   6 C    3.862 --     3 C    1.422     7 N    1.329    11 O    0.969
     7   7 N    2.817 --     6 C    1.329     8 N    1.145     3 C    0.154
                             9 C    0.105
     8   7 N    2.985 --     9 C    1.679     7 N    1.145
     9   6 C    3.887 --     8 N    1.679    10 C    1.018    11 O    1.004
                             7 N    0.105
    10   6 C    3.996 --     9 C    1.018    19 H    0.987    20 H    0.975
                            18 H    0.975
    11   8 O    2.190 --     9 C    1.004     6 C    0.969
    12   1 H    1.022 --     1 C    0.986
    13   1 H    1.019 --     1 C    0.983
    14   1 H    1.020 --     1 C    0.982
    15   1 H    1.023 --     5 C    0.985
    16   1 H    1.024 --     5 C    0.982
    17   1 H    1.027 --     5 C    0.981
    18   1 H    1.007 --    10 C    0.975
    19   1 H    1.007 --    10 C    0.987
    20   1 H    1.006 --    10 C    0.975
 ---------------------------------------------------------------------------

           -------------------------------------------------
          | TOTAL ENERGY              -38.303422692425 Eh   |
          | GRADIENT NORM               0.000428386741 Eh/α |
          | HOMO-LUMO GAP               2.789231841581 eV   |
           -------------------------------------------------

 * finished run on 2023/06/20 at 14:53:00.873
