                         Program Version 5.0.1 -  RELEASE  -
|  1> # ORCA input file
|  2> ! SP r2SCAN-3c CPCM
|  3>
|  4> %maxcore 1875.0
|  5> %pal nprocs 4 end
|  6> %cpcm smd true SMDsolvent "DMSO" end
|  7>
|  8> *xyz -1 1
|  9> C      -5.387171    1.467503   -1.657394
| 10> O      -4.259494    0.754739   -1.189720
| 11> C      -3.512417    1.365912   -0.113580
| 12> C      -2.772413    2.614672   -0.633507
| 13> O      -4.357543    1.746759    0.923249
| 14> C      -2.508332    0.309023    0.352930
| 15> N      -1.417713    0.137441   -0.439467
| 16> C      -0.491193   -0.716717   -0.140653
| 17> C       0.646232   -0.869177   -1.143644
| 18> C       0.650141   -2.277939   -1.757159
| 19> C       0.472060    0.168297   -2.263038
| 20> N       1.919656   -0.581537   -0.456560
| 21> C       3.127941   -0.714429   -1.033458
| 22> O       3.349334   -1.194536   -2.134409
| 23> C       4.232498   -0.226913   -0.162788
| 24> N       5.503040   -0.224724   -0.423855
| 25> N       6.127615    0.315679    0.661932
| 26> C       5.199541    0.609563    1.518075
| 27> C       5.362298    1.221083    2.855141
| 28> O       3.977622    0.292567    1.058548
| 29> N      -0.581690   -1.488940    1.003880
| 30> C       0.444306   -2.436776    1.434918
| 31> C      -1.679075   -1.423793    1.856959
| 32> O      -1.719198   -2.169986    2.842722
| 33> C      -2.729768   -0.436698    1.507628
| 34> O      -3.754497   -0.313940    2.260542
| 35> H      -5.100922    2.309035   -2.303370
| 36> H      -5.989236    0.769133   -2.244742
| 37> H      -5.996438    1.849982   -0.828266
| 38> H      -2.133444    2.998475    0.159610
| 39> H      -2.161690    2.350059   -1.494081
| 40> H      -3.487966    3.385046   -0.913259
| 41> H       1.272021   -2.302015   -2.650322
| 42> H      -0.369415   -2.543839   -2.035402
| 43> H       1.028342   -3.019251   -1.057680
| 44> H       0.454834    1.173105   -1.844369
| 45> H       1.295354    0.089785   -2.971009
| 46> H      -0.466627   -0.009176   -2.785505
| 47> H       1.867494   -0.048856    0.397333
| 48> H       4.927434    0.574614    3.617003
| 49> H       6.419243    1.369814    3.061618
| 50> H       4.845407    2.180133    2.891916
| 51> H       0.127727   -3.456290    1.206397
| 52> H       1.394236   -2.228820    0.955939
| 53> H       0.564259   -2.343631    2.515844
| 54> H      -4.332394    0.975566    1.595050
| 55> **                         ****END OF INPUT****

CARTESIAN COORDINATES (ANGSTROEM)
---------------------------------
  C     -5.387171    1.467503   -1.657394
  O     -4.259494    0.754739   -1.189720
  C     -3.512417    1.365912   -0.113580
  C     -2.772413    2.614672   -0.633507
  O     -4.357543    1.746759    0.923249
  C     -2.508332    0.309023    0.352930
  N     -1.417713    0.137441   -0.439467
  C     -0.491193   -0.716717   -0.140653
  C      0.646232   -0.869177   -1.143644
  C      0.650141   -2.277939   -1.757159
  C      0.472060    0.168297   -2.263038
  N      1.919656   -0.581537   -0.456560
  C      3.127941   -0.714429   -1.033458
  O      3.349334   -1.194536   -2.134409
  C      4.232498   -0.226913   -0.162788
  N      5.503040   -0.224724   -0.423855
  N      6.127615    0.315679    0.661932
  C      5.199541    0.609563    1.518075
  C      5.362298    1.221083    2.855141
  O      3.977622    0.292567    1.058548
  N     -0.581690   -1.488940    1.003880
  C      0.444306   -2.436776    1.434918
  C     -1.679075   -1.423793    1.856959
  O     -1.719198   -2.169986    2.842722
  C     -2.729768   -0.436698    1.507628
  O     -3.754497   -0.313940    2.260542
  H     -5.100922    2.309035   -2.303370
  H     -5.989236    0.769133   -2.244742
  H     -5.996438    1.849982   -0.828266
  H     -2.133444    2.998475    0.159610
  H     -2.161690    2.350059   -1.494081
  H     -3.487966    3.385046   -0.913259
  H      1.272021   -2.302015   -2.650322
  H     -0.369415   -2.543839   -2.035402
  H      1.028342   -3.019251   -1.057680
  H      0.454834    1.173105   -1.844369
  H      1.295354    0.089785   -2.971009
  H     -0.466627   -0.009176   -2.785505
  H      1.867494   -0.048856    0.397333
  H      4.927434    0.574614    3.617003
  H      6.419243    1.369814    3.061618
  H      4.845407    2.180133    2.891916
  H      0.127727   -3.456290    1.206397
  H      1.394236   -2.228820    0.955939
  H      0.564259   -2.343631    2.515844
  H     -4.332394    0.975566    1.595050

 Total Charge           Charge          ....   -1
 Multiplicity           Mult            ....    1
 Number of Electrons    NEL             ....  194
 Basis Dimension        Dim             ....  649

ORBITAL ENERGIES
----------------

  NO   OCC          E(Eh)            E(eV)
   0   2.0000     -19.063739      -518.7507
   1   2.0000     -18.929039      -515.0853
   2   2.0000     -18.929005      -515.0844
   3   2.0000     -18.907847      -514.5087
   4   2.0000     -18.895831      -514.1817
   5   2.0000     -18.880038      -513.7520
   6   2.0000     -14.209732      -386.6665
   7   2.0000     -14.202377      -386.4663
   8   2.0000     -14.197171      -386.3247
   9   2.0000     -14.195417      -386.2769
  10   2.0000     -14.135513      -384.6469
  11   2.0000     -10.152433      -276.2617
  12   2.0000     -10.145307      -276.0678
  13   2.0000     -10.140346      -275.9328
  14   2.0000     -10.111440      -275.1463
  15   2.0000     -10.104064      -274.9455
  16   2.0000     -10.094132      -274.6753
  17   2.0000     -10.088470      -274.5212
  18   2.0000     -10.062184      -273.8060
  19   2.0000     -10.048921      -273.4450
  20   2.0000     -10.048214      -273.4258
  21   2.0000     -10.043919      -273.3089
  22   2.0000     -10.030106      -272.9331
  23   2.0000     -10.014413      -272.5060
  24   2.0000     -10.010988      -272.4128
  25   2.0000      -9.999224      -272.0927
  26   2.0000      -1.152920       -31.3725
  27   2.0000      -1.017763       -27.6948
  28   2.0000      -0.997614       -27.1465
  29   2.0000      -0.989388       -26.9226
  30   2.0000      -0.973042       -26.4778
  31   2.0000      -0.941340       -25.6152
  32   2.0000      -0.932570       -25.3765
  33   2.0000      -0.917038       -24.9539
  34   2.0000      -0.904339       -24.6083
  35   2.0000      -0.854411       -23.2497
  36   2.0000      -0.828671       -22.5493
  37   2.0000      -0.766236       -20.8503
  38   2.0000      -0.712545       -19.3893
  39   2.0000      -0.708639       -19.2830
  40   2.0000      -0.684666       -18.6307
  41   2.0000      -0.666117       -18.1260
  42   2.0000      -0.663728       -18.0610
  43   2.0000      -0.651973       -17.7411
  44   2.0000      -0.635139       -17.2830
  45   2.0000      -0.610988       -16.6258
  46   2.0000      -0.596697       -16.2369
  47   2.0000      -0.579751       -15.7758
  48   2.0000      -0.570012       -15.5108
  49   2.0000      -0.538846       -14.6628
  50   2.0000      -0.534340       -14.5401
  51   2.0000      -0.520520       -14.1641
  52   2.0000      -0.495443       -13.4817
  53   2.0000      -0.492449       -13.4002
  54   2.0000      -0.467321       -12.7164
  55   2.0000      -0.457402       -12.4465
  56   2.0000      -0.449548       -12.2328
  57   2.0000      -0.440822       -11.9954
  58   2.0000      -0.434950       -11.8356
  59   2.0000      -0.425809       -11.5868
  60   2.0000      -0.420526       -11.4431
  61   2.0000      -0.409155       -11.1337
  62   2.0000      -0.404879       -11.0173
  63   2.0000      -0.400620       -10.9014
  64   2.0000      -0.393286       -10.7019
  65   2.0000      -0.389445       -10.5973
  66   2.0000      -0.379724       -10.3328
  67   2.0000      -0.379693       -10.3320
  68   2.0000      -0.373870       -10.1735
  69   2.0000      -0.365997        -9.9593
  70   2.0000      -0.363566        -9.8931
  71   2.0000      -0.357950        -9.7403
  72   2.0000      -0.351962        -9.5774
  73   2.0000      -0.349336        -9.5059
  74   2.0000      -0.345966        -9.4142
  75   2.0000      -0.345220        -9.3939
  76   2.0000      -0.342900        -9.3308
  77   2.0000      -0.341026        -9.2798
  78   2.0000      -0.331925        -9.0321
  79   2.0000      -0.327816        -8.9203
  80   2.0000      -0.315894        -8.5959
  81   2.0000      -0.314367        -8.5544
  82   2.0000      -0.311477        -8.4757
  83   2.0000      -0.298589        -8.1250
  84   2.0000      -0.294600        -8.0165
  85   2.0000      -0.265892        -7.2353
  86   2.0000      -0.265452        -7.2233
  87   2.0000      -0.260083        -7.0772
  88   2.0000      -0.242680        -6.6037
  89   2.0000      -0.239463        -6.5161
  90   2.0000      -0.236204        -6.4274
  91   2.0000      -0.233457        -6.3527
  92   2.0000      -0.222014        -6.0413
  93   2.0000      -0.211354        -5.7512
  94   2.0000      -0.208246        -5.6667
  95   2.0000      -0.174735        -4.7548
  96   2.0000      -0.150016        -4.0821
  97   0.0000      -0.082843        -2.2543
  98   0.0000      -0.028543        -0.7767
  99   0.0000      -0.018343        -0.4991
 100   0.0000      -0.005690        -0.1548
 101   0.0000       0.050301         1.3687

MULLIKEN ATOMIC CHARGES
-----------------------
   0 C :   -0.367901
   1 O :   -0.194847
   2 C :   -0.011415
   3 C :   -0.579568
   4 O :   -0.446081
   5 C :    0.016635
   6 N :   -0.119607
   7 C :    0.044563
   8 C :    0.053256
   9 C :   -0.550762
  10 C :   -0.688619
  11 N :   -0.093248
  12 C :   -0.122088
  13 O :   -0.432134
  14 C :    0.415064
  15 N :   -0.179189
  16 N :   -0.284240
  17 C :    0.394127
  18 C :   -0.635363
  19 O :   -0.056053
  20 N :    0.232312
  21 C :   -0.472208
  22 C :    0.067306
  23 O :   -0.450390
  24 C :   -0.027910
  25 O :   -0.509515
  26 H :    0.141388
  27 H :    0.152965
  28 H :    0.165522
  29 H :    0.173350
  30 H :    0.176734
  31 H :    0.164701
  32 H :    0.196830
  33 H :    0.187568
  34 H :    0.183556
  35 H :    0.191549
  36 H :    0.184645
  37 H :    0.192444
  38 H :    0.324578
  39 H :    0.199961
  40 H :    0.204382
  41 H :    0.201688
  42 H :    0.191748
  43 H :    0.197395
  44 H :    0.186573
  45 H :    0.380296
Sum of atomic charges:   -1.0000000

LOEWDIN ATOMIC CHARGES
----------------------
   0 C :   -0.085876
   1 O :   -0.712186
   2 C :    0.300256
   3 C :   -0.358415
   4 O :   -0.572424
   5 C :    0.159797
   6 N :   -0.620563
   7 C :    0.322967
   8 C :    0.113734
   9 C :   -0.350305
  10 C :   -0.340866
  11 N :   -0.596081
  12 C :    0.375500
  13 O :   -0.460689
  14 C :    0.415737
  15 N :   -0.338213
  16 N :   -0.363018
  17 C :    0.377269
  18 C :   -0.317802
  19 O :   -0.393876
  20 N :   -0.663933
  21 C :   -0.095092
  22 C :    0.363471
  23 O :   -0.516723
  24 C :    0.215767
  25 O :   -0.666162
  26 H :    0.153788
  27 H :    0.172154
  28 H :    0.169300
  29 H :    0.166994
  30 H :    0.170141
  31 H :    0.163665
  32 H :    0.179601
  33 H :    0.171996
  34 H :    0.173144
  35 H :    0.173412
  36 H :    0.169403
  37 H :    0.174747
  38 H :    0.300805
  39 H :    0.191223
  40 H :    0.190739
  41 H :    0.191953
  42 H :    0.187592
  43 H :    0.201277
  44 H :    0.201120
  45 H :    0.304671

  Mayer bond orders larger than 0.100000
B(  0-C ,  1-O ) :   0.8858 B(  0-C , 26-H ) :   0.9635 B(  0-C , 27-H ) :   0.9681
B(  0-C , 28-H ) :   0.9678 B(  1-O ,  2-C ) :   0.9543 B(  2-C ,  3-C ) :   0.9131
B(  2-C ,  4-O ) :   1.0839 B(  2-C ,  5-C ) :   0.9753 B(  3-C , 29-H ) :   0.9711
B(  3-C , 30-H ) :   0.9843 B(  3-C , 31-H ) :   0.9570 B(  4-O , 45-H ) :   0.6779
B(  5-C ,  6-N ) :   1.0386 B(  5-C , 24-C ) :   1.2020 B(  6-N ,  7-C ) :   1.7490
B(  6-N ,  8-C ) :  -0.1347 B(  7-C ,  8-C ) :   0.9046 B(  7-C , 20-N ) :   1.2086
B(  8-C ,  9-C ) :   0.9077 B(  8-C , 10-C ) :   0.8699 B(  8-C , 11-N ) :   0.8177
B(  9-C , 32-H ) :   0.9619 B(  9-C , 33-H ) :   0.9710 B(  9-C , 34-H ) :   0.9483
B( 10-C , 35-H ) :   0.9731 B( 10-C , 36-H ) :   0.9648 B( 10-C , 37-H ) :   0.9668
B( 11-N , 12-C ) :   1.1799 B( 11-N , 38-H ) :   0.8767 B( 12-C , 13-O ) :   1.9280
B( 12-C , 14-C ) :   0.8014 B( 13-O , 14-C ) :  -0.1087 B( 14-C , 15-N ) :   1.7187
B( 14-C , 17-C ) :   0.1080 B( 14-C , 19-O ) :   1.0766 B( 15-N , 16-N ) :   1.2710
B( 16-N , 17-C ) :   1.6339 B( 17-C , 18-C ) :   0.8296 B( 17-C , 19-O ) :   1.0676
B( 18-C , 39-H ) :   0.9440 B( 18-C , 40-H ) :   0.9902 B( 18-C , 41-H ) :   0.9402
B( 20-N , 21-C ) :   0.8380 B( 20-N , 22-C ) :   1.0731 B( 21-C , 42-H ) :   0.9456
B( 21-C , 43-H ) :   0.9352 B( 21-C , 44-H ) :   0.9414 B( 22-C , 23-O ) :   1.8747
B( 22-C , 24-C ) :   1.0055 B( 24-C , 25-O ) :   1.5937 B( 25-O , 45-H ) :   0.1916

Dispersion correction           -0.021252419
FINAL SINGLE POINT ENERGY     -1308.665529293498

DIPOLE MOMENT
-------------
                                X             Y             Z
Electronic contribution:     13.40616      -5.47439       7.66570
Nuclear contribution   :     -8.62759       6.47853      -7.86656
                        -----------------------------------------
Total Dipole Moment    :      4.77857       1.00414      -0.20086
                        -----------------------------------------
Magnitude (a.u.)       :      4.88706
Magnitude (Debye)      :     12.42192

Rotational constants in cm-1:     0.011923     0.003389     0.003213
Rotational constants in MHz :   357.456913   101.609766    96.326840

                             ****ORCA TERMINATED NORMALLY****
TOTAL RUN TIME: 0 days 0 hours 1 minutes 47 seconds 458 msec
