   * xtb version 6.5.1 (579679a) compiled by 'ehlert@majestix' on 2022-07-11
          program call               : /lustre/hpc/kemi/ree/PhD/git/ReactivityQM/dep/xtb-6.5.1/bin/xtb --gfn 1 /lustre/hpc/kemi/ree/PhD/git/ReactivityQM/calculations/R03/reac02prodE02/conf04/R03_reac02prodE02_conf04_gfn1.xyz --opt --vfukui --chrg -1 --uhf 0 --alpb DMSO

   ID    Z sym.   atoms
    1    6 C      1, 3, 4, 6, 8-11, 13, 15, 18, 19, 22, 23, 25
    2    8 O      2, 5, 14, 20, 24, 26
    3    7 N      7, 12, 16, 17, 21
    4    1 H      27-46

      * Solvation model:               ALPB
        Solvent                        DMSO
        Solvent mass                       7.8130E+01 g/mol
          :  Hamiltonian                  GFN1-xTB          :
 * total energy  :   -87.0374230 Eh     change       -0.5556444E-11 Eh
 * total energy  :   -87.0494718 Eh     change       -0.1204884E-01 Eh
 * total energy  :   -87.0549530 Eh     change       -0.5481165E-02 Eh
 * total energy  :   -87.0576999 Eh     change       -0.2746942E-02 Eh
 * total energy  :   -87.0602939 Eh     change       -0.2593978E-02 Eh
 * total energy  :   -87.0626917 Eh     change       -0.2397780E-02 Eh
 * total energy  :   -87.0658816 Eh     change       -0.3189906E-02 Eh
 * total energy  :   -87.0680750 Eh     change       -0.2193450E-02 Eh
 * total energy  :   -87.0685785 Eh     change       -0.5034125E-03 Eh
 * total energy  :   -87.0701416 Eh     change       -0.1563115E-02 Eh
 * total energy  :   -87.0742917 Eh     change       -0.1257120E-04 Eh
 * total energy  :   -87.0743092 Eh     change       -0.1742075E-04 Eh
 * total energy  :   -87.0743202 Eh     change       -0.1109063E-04 Eh
 * total energy  :   -87.0743577 Eh     change       -0.3742274E-04 Eh
 * total energy  :   -87.0743705 Eh     change       -0.1280541E-04 Eh
 * total energy  :   -87.0743857 Eh     change       -0.1518797E-04 Eh
 * total energy  :   -87.0743915 Eh     change       -0.5852555E-05 Eh
 * total energy  :   -87.0744015 Eh     change       -0.1002636E-04 Eh
 * total energy  :   -87.0744062 Eh     change       -0.4608646E-05 Eh
   *** GEOMETRY OPTIMIZATION CONVERGED AFTER 52 ITERATIONS ***

 final structure:
================
46
 xtb: 6.5.1 (579679a)
C           -5.38717104894278        1.46750277687701       -1.65739421124082
O           -4.25949417473558        0.75473890835533       -1.18971960483285
C           -3.51241658705225        1.36591236644044       -0.11357981755073
C           -2.77241263416561        2.61467156382468       -0.63350683540368
O           -4.35754285823018        1.74675889579288        0.92324861080001
C           -2.50833217036856        0.30902261085601        0.35293043407723
N           -1.41771317413482        0.13744075467760       -0.43946677704063
C           -0.49119312007142       -0.71671730176074       -0.14065283762580
C            0.64623177442644       -0.86917720455250       -1.14364431919610
C            0.65014076015773       -2.27793878317404       -1.75715943464360
C            0.47206023673094        0.16829739210271       -2.26303819184945
N            1.91965599898935       -0.58153716096374       -0.45656002875123
C            3.12794114651911       -0.71442884113098       -1.03345847192518
O            3.34933390223078       -1.19453645315583       -2.13440900895813
C            4.23249763786061       -0.22691256578626       -0.16278785885363
N            5.50303965261418       -0.22472373148515       -0.42385500009119
N            6.12761523552322        0.31567927264668        0.66193187298808
C            5.19954073714167        0.60956287693540        1.51807518784086
C            5.36229803086012        1.22108290321376        2.85514050285121
O            3.97762155191990        0.29256650524128        1.05854838379568
N           -0.58168986967021       -1.48893979034022        1.00388003808201
C            0.44430574420975       -2.43677576338127        1.43491788252512
C           -1.67907479467653       -1.42379297733496        1.85695932285199
O           -1.71919812672484       -2.16998638362615        2.84272150929816
C           -2.72976804222884       -0.43669786902431        1.50762833566684
O           -3.75449734636162       -0.31393998589013        2.26054223436769
H           -5.10092157443586        2.30903453951924       -2.30336999961864
H           -5.98923595149044        0.76913302023685       -2.24474191819427
H           -5.99643765126736        1.84998191290929       -0.82826559548444
H           -2.13344395382964        2.99847468229358        0.15960966873125
H           -2.16169010148638        2.35005856431432       -1.49408064019769
H           -3.48796579179216        3.38504636975647       -0.91325895142069
H            1.27202129873370       -2.30201484098963       -2.65032186040243
H           -0.36941457596362       -2.54383868747331       -2.03540196052944
H            1.02834185167088       -3.01925085229165       -1.05767997869794
H            0.45483412095593        1.17310509891154       -1.84436883495755
H            1.29535413387891        0.08978461778162       -2.97100944766773
H           -0.46662736960320       -0.00917620763718       -2.78550535072736
H            1.86749359139970       -0.04885562115036        0.39733288333389
H            4.92743446068309        0.57461362158817        3.61700298285775
H            6.41924342312682        1.36981449345533        3.06161826795181
H            4.84540731398566        2.18013288520086        2.89191620836516
H            0.12772714120368       -3.45629045068569        1.20639679241251
H            1.39423616768288       -2.22882042318635        0.95593922444604
H            0.56425941690390       -2.34363145452968        2.51584449032558
H           -4.33239441218804        0.97556571661499        1.59505010230109

          :  Hamiltonian                  GFN1-xTB          :
         :: total energy             -87.074406151703 Eh    ::
         :: gradient norm              0.000595479570 Eh/a0 ::
         :: HOMO-LUMO gap              1.250526646886 eV    ::
         :: SCC energy               -87.861070765457 Eh    ::
         :: -> Gsolv                  -0.114447627491 Eh    ::
         :: repulsion energy           0.816044473111 Eh    ::

    * Orbital Energies and Occupations

         #    Occupation            Energy/Eh            Energy/eV
      -------------------------------------------------------------
         1        2.0000           -0.8612312             -23.4353
       ...           ...                  ...                  ...
        59        2.0000           -0.4742777             -12.9058
        60        2.0000           -0.4592211             -12.4960
        61        2.0000           -0.4541973             -12.3593
        62        2.0000           -0.4515819             -12.2882
        63        2.0000           -0.4459292             -12.1344
        64        2.0000           -0.4429365             -12.0529
        65        2.0000           -0.4379093             -11.9161
        66        2.0000           -0.4359886             -11.8639
        67        2.0000           -0.4247645             -11.5584
        68        2.0000           -0.4198660             -11.4251
        69        2.0000           -0.4088406             -11.1251
        70        2.0000           -0.3654976              -9.9457
        71        2.0000           -0.3502869              -9.5318 (HOMO)
        72                         -0.3043309              -8.2813 (LUMO)
        73                         -0.2531415              -6.8883
        74                         -0.2450049              -6.6669
        75                         -0.2295755              -6.2471
        76                         -0.1926846              -5.2432
        77                         -0.1402472              -3.8163
        78                         -0.1243926              -3.3849
        79                         -0.1201343              -3.2690
        80                         -0.1135247              -3.0892
        81                         -0.1106237              -3.0102
        82                         -0.1091110              -2.9691
       ...                                ...                  ...
       144                          0.7332315              19.9522
      -------------------------------------------------------------
                  HL-Gap            0.0459560 Eh            1.2505 eV

Wiberg/Mayer (AO) data.
largest (>0.10) Wiberg bond orders for each atom

     #   Z sym  total        # sym  WBO       # sym  WBO       # sym  WBO
 ---------------------------------------------------------------------------
     1   6 C    3.922 --    28 H    0.984    27 H    0.982    29 H    0.979
                             2 O    0.953
     2   8 O    1.980 --     1 C    0.953     3 C    0.887
     3   6 C    3.862 --     5 O    0.994     4 C    0.975     6 C    0.959
                             2 O    0.887
     4   6 C    3.996 --    30 H    0.987    31 H    0.986    32 H    0.985
                             3 C    0.975
     5   8 O    1.882 --     3 C    0.994    46 H    0.727
     6   6 C    3.936 --    25 C    1.378     7 N    1.232     3 C    0.959
                            26 O    0.134
     7   7 N    3.043 --     8 C    1.551     6 C    1.232
     8   6 C    3.928 --     7 N    1.551    21 N    1.117     9 C    0.976
     9   6 C    3.928 --    11 C    0.991    10 C    0.988     8 C    0.976
                            12 N    0.907
    10   6 C    3.990 --     9 C    0.988    34 H    0.986    35 H    0.981
                            33 H    0.980
    11   6 C    3.992 --     9 C    0.991    36 H    0.984    38 H    0.984
                            37 H    0.984
    12   7 N    3.364 --    13 C    1.270     9 C    0.907    39 H    0.898
                            14 O    0.179
    13   6 C    3.919 --    14 O    1.578    12 N    1.270    15 C    0.987
    14   8 O    1.895 --    13 C    1.578    12 N    0.179
    15   6 C    3.869 --    16 N    1.626    20 O    1.047    13 C    0.987
    16   7 N    2.997 --    15 C    1.626    17 N    1.195
    17   7 N    2.981 --    18 C    1.614    16 N    1.195
    18   6 C    3.870 --    17 N    1.614    20 O    1.072    19 C    1.031
    19   6 C    3.987 --    18 C    1.031    41 H    0.983    40 H    0.964
                            42 H    0.963
    20   8 O    2.315 --    18 C    1.072    15 C    1.047
    21   7 N    3.468 --    23 C    1.129     8 C    1.117    22 C    0.945
                            24 O    0.133
    22   6 C    3.945 --    44 H    0.980    43 H    0.980    45 H    0.977
                            21 N    0.945
    23   6 C    3.891 --    24 O    1.531    21 N    1.129    25 C    1.031
    24   8 O    1.842 --    23 C    1.531    21 N    0.133
    25   6 C    3.956 --     6 C    1.378    26 O    1.356    23 C    1.031
    26   8 O    1.828 --    25 C    1.356    46 H    0.146     6 C    0.134
    27   1 H    1.015 --     1 C    0.982
    28   1 H    1.020 --     1 C    0.984
    29   1 H    1.021 --     1 C    0.979
    30   1 H    1.012 --     4 C    0.987
    31   1 H    1.019 --     4 C    0.986
    32   1 H    1.007 --     4 C    0.985
    33   1 H    1.014 --    10 C    0.980
    34   1 H    1.005 --    10 C    0.986
    35   1 H    1.004 --    10 C    0.981
    36   1 H    1.015 --    11 C    0.984
    37   1 H    1.008 --    11 C    0.984
    38   1 H    1.014 --    11 C    0.984
    39   1 H    0.946 --    12 N    0.898
    40   1 H    0.997 --    19 C    0.964
    41   1 H    0.999 --    19 C    0.983
    42   1 H    0.997 --    19 C    0.963
    43   1 H    1.008 --    22 C    0.980
    44   1 H    1.012 --    22 C    0.980
    45   1 H    1.015 --    22 C    0.977
    46   1 H    0.886 --     5 O    0.727    26 O    0.146
 ---------------------------------------------------------------------------

           -------------------------------------------------
          | TOTAL ENERGY              -87.074406151703 Eh   |
          | GRADIENT NORM               0.000595479570 Eh/α |
          | HOMO-LUMO GAP               1.250526646886 eV   |
           -------------------------------------------------

 * finished run on 2023/06/20 at 15:15:31.845
