   * xtb version 6.5.1 (579679a) compiled by 'ehlert@majestix' on 2022-07-11
          program call               : /lustre/hpc/kemi/ree/PhD/git/ReactivityQM/dep/xtb-6.5.1/bin/xtb --gfn 1 /lustre/hpc/kemi/ree/PhD/git/ReactivityQM/calculations/R02/reac01prodN03/conf12/R02_reac01prodN03_conf12_gfn1.xyz --opt --vfukui --chrg 1 --uhf 0 --alpb DMSO

   ID    Z sym.   atoms
    1    6 C      1, 3, 5, 6, 8-11, 13, 15, 18, 19, 22, 24
    2    8 O      2, 4, 14, 20, 23, 25
    3    7 N      7, 12, 16, 17, 21
    4    1 H      26-43

      * Solvation model:               ALPB
        Solvent                        DMSO
        Solvent mass                       7.8130E+01 g/mol
          :  Hamiltonian                  GFN1-xTB          :
 * total energy  :   -83.1294665 Eh     change       -0.6976109E-10 Eh
 * total energy  :   -83.1550817 Eh     change       -0.2561523E-01 Eh
 * total energy  :   -83.1631716 Eh     change       -0.8089904E-02 Eh
 * total energy  :   -83.1651627 Eh     change       -0.1991038E-02 Eh
 * total energy  :   -83.1662183 Eh     change       -0.1055622E-02 Eh
 * total energy  :   -83.1667314 Eh     change       -0.5131607E-03 Eh
 * total energy  :   -83.1672079 Eh     change       -0.4764864E-03 Eh
 * total energy  :   -83.1675719 Eh     change       -0.3640270E-03 Eh
 * total energy  :   -83.1677948 Eh     change       -0.2228877E-03 Eh
 * total energy  :   -83.1679086 Eh     change       -0.1137228E-03 Eh
 * total energy  :   -83.1689844 Eh     change       -0.1926544E-04 Eh
 * total energy  :   -83.1689959 Eh     change       -0.1144224E-04 Eh
 * total energy  :   -83.1690115 Eh     change       -0.1559412E-04 Eh
 * total energy  :   -83.1690333 Eh     change       -0.2178025E-04 Eh
 * total energy  :   -83.1690457 Eh     change       -0.1241107E-04 Eh
 * total energy  :   -83.1690435 Eh     change        0.2117820E-05 Eh
 * total energy  :   -83.1690674 Eh     change       -0.2389945E-04 Eh
 * total energy  :   -83.1690743 Eh     change       -0.6890845E-05 Eh
 * total energy  :   -83.1690787 Eh     change       -0.4347874E-05 Eh
   *** GEOMETRY OPTIMIZATION CONVERGED AFTER 45 ITERATIONS ***

 final structure:
================
43
 xtb: 6.5.1 (579679a)
C           -2.92653534586218       -1.64433397391158       -2.01782647356086
O           -3.81017765323113       -0.52846428096082       -1.83206711415348
C           -3.66566268143281        0.45154731289140       -1.00725624668441
O           -4.59913872567081        1.33836626292594       -1.01387389836828
C           -5.71836709887345        1.20581605933859       -1.90933973963431
C           -2.56702818132427        0.65072343387283       -0.08678791921145
N           -1.54822376911456       -0.27778078239135       -0.10477565145986
C           -0.53516400924639       -0.14476188730362        0.68808414926776
C            0.57790884637872       -1.18053710094789        0.67669078296416
C            0.62025722896552       -1.91669070599562        2.02334777201604
C            0.35696978158649       -2.18262407283420       -0.45550608160343
N            1.86087665856283       -0.52158782038418        0.40553279507137
C            2.56024830281876        0.24615480413591        1.26445566311283
O            2.16942354857857        0.61557495090364        2.36525809251369
C            3.88179001847257        0.63656203197082        0.72995041760273
N            4.78262678012908        1.38377825315655        1.28774426404135
N            5.82754195146924        1.45435110089134        0.41927285696698
C            5.50238906699007        0.74599367576118       -0.61804248019266
C            6.29773541116393        0.50066980238650       -1.84012339113226
O            4.28194326746930        0.20146474841652       -0.48488253643736
N           -0.43077763514672        0.88154108118342        1.57550756139077
C           -1.36181782294626        1.87238303382470        1.69129104449811
O           -1.28116418093217        2.80651939942173        2.46638025628719
C           -2.51033102778372        1.72438225485390        0.78010410026619
O           -3.42764398458169        2.66495891257602        0.86636609226286
H           -2.81624631800545       -2.19136281750940       -1.08253396187580
H           -1.95409400428295       -1.29268734474132       -2.35969171304272
H           -3.40138617830001       -2.26520882303565       -2.77611530147014
H           -5.35908119777613        1.18423946376821       -2.93842581228147
H           -6.25560429968261        0.28392329100978       -1.68534199160806
H           -6.34493759194124        2.07672297349719       -1.73195602314174
H            0.75721529912440       -1.22386913764204        2.85048805173414
H           -0.31559530761673       -2.45483882720693        2.16355865877848
H            1.44338654059480       -2.62949618076859        2.01566015176471
H            0.30450052167356       -1.66705673799068       -1.41258409673865
H            1.17796558251074       -2.89701568116077       -0.47922795290718
H           -0.57405837254528       -2.72199202572580       -0.29419708214030
H            2.28532254707522       -0.73983800677854       -0.48210437249267
H            5.75083242581443        0.85288676171542       -2.71421665745241
H            6.46753601007004       -0.56871312921743       -1.96155350898800
H            7.25127952733646        1.01856442654608       -1.77013733641411
H            0.41268657290721        0.93535092847054        2.16219240513571
H           -3.16739950338526        3.31638337299109        1.55166222731901

          :  Hamiltonian                  GFN1-xTB          :
         :: total energy             -83.169078686410 Eh    ::
         :: gradient norm              0.000627736632 Eh/a0 ::
         :: HOMO-LUMO gap              2.105660516587 eV    ::
         :: SCC energy               -83.961711707352 Eh    ::
         :: -> Gsolv                  -0.109603926043 Eh    ::
         :: repulsion energy           0.819196723925 Eh    ::

    * Orbital Energies and Occupations

         #    Occupation            Energy/Eh            Energy/eV
      -------------------------------------------------------------
         1        2.0000           -0.9117614             -24.8103
       ...           ...                  ...                  ...
        55        2.0000           -0.5285450             -14.3824
        56        2.0000           -0.5242869             -14.2666
        57        2.0000           -0.5173861             -14.0788
        58        2.0000           -0.5129152             -13.9571
        59        2.0000           -0.5111189             -13.9083
        60        2.0000           -0.4950531             -13.4711
        61        2.0000           -0.4862950             -13.2328
        62        2.0000           -0.4815425             -13.1034
        63        2.0000           -0.4754367             -12.9373
        64        2.0000           -0.4704411             -12.8014
        65        2.0000           -0.4634672             -12.6116
        66        2.0000           -0.4586175             -12.4796
        67        2.0000           -0.4575567             -12.4508 (HOMO)
        68                         -0.3801751             -10.3451 (LUMO)
        69                         -0.3223071              -8.7704
        70                         -0.3151084              -8.5745
        71                         -0.2886476              -7.8545
        72                         -0.2618123              -7.1243
        73                         -0.2090011              -5.6872
        74                         -0.1967489              -5.3538
        75                         -0.1705884              -4.6419
        76                         -0.1617136              -4.4004
        77                         -0.1439798              -3.9179
        78                         -0.1348567              -3.6696
       ...                                ...                  ...
       136                          0.7081694              19.2703
      -------------------------------------------------------------
                  HL-Gap            0.0773816 Eh            2.1057 eV

Wiberg/Mayer (AO) data.
largest (>0.10) Wiberg bond orders for each atom

     #   Z sym  total        # sym  WBO       # sym  WBO       # sym  WBO
 ---------------------------------------------------------------------------
     1   6 C    3.815 --    28 H    0.978    26 H    0.971    27 H    0.971
                             2 O    0.850
     2   8 O    2.307 --     3 C    1.250     1 C    0.850
     3   6 C    3.816 --     4 O    1.260     2 O    1.250     6 C    1.119
     4   8 O    2.309 --     3 C    1.260     5 C    0.855
     5   6 C    3.824 --    31 H    0.982    29 H    0.973    30 H    0.972
                             4 O    0.855
     6   6 C    3.955 --    24 C    1.424     7 N    1.152     3 C    1.119
     7   7 N    3.033 --     8 C    1.581     6 C    1.152
     8   6 C    3.922 --     7 N    1.581    21 N    1.189     9 C    0.971
     9   6 C    3.934 --    11 C    1.001    10 C    0.978     8 C    0.971
                            12 N    0.922
    10   6 C    3.984 --    33 H    0.984    34 H    0.981    32 H    0.978
                             9 C    0.978
    11   6 C    3.989 --     9 C    1.001    36 H    0.982    35 H    0.981
                            37 H    0.981
    12   7 N    3.348 --    13 C    1.266     9 C    0.922    38 H    0.887
                            14 O    0.170
    13   6 C    3.913 --    14 O    1.551    12 N    1.266    15 C    1.004
    14   8 O    1.924 --    13 C    1.551    12 N    0.170
    15   6 C    3.876 --    16 N    1.616    20 O    1.046    13 C    1.004
    16   7 N    3.004 --    15 C    1.616    17 N    1.205
    17   7 N    2.982 --    18 C    1.604    16 N    1.205
    18   6 C    3.865 --    17 N    1.604    20 O    1.073    19 C    1.033
    19   6 C    3.985 --    18 C    1.033    41 H    0.982    39 H    0.962
                            40 H    0.961
    20   8 O    2.317 --    18 C    1.073    15 C    1.046
    21   7 N    3.487 --     8 C    1.189    22 C    1.164    42 H    0.818
                            23 O    0.142
    22   6 C    3.916 --    23 O    1.604    21 N    1.164    24 C    1.027
    23   8 O    1.931 --    22 C    1.604    21 N    0.142
    24   6 C    3.909 --     6 C    1.424    25 O    1.177    22 C    1.027
    25   8 O    2.149 --    24 C    1.177    43 H    0.782
    26   1 H    1.012 --     1 C    0.971
    27   1 H    1.012 --     1 C    0.971
    28   1 H    1.001 --     1 C    0.978
    29   1 H    0.998 --     5 C    0.973
    30   1 H    0.998 --     5 C    0.972
    31   1 H    1.002 --     5 C    0.982
    32   1 H    1.006 --    10 C    0.978
    33   1 H    0.999 --    10 C    0.984
    34   1 H    0.997 --    10 C    0.981
    35   1 H    1.001 --    11 C    0.981
    36   1 H    0.996 --    11 C    0.982
    37   1 H    1.003 --    11 C    0.981
    38   1 H    0.931 --    12 N    0.887
    39   1 H    0.996 --    19 C    0.962
    40   1 H    0.996 --    19 C    0.961
    41   1 H    0.998 --    19 C    0.982
    42   1 H    0.915 --    21 N    0.818
    43   1 H    0.825 --    25 O    0.782
 ---------------------------------------------------------------------------

           -------------------------------------------------
          | TOTAL ENERGY              -83.169078686410 Eh   |
          | GRADIENT NORM               0.000627736632 Eh/α |
          | HOMO-LUMO GAP               2.105660516587 eV   |
           -------------------------------------------------

 * finished run on 2023/06/20 at 15:21:16.758
