   * xtb version 6.5.1 (579679a) compiled by 'ehlert@majestix' on 2022-07-11
          program call               : /lustre/hpc/kemi/ree/PhD/git/ReactivityQM/dep/xtb-6.5.1/bin/xtb --gfn 1 /lustre/hpc/kemi/ree/PhD/git/ReactivityQM/calculations/R02oxygendeprot/reac02prodN01/conf04/R02oxygendeprot_reac02prodN01_conf04_gfn1.xyz --opt --vfukui --chrg 1 --uhf 0 --alpb DMSO

   ID    Z sym.   atoms
    1    6 C      1, 4
    2    8 O      2, 5
    3    5 B      3
    4    1 H      6-13

      * Solvation model:               ALPB
        Solvent                        DMSO
        Solvent mass                       7.8130E+01 g/mol
          :  Hamiltonian                  GFN1-xTB          :
 * total energy  :   -19.0540634 Eh     change       -0.3769074E-10 Eh
 * total energy  :   -19.0629603 Eh     change       -0.8896918E-02 Eh
 * total energy  :   -19.0655373 Eh     change       -0.2577039E-02 Eh
 * total energy  :   -19.0660069 Eh     change       -0.4696165E-03 Eh
 * total energy  :   -19.0663723 Eh     change       -0.3653361E-03 Eh
 * total energy  :   -19.0664487 Eh     change       -0.7638891E-04 Eh
 * total energy  :   -19.0665012 Eh     change       -0.5251941E-04 Eh
 * total energy  :   -19.0665266 Eh     change       -0.2547229E-04 Eh
 * total energy  :   -19.0665445 Eh     change       -0.1787670E-04 Eh
 * total energy  :   -19.0665544 Eh     change       -0.9882625E-05 Eh
 * total energy  :   -19.0666720 Eh     change       -0.8726508E-05 Eh
 * total energy  :   -19.0666789 Eh     change       -0.6946134E-05 Eh
 * total energy  :   -19.0666922 Eh     change       -0.1328892E-04 Eh
 * total energy  :   -19.0666980 Eh     change       -0.5784073E-05 Eh
 * total energy  :   -19.0667051 Eh     change       -0.7065386E-05 Eh
 * total energy  :   -19.0667140 Eh     change       -0.8963566E-05 Eh
 * total energy  :   -19.0667239 Eh     change       -0.9858453E-05 Eh
 * total energy  :   -19.0667315 Eh     change       -0.7649349E-05 Eh
 * total energy  :   -19.0667352 Eh     change       -0.3651730E-05 Eh
   *** GEOMETRY OPTIMIZATION CONVERGED AFTER 27 ITERATIONS ***

 final structure:
================
13
 xtb: 6.5.1 (579679a)
C           -1.70137051680981       -0.34354778859352        0.19851757332963
O           -0.69810937985032        0.64784802161245       -0.16066954194268
B            0.78565179276613        0.50008977855105       -0.17389953876210
C            1.38018454529036       -0.89838287310229        0.11293167477795
O            1.45560288735739        1.60044253590866       -0.44474462444391
H           -2.53894098082420       -0.23532837191115       -0.48755569253708
H           -2.00983305569575       -0.17254462345354        1.22959833676758
H           -1.24284163368578       -1.32282636232015        0.08883129852629
H           -1.07472668865172        1.52766048377411       -0.29818903482412
H            2.46832508278574       -0.86866864365342        0.09170439402397
H            1.06392530301656       -1.26629445436030        1.08823412011785
H            1.04368031755305       -1.62484693792498       -0.62664560987547
H            1.06845232674841        2.45639823547308       -0.61811335515784

          :  Hamiltonian                  GFN1-xTB          :
         :: total energy             -19.066735199830 Eh    ::
         :: gradient norm              0.000508434296 Eh/a0 ::
         :: HOMO-LUMO gap              7.741834256299 eV    ::
         :: SCC energy               -19.259492287338 Eh    ::
         :: -> Gsolv                  -0.101793603442 Eh    ::
         :: repulsion energy           0.196352131085 Eh    ::

    * Orbital Energies and Occupations

         #    Occupation            Energy/Eh            Energy/eV
      -------------------------------------------------------------
         1        2.0000           -0.9092110             -24.7409
       ...           ...                  ...                  ...
         3        2.0000           -0.7652203             -20.8227
         4        2.0000           -0.7513374             -20.4449
         5        2.0000           -0.6981424             -18.9974
         6        2.0000           -0.6868901             -18.6912
         7        2.0000           -0.6581607             -17.9095
         8        2.0000           -0.6552045             -17.8290
         9        2.0000           -0.6079927             -16.5443
        10        2.0000           -0.5999075             -16.3243
        11        2.0000           -0.5725338             -15.5794
        12        2.0000           -0.5538339             -15.0706
        13        2.0000           -0.5465619             -14.8727
        14        2.0000           -0.5427856             -14.7699
        15        2.0000           -0.5333510             -14.5132 (HOMO)
        16                         -0.2488438              -6.7714 (LUMO)
        17                         -0.1913345              -5.2065
        18                         -0.1801810              -4.9030
        19                         -0.1570137              -4.2726
        20                         -0.1134231              -3.0864
        21                         -0.1106123              -3.0099
        22                         -0.1029093              -2.8003
        23                         -0.0814049              -2.2151
        24                         -0.0697890              -1.8991
        25                         -0.0472165              -1.2848
        26                          0.0678634               1.8467
       ...                                ...                  ...
        36                          0.6196143              16.8606
      -------------------------------------------------------------
                  HL-Gap            0.2845072 Eh            7.7418 eV

Wiberg/Mayer (AO) data.
largest (>0.10) Wiberg bond orders for each atom

     #   Z sym  total        # sym  WBO       # sym  WBO       # sym  WBO
 ---------------------------------------------------------------------------
     1   6 C    3.786 --     8 H    0.982     7 H    0.980     6 H    0.980
                             2 O    0.818
     2   8 O    2.368 --     1 C    0.818     9 H    0.755     3 B    0.734
     3   5 B    3.140 --     5 O    1.286     4 C    1.045     2 O    0.734
     4   6 C    3.988 --     3 B    1.045    10 H    0.975    11 H    0.960
                            12 H    0.957
     5   8 O    2.157 --     3 B    1.286    13 H    0.790
     6   1 H    0.993 --     1 C    0.980
     7   1 H    0.994 --     1 C    0.980
     8   1 H    0.997 --     1 C    0.982
     9   1 H    0.782 --     2 O    0.755
    10   1 H    0.993 --     4 C    0.975
    11   1 H    0.993 --     4 C    0.960
    12   1 H    0.993 --     4 C    0.957
    13   1 H    0.812 --     5 O    0.790
 ---------------------------------------------------------------------------

           -------------------------------------------------
          | TOTAL ENERGY              -19.066735199830 Eh   |
          | GRADIENT NORM               0.000508434296 Eh/α |
          | HOMO-LUMO GAP               7.741834256299 eV   |
           -------------------------------------------------

 * finished run on 2023/06/21 at 17:40:21.487
