   * xtb version 6.5.1 (579679a) compiled by 'ehlert@majestix' on 2022-07-11
          program call               : /lustre/hpc/kemi/ree/PhD/git/ReactivityQM/dep/xtb-6.5.1/bin/xtb --gfn 1 /lustre/hpc/kemi/ree/PhD/git/ReactivityQM/calculations/R03/reac02prodN09/conf04/R03_reac02prodN09_conf04_gfn1.xyz --opt --vfukui --chrg 1 --uhf 0 --alpb DMSO

   ID    Z sym.   atoms
    1    6 C      1, 3, 5, 6, 8-11, 13, 15, 18, 19, 22, 23, 25
    2    8 O      2, 4, 14, 20, 24, 26
    3    7 N      7, 12, 16, 17, 21
    4    1 H      27-46

      * Solvation model:               ALPB
        Solvent                        DMSO
        Solvent mass                       7.8130E+01 g/mol
          :  Hamiltonian                  GFN1-xTB          :
 * total energy  :   -86.2762909 Eh     change       -0.4625633E-10 Eh
 * total energy  :   -86.2968595 Eh     change       -0.2056862E-01 Eh
 * total energy  :   -86.3055412 Eh     change       -0.8681736E-02 Eh
 * total energy  :   -86.3074998 Eh     change       -0.1958589E-02 Eh
 * total energy  :   -86.3086583 Eh     change       -0.1158493E-02 Eh
 * total energy  :   -86.3090294 Eh     change       -0.3710813E-03 Eh
 * total energy  :   -86.3092847 Eh     change       -0.2553176E-03 Eh
 * total energy  :   -86.3094484 Eh     change       -0.1636579E-03 Eh
 * total energy  :   -86.3095798 Eh     change       -0.1314068E-03 Eh
 * total energy  :   -86.3097167 Eh     change       -0.1369607E-03 Eh
 * total energy  :   -86.3108313 Eh     change       -0.2622481E-04 Eh
 * total energy  :   -86.3108578 Eh     change       -0.2648284E-04 Eh
 * total energy  :   -86.3108670 Eh     change       -0.9250048E-05 Eh
 * total energy  :   -86.3108836 Eh     change       -0.1659735E-04 Eh
 * total energy  :   -86.3108898 Eh     change       -0.6117651E-05 Eh
 * total energy  :   -86.3108974 Eh     change       -0.7620143E-05 Eh
 * total energy  :   -86.3109027 Eh     change       -0.5311980E-05 Eh
 * total energy  :   -86.3109086 Eh     change       -0.5930054E-05 Eh
 * total energy  :   -86.3109112 Eh     change       -0.2626999E-05 Eh
   *** GEOMETRY OPTIMIZATION CONVERGED AFTER 44 ITERATIONS ***

 final structure:
================
46
 xtb: 6.5.1 (579679a)
C           -5.88780093437398        0.69434250457394        1.46280017914775
O           -4.82859849275438        1.11266995604760        0.56579700549007
C           -3.67653424013117        0.54854410196578        0.64813403744572
O           -3.28786091744781       -0.31877566148820        1.35975941981156
C           -2.66020729595268        1.23558089016884       -0.44842497494122
C           -3.08383273442729        2.67871030230715       -0.70699429574841
N           -1.39729491611459        1.15075126508068        0.18402488383778
C           -0.64237944068903        0.12104841504130        0.09171374628292
C            0.59738166284799        0.12856421895476        0.97398960284513
C            0.80696995700341        1.53390823444836        1.55524211968318
C            0.38275420062608       -0.87859932180545        2.11561352394409
N            1.75821751997713       -0.20995181527481        0.14936606480789
C            2.99660222305366       -0.40878015443513        0.68130235716341
O            3.24469685481597       -0.52921227707873        1.86302134127833
C            4.01082970790074       -0.49352638464806       -0.39518924069281
N            3.79240672096981       -0.32896148277043       -1.66637425161570
N            4.99009199145006       -0.48262649647524       -2.29276564273042
C            5.86598319880249       -0.72926605754606       -1.36352205410371
C            7.31717568862448       -0.96353484504153       -1.52969821820454
O            5.30694201081003       -0.74710819736594       -0.14533371555515
N           -0.94366043173119       -0.96580802657513       -0.73075316583063
C           -0.19320004339445       -2.22605745820926       -0.75812399542593
C           -1.99795283173919       -0.92904191238195       -1.59657683313985
O           -2.27850651096687       -1.79939651898537       -2.39838409183240
C           -2.84251533694296        0.28851442766547       -1.52458803976430
O           -3.80380897354270        0.38085081524704       -2.36135565868074
H           -5.45801157001217        0.27362271443470        2.37136287724769
H           -6.49397092982715       -0.04810806641294        0.94474831229223
H           -6.47201141778378        1.58615016893589        1.67786957357543
H           -2.34556833702107        3.13975883270695       -1.36057711485410
H           -3.12027856058864        3.22278552261861        0.23363686359625
H           -4.05929273533007        2.70216011149953       -1.18644683917643
H            1.71615225063495        1.53986680242585        2.15438616772852
H            0.90096198041364        2.26207548529641        0.75234717143634
H           -0.03833715179521        1.80563187558244        2.18401217522772
H            1.09754006955195       -0.69017556239761        2.91432120854266
H            0.50843060861175       -1.90137052190439        1.77063463426591
H           -0.62666819340353       -0.75683490722243        2.50677004932004
H            1.72219310910062        0.06195247235268       -0.82186479618058
H            7.60514704951791       -1.89051777140146       -1.03481179765166
H            7.55965426035721       -1.01964422656809       -2.58821857690840
H            7.87826389308662       -0.14832929573890       -1.07178969468004
H           -0.21095392724170       -2.60027330002938       -1.78103785507862
H           -0.69050957703176       -2.94116241675827       -0.10304608392059
H            0.82953394916095       -2.06544397497108       -0.43764082561096
H           -3.84817440707559       -0.39498346387128       -2.96856855264292

          :  Hamiltonian                  GFN1-xTB          :
         :: total energy             -86.310911241711 Eh    ::
         :: gradient norm              0.000279232627 Eh/a0 ::
         :: HOMO-LUMO gap              0.906040650385 eV    ::
         :: SCC energy               -87.145918064773 Eh    ::
         :: -> Gsolv                  -0.104657042088 Eh    ::
         :: repulsion energy           0.865206554567 Eh    ::

    * Orbital Energies and Occupations

         #    Occupation            Energy/Eh            Energy/eV
      -------------------------------------------------------------
         1        2.0000           -0.9145951             -24.8874
       ...           ...                  ...                  ...
        58        2.0000           -0.5299197             -14.4198
        59        2.0000           -0.5262429             -14.3198
        60        2.0000           -0.5242114             -14.2645
        61        2.0000           -0.5145363             -14.0012
        62        2.0000           -0.5126410             -13.9497
        63        2.0000           -0.5074875             -13.8094
        64        2.0000           -0.4934015             -13.4261
        65        2.0000           -0.4900006             -13.3336
        66        2.0000           -0.4887737             -13.3002
        67        2.0000           -0.4760689             -12.9545
        68        2.0000           -0.4691291             -12.7657
        69        2.0000           -0.4598477             -12.5131
        70        2.0000           -0.4565025             -12.4221 (HOMO)
        71                         -0.4232061             -11.5160 (LUMO)
        72                         -0.3366761              -9.1614
        73                         -0.3213966              -8.7456
        74                         -0.3085534              -8.3962
        75                         -0.2676010              -7.2818
        76                         -0.2626817              -7.1479
        77                         -0.2089048              -5.6846
        78                         -0.1664827              -4.5302
        79                         -0.1596873              -4.3453
        80                         -0.1526919              -4.1550
        81                         -0.1514163              -4.1202
       ...                                ...                  ...
       144                          0.7500096              20.4088
      -------------------------------------------------------------
                  HL-Gap            0.0332964 Eh            0.9060 eV

Wiberg/Mayer (AO) data.
largest (>0.10) Wiberg bond orders for each atom

     #   Z sym  total        # sym  WBO       # sym  WBO       # sym  WBO
 ---------------------------------------------------------------------------
     1   6 C    3.810 --    27 H    0.981    29 H    0.979    28 H    0.974
                             2 O    0.830
     2   8 O    2.274 --     3 C    1.234     1 C    0.830     4 O    0.150
     3   6 C    3.859 --     4 O    1.745     2 O    1.234     5 C    0.682
     4   8 O    2.075 --     3 C    1.745     2 O    0.150
     5   6 C    3.954 --    25 C    1.104     7 N    1.028     6 C    0.962
                             3 C    0.682
     6   6 C    3.968 --    31 H    0.981    32 H    0.981    30 H    0.974
                             5 C    0.962
     7   7 N    3.037 --     8 C    1.685     5 C    1.028
     8   6 C    3.910 --     7 N    1.685    21 N    1.090     9 C    0.976
     9   6 C    3.932 --    10 C    0.987     8 C    0.976    11 C    0.974
                            12 N    0.929
    10   6 C    3.987 --     9 C    0.987    34 H    0.984    35 H    0.984
                            33 H    0.981
    11   6 C    3.984 --    38 H    0.983    37 H    0.981    36 H    0.975
                             9 C    0.974
    12   7 N    3.316 --    13 C    1.205     9 C    0.929    39 H    0.894
                            14 O    0.165
    13   6 C    3.911 --    14 O    1.622    12 N    1.205    15 C    0.995
    14   8 O    1.932 --    13 C    1.622    12 N    0.165
    15   6 C    3.878 --    16 N    1.603    20 O    1.066    13 C    0.995
    16   7 N    3.020 --    15 C    1.603    17 N    1.207
    17   7 N    2.981 --    18 C    1.597    16 N    1.207
    18   6 C    3.868 --    17 N    1.597    20 O    1.085    19 C    1.032
    19   6 C    3.985 --    18 C    1.032    41 H    0.982    40 H    0.965
                            42 H    0.959
    20   8 O    2.335 --    18 C    1.085    15 C    1.066
    21   7 N    3.532 --    23 C    1.195     8 C    1.090    22 C    0.913
                            24 O    0.170
    22   6 C    3.895 --    45 H    0.971    43 H    0.969    44 H    0.964
                            21 N    0.913
    23   6 C    3.926 --    24 O    1.606    21 N    1.195    25 C    0.993
    24   8 O    1.965 --    23 C    1.606    21 N    0.170
    25   6 C    3.818 --    26 O    1.347     5 C    1.104    23 C    0.993
    26   8 O    2.273 --    25 C    1.347    46 H    0.743
    27   1 H    0.998 --     1 C    0.981
    28   1 H    0.998 --     1 C    0.974
    29   1 H    1.001 --     1 C    0.979
    30   1 H    0.995 --     6 C    0.974
    31   1 H    0.997 --     6 C    0.981
    32   1 H    1.000 --     6 C    0.981
    33   1 H    1.002 --    10 C    0.981
    34   1 H    1.004 --    10 C    0.984
    35   1 H    1.007 --    10 C    0.984
    36   1 H    1.009 --    11 C    0.975
    37   1 H    1.000 --    11 C    0.981
    38   1 H    1.003 --    11 C    0.983
    39   1 H    0.949 --    12 N    0.894
    40   1 H    0.996 --    19 C    0.965
    41   1 H    0.998 --    19 C    0.982
    42   1 H    0.996 --    19 C    0.959
    43   1 H    0.998 --    22 C    0.969
    44   1 H    0.994 --    22 C    0.964
    45   1 H    1.007 --    22 C    0.971
    46   1 H    0.791 --    26 O    0.743
 ---------------------------------------------------------------------------

           -------------------------------------------------
          | TOTAL ENERGY              -86.310911241711 Eh   |
          | GRADIENT NORM               0.000279232627 Eh/α |
          | HOMO-LUMO GAP               0.906040650385 eV   |
           -------------------------------------------------

 * finished run on 2023/06/20 at 15:44:15.323
