                         Program Version 5.0.1 -  RELEASE  -
|  1> # ORCA input file
|  2> ! SP r2SCAN-3c CPCM
|  3>
|  4> %maxcore 1875.0
|  5> %pal nprocs 4 end
|  6> %cpcm smd true SMDsolvent "DMSO" end
|  7>
|  8> *xyz -1 1
|  9> C       6.695418    0.115501   -0.154134
| 10> O       5.367372   -0.240572    0.235572
| 11> C       4.371371    0.429670   -0.389235
| 12> O       4.611114    1.274445   -1.227161
| 13> C       3.015112    0.032671    0.042326
| 14> N       2.023725    0.717112   -0.610155
| 15> C       0.781144    0.421822   -0.300491
| 16> C      -0.286202    1.245085   -1.025055
| 17> C       0.029542    1.348700   -2.519366
| 18> C      -0.320622    2.642942   -0.396491
| 19> N      -1.598458    0.632869   -0.803784
| 20> C      -1.868555   -0.644208   -1.122558
| 21> O      -1.277918   -1.310128   -1.960019
| 22> C      -2.994626   -1.269688   -0.270021
| 23> C      -3.669551   -2.433506   -0.991102
| 24> N      -2.373946   -1.727558    0.994434
| 25> N      -3.066157   -1.050106    2.034529
| 26> C      -3.935036   -0.301916    1.497792
| 27> C      -4.908312    0.566680    2.206156
| 28> O      -3.962161   -0.305784    0.132278
| 29> N       0.370590   -0.467638    0.594996
| 30> C       1.285750   -1.196565    1.292395
| 31> O       0.939658   -2.044523    2.130530
| 32> C       2.698885   -0.916639    0.987339
| 33> O       3.595088   -1.652581    1.690114
| 34> H       7.373582   -0.494311    0.438196
| 35> H       6.842665   -0.083417   -1.218800
| 36> H       6.874403    1.175701    0.041648
| 37> H       0.061754    0.361031   -2.976893
| 38> H      -0.725888    1.950222   -3.022792
| 39> H       1.003750    1.821655   -2.639853
| 40> H      -0.568464    2.574726    0.662423
| 41> H       0.659973    3.106440   -0.497010
| 42> H      -1.061729    3.267749   -0.892558
| 43> H      -2.147528    1.041045   -0.063272
| 44> H      -2.911906   -3.148476   -1.306939
| 45> H      -4.204055   -2.065089   -1.864204
| 46> H      -4.371748   -2.921330   -0.318879
| 47> H      -5.925934    0.265702    1.958533
| 48> H      -4.778917    1.601746    1.892870
| 49> H      -4.757599    0.489785    3.280225
| 50> H      -1.395387   -1.379625    1.047908
| 51> H       4.509805   -1.429640    1.461523
| 52> **                         ****END OF INPUT****

CARTESIAN COORDINATES (ANGSTROEM)
---------------------------------
  C      6.695418    0.115501   -0.154134
  O      5.367372   -0.240572    0.235572
  C      4.371371    0.429670   -0.389235
  O      4.611114    1.274445   -1.227161
  C      3.015112    0.032671    0.042326
  N      2.023725    0.717112   -0.610155
  C      0.781144    0.421822   -0.300491
  C     -0.286202    1.245085   -1.025055
  C      0.029542    1.348700   -2.519366
  C     -0.320622    2.642942   -0.396491
  N     -1.598458    0.632869   -0.803784
  C     -1.868555   -0.644208   -1.122558
  O     -1.277918   -1.310128   -1.960019
  C     -2.994626   -1.269688   -0.270021
  C     -3.669551   -2.433506   -0.991102
  N     -2.373946   -1.727558    0.994434
  N     -3.066157   -1.050106    2.034529
  C     -3.935036   -0.301916    1.497792
  C     -4.908312    0.566680    2.206156
  O     -3.962161   -0.305784    0.132278
  N      0.370590   -0.467638    0.594996
  C      1.285750   -1.196565    1.292395
  O      0.939658   -2.044523    2.130530
  C      2.698885   -0.916639    0.987339
  O      3.595088   -1.652581    1.690114
  H      7.373582   -0.494311    0.438196
  H      6.842665   -0.083417   -1.218800
  H      6.874403    1.175701    0.041648
  H      0.061754    0.361031   -2.976893
  H     -0.725888    1.950222   -3.022792
  H      1.003750    1.821655   -2.639853
  H     -0.568464    2.574726    0.662423
  H      0.659973    3.106440   -0.497010
  H     -1.061729    3.267749   -0.892558
  H     -2.147528    1.041045   -0.063272
  H     -2.911906   -3.148476   -1.306939
  H     -4.204055   -2.065089   -1.864204
  H     -4.371748   -2.921330   -0.318879
  H     -5.925934    0.265702    1.958533
  H     -4.778917    1.601746    1.892870
  H     -4.757599    0.489785    3.280225
  H     -1.395387   -1.379625    1.047908
  H      4.509805   -1.429640    1.461523

 Total Charge           Charge          ....   -1
 Multiplicity           Mult            ....    1
 Number of Electrons    NEL             ....  186
 Basis Dimension        Dim             ....  620

ORBITAL ENERGIES
----------------

  NO   OCC          E(Eh)            E(eV)
   0   2.0000     -19.005516      -517.1664
   1   2.0000     -18.997021      -516.9352
   2   2.0000     -18.974631      -516.3260
   3   2.0000     -18.931903      -515.1633
   4   2.0000     -18.915554      -514.7184
   5   2.0000     -18.882982      -513.8321
   6   2.0000     -14.175229      -385.7276
   7   2.0000     -14.173506      -385.6807
   8   2.0000     -14.169650      -385.5758
   9   2.0000     -14.126691      -384.4068
  10   2.0000     -14.124585      -384.3495
  11   2.0000     -10.154967      -276.3307
  12   2.0000     -10.122849      -275.4567
  13   2.0000     -10.122606      -275.4501
  14   2.0000     -10.117424      -275.3091
  15   2.0000     -10.096892      -274.7504
  16   2.0000     -10.091440      -274.6021
  17   2.0000     -10.076745      -274.2022
  18   2.0000     -10.076179      -274.1868
  19   2.0000     -10.075274      -274.1622
  20   2.0000     -10.065200      -273.8880
  21   2.0000     -10.033183      -273.0168
  22   2.0000     -10.015884      -272.5460
  23   2.0000     -10.013149      -272.4716
  24   2.0000     -10.005122      -272.2532
  25   2.0000      -1.078510       -29.3478
  26   2.0000      -1.073506       -29.2116
  27   2.0000      -1.020663       -27.7737
  28   2.0000      -1.000231       -27.2177
  29   2.0000      -0.978626       -26.6298
  30   2.0000      -0.960214       -26.1287
  31   2.0000      -0.926436       -25.2096
  32   2.0000      -0.915999       -24.9256
  33   2.0000      -0.887205       -24.1421
  34   2.0000      -0.814506       -22.1638
  35   2.0000      -0.811288       -22.0763
  36   2.0000      -0.758021       -20.6268
  37   2.0000      -0.721511       -19.6333
  38   2.0000      -0.704247       -19.1635
  39   2.0000      -0.689024       -18.7493
  40   2.0000      -0.683169       -18.5900
  41   2.0000      -0.650740       -17.7075
  42   2.0000      -0.622168       -16.9300
  43   2.0000      -0.617675       -16.8078
  44   2.0000      -0.595760       -16.2115
  45   2.0000      -0.563962       -15.3462
  46   2.0000      -0.547351       -14.8942
  47   2.0000      -0.536695       -14.6042
  48   2.0000      -0.522737       -14.2244
  49   2.0000      -0.519106       -14.1256
  50   2.0000      -0.506769       -13.7899
  51   2.0000      -0.483340       -13.1524
  52   2.0000      -0.468488       -12.7482
  53   2.0000      -0.457199       -12.4410
  54   2.0000      -0.450268       -12.2524
  55   2.0000      -0.447128       -12.1670
  56   2.0000      -0.438065       -11.9204
  57   2.0000      -0.425080       -11.5670
  58   2.0000      -0.412526       -11.2254
  59   2.0000      -0.406089       -11.0502
  60   2.0000      -0.402814       -10.9611
  61   2.0000      -0.392074       -10.6689
  62   2.0000      -0.386865       -10.5271
  63   2.0000      -0.383315       -10.4305
  64   2.0000      -0.373553       -10.1649
  65   2.0000      -0.371318       -10.1041
  66   2.0000      -0.367809       -10.0086
  67   2.0000      -0.366843        -9.9823
  68   2.0000      -0.361343        -9.8326
  69   2.0000      -0.360556        -9.8112
  70   2.0000      -0.351843        -9.5741
  71   2.0000      -0.348989        -9.4965
  72   2.0000      -0.344762        -9.3815
  73   2.0000      -0.344394        -9.3714
  74   2.0000      -0.331723        -9.0266
  75   2.0000      -0.329362        -8.9624
  76   2.0000      -0.323273        -8.7967
  77   2.0000      -0.317802        -8.6478
  78   2.0000      -0.315910        -8.5963
  79   2.0000      -0.312288        -8.4978
  80   2.0000      -0.300154        -8.1676
  81   2.0000      -0.291161        -7.9229
  82   2.0000      -0.276619        -7.5272
  83   2.0000      -0.265469        -7.2238
  84   2.0000      -0.262481        -7.1425
  85   2.0000      -0.246238        -6.7005
  86   2.0000      -0.237275        -6.4566
  87   2.0000      -0.235572        -6.4102
  88   2.0000      -0.224479        -6.1084
  89   2.0000      -0.202453        -5.5090
  90   2.0000      -0.195047        -5.3075
  91   2.0000      -0.178596        -4.8599
  92   2.0000      -0.174043        -4.7360
  93   0.0000      -0.066946        -1.8217
  94   0.0000      -0.016196        -0.4407
  95   0.0000      -0.003430        -0.0933
  96   0.0000       0.002089         0.0568
  97   0.0000       0.042305         1.1512

MULLIKEN ATOMIC CHARGES
-----------------------
   0 C :   -0.322542
   1 O :   -0.190556
   2 C :    0.092522
   3 O :   -0.400511
   4 C :    0.176762
   5 N :   -0.217670
   6 C :    0.183489
   7 C :    0.062705
   8 C :   -0.639127
   9 C :   -0.596570
  10 N :   -0.084947
  11 C :    0.118909
  12 O :   -0.436818
  13 C :    0.224167
  14 C :   -0.584662
  15 N :   -0.398178
  16 N :   -0.280221
  17 C :    0.366437
  18 C :   -0.651929
  19 O :   -0.170713
  20 N :   -0.179781
  21 C :   -0.063390
  22 O :   -0.440815
  23 C :    0.021408
  24 O :   -0.351177
  25 H :    0.176466
  26 H :    0.176938
  27 H :    0.176646
  28 H :    0.191648
  29 H :    0.175892
  30 H :    0.179487
  31 H :    0.182314
  32 H :    0.190300
  33 H :    0.180534
  34 H :    0.321728
  35 H :    0.185212
  36 H :    0.177271
  37 H :    0.176015
  38 H :    0.188765
  39 H :    0.188676
  40 H :    0.194947
  41 H :    0.371494
  42 H :    0.328870
Sum of atomic charges:   -1.0000000

LOEWDIN ATOMIC CHARGES
----------------------
   0 C :   -0.037552
   1 O :   -0.631506
   2 C :    0.402484
   3 O :   -0.419855
   4 C :    0.162798
   5 N :   -0.627514
   6 C :    0.308816
   7 C :    0.101218
   8 C :   -0.359867
   9 C :   -0.350377
  10 N :   -0.583892
  11 C :    0.362410
  12 O :   -0.470610
  13 C :    0.314274
  14 C :   -0.339243
  15 N :   -0.476072
  16 N :   -0.423197
  17 C :    0.342499
  18 C :   -0.324918
  19 O :   -0.510613
  20 N :   -0.580784
  21 C :    0.316947
  22 O :   -0.526606
  23 C :    0.256372
  24 O :   -0.467844
  25 H :    0.185185
  26 H :    0.183176
  27 H :    0.183305
  28 H :    0.180126
  29 H :    0.162296
  30 H :    0.171747
  31 H :    0.169708
  32 H :    0.174193
  33 H :    0.167338
  34 H :    0.295943
  35 H :    0.181770
  36 H :    0.171115
  37 H :    0.170855
  38 H :    0.183239
  39 H :    0.183856
  40 H :    0.184098
  41 H :    0.316702
  42 H :    0.297979

  Mayer bond orders larger than 0.100000
B(  0-C ,  1-O ) :   0.8404 B(  0-C , 25-H ) :   0.9615 B(  0-C , 26-H ) :   0.9533
B(  0-C , 27-H ) :   0.9536 B(  1-O ,  2-C ) :   1.1342 B(  2-C ,  3-O ) :   1.9421
B(  2-C ,  4-C ) :   1.0523 B(  2-C ,  5-N ) :   0.1377 B(  4-C ,  5-N ) :   0.9532
B(  4-C , 23-C ) :   1.1727 B(  5-N ,  6-C ) :   1.4699 B(  6-C ,  7-C ) :   0.7695
B(  6-C , 20-N ) :   1.3459 B(  7-C ,  8-C ) :   0.8844 B(  7-C ,  9-C ) :   0.9144
B(  7-C , 10-N ) :   0.9921 B(  8-C , 28-H ) :   0.9701 B(  8-C , 29-H ) :   0.9750
B(  8-C , 30-H ) :   0.9682 B(  9-C , 31-H ) :   0.9719 B(  9-C , 32-H ) :   0.9744
B(  9-C , 33-H ) :   0.9615 B( 10-N , 11-C ) :   1.1255 B( 10-N , 13-C ) :   0.1366
B( 10-N , 34-H ) :   0.8786 B( 11-C , 12-O ) :   1.8874 B( 11-C , 13-C ) :   0.9975
B( 13-C , 14-C ) :   0.9339 B( 13-C , 15-N ) :   0.7343 B( 13-C , 19-O ) :   0.7759
B( 14-C , 35-H ) :   0.9617 B( 14-C , 36-H ) :   0.9786 B( 14-C , 37-H ) :   0.9626
B( 15-N , 16-N ) :   1.1334 B( 15-N , 41-H ) :   0.7977 B( 16-N , 17-C ) :   1.8209
B( 17-C , 18-C ) :   0.8615 B( 17-C , 19-O ) :   1.0327 B( 18-C , 38-H ) :   0.9429
B( 18-C , 39-H ) :   0.9470 B( 18-C , 40-H ) :   0.9943 B( 20-N , 21-C ) :   1.2042
B( 21-C , 22-O ) :   1.9873 B( 21-C , 23-C ) :   1.0256 B( 23-C , 24-O ) :   1.1396
B( 24-O , 42-H ) :   0.8190

Dispersion correction           -0.020450568
FINAL SINGLE POINT ENERGY     -1269.394905508100

DIPOLE MOMENT
-------------
                                X             Y             Z
Electronic contribution:      8.78981      -7.02255       4.49741
Nuclear contribution   :     -9.34044       9.94428      -5.15189
                        -----------------------------------------
Total Dipole Moment    :     -0.55063       2.92173      -0.65448
                        -----------------------------------------
Magnitude (a.u.)       :      3.04435
Magnitude (Debye)      :      7.73811

Rotational constants in cm-1:     0.015356     0.004169     0.003782
Rotational constants in MHz :   460.356333   124.968655   113.385478

                             ****ORCA TERMINATED NORMALLY****
TOTAL RUN TIME: 0 days 0 hours 2 minutes 25 seconds 665 msec
