   * xtb version 6.5.1 (579679a) compiled by 'ehlert@majestix' on 2022-07-11
          program call               : /lustre/hpc/kemi/ree/PhD/git/ReactivityQM/dep/xtb-6.5.1/bin/xtb --gfn 1 /lustre/hpc/kemi/ree/PhD/git/ReactivityQM/calculations/R02/reac01prodE08/conf20/R02_reac01prodE08_conf20_gfn1.xyz --opt --vfukui --chrg -1 --uhf 0 --alpb DMSO

   ID    Z sym.   atoms
    1    6 C      1, 3, 5, 7-10, 12, 14, 15, 18, 19, 22, 24
    2    8 O      2, 4, 13, 20, 23, 25
    3    7 N      6, 11, 16, 17, 21
    4    1 H      26-43

      * Solvation model:               ALPB
        Solvent                        DMSO
        Solvent mass                       7.8130E+01 g/mol
          :  Hamiltonian                  GFN1-xTB          :
 * total energy  :   -83.8461759 Eh     change       -0.2152092E-08 Eh
 * total energy  :   -83.8591515 Eh     change       -0.1297563E-01 Eh
 * total energy  :   -83.8648312 Eh     change       -0.5679658E-02 Eh
 * total energy  :   -83.8658925 Eh     change       -0.1061272E-02 Eh
 * total energy  :   -83.8665832 Eh     change       -0.6907669E-03 Eh
 * total energy  :   -83.8670387 Eh     change       -0.4554349E-03 Eh
 * total energy  :   -83.8675943 Eh     change       -0.5555941E-03 Eh
 * total energy  :   -83.8684260 Eh     change       -0.8317099E-03 Eh
 * total energy  :   -83.8697314 Eh     change       -0.1305465E-02 Eh
 * total energy  :   -83.8715313 Eh     change       -0.1799874E-02 Eh
 * total energy  :   -83.9084196 Eh     change       -0.1467199E-04 Eh
 * total energy  :   -83.9084401 Eh     change       -0.2052010E-04 Eh
 * total energy  :   -83.9084477 Eh     change       -0.7579255E-05 Eh
 * total energy  :   -83.9084554 Eh     change       -0.7700598E-05 Eh
 * total energy  :   -83.9084636 Eh     change       -0.8204099E-05 Eh
 * total energy  :   -83.9084720 Eh     change       -0.8365367E-05 Eh
 * total energy  :   -83.9084804 Eh     change       -0.8444516E-05 Eh
 * total energy  :   -83.9084875 Eh     change       -0.7057731E-05 Eh
 * total energy  :   -83.9084922 Eh     change       -0.4763627E-05 Eh
   *** GEOMETRY OPTIMIZATION CONVERGED AFTER 50 ITERATIONS ***

 final structure:
================
43
 xtb: 6.5.1 (579679a)
C            6.69541816083940        0.11550103207395       -0.15413357257309
O            5.36737194782958       -0.24057212348841        0.23557180609255
C            4.37137142840678        0.42966952348219       -0.38923456298560
O            4.61111421265711        1.27444461162462       -1.22716121223025
C            3.01511191601839        0.03267132420913        0.04232618415919
N            2.02372532027338        0.71711183017567       -0.61015528226789
C            0.78114387795700        0.42182240910368       -0.30049062251823
C           -0.28620231931291        1.24508539195188       -1.02505476256833
C            0.02954204209924        1.34869953602802       -2.51936639663862
C           -0.32062154333812        2.64294220771844       -0.39649076225393
N           -1.59845820769530        0.63286858506947       -0.80378442491910
C           -1.86855468232316       -0.64420750769426       -1.12255814013146
O           -1.27791802182630       -1.31012790353676       -1.96001890195937
C           -2.99462637473878       -1.26968766286490       -0.27002110252179
C           -3.66955087963203       -2.43350619266444       -0.99110235529845
N           -2.37394625399266       -1.72755830395921        0.99443439565855
N           -3.06615733854300       -1.05010630279407        2.03452867455353
C           -3.93503564343756       -0.30191597441132        1.49779184301326
C           -4.90831240963997        0.56668006163705        2.20615555806585
O           -3.96216058841897       -0.30578375335472        0.13227796318897
N            0.37059006999924       -0.46763838854430        0.59499585918347
C            1.28575035031288       -1.19656479762023        1.29239498645006
O            0.93965763140751       -2.04452303548466        2.13053033285275
C            2.69888515253262       -0.91663865584680        0.98733870079682
O            3.59508815149827       -1.65258145681128        1.69011412855524
H            7.37358221627254       -0.49431125494581        0.43819556387994
H            6.84266501288914       -0.08341686626144       -1.21879961063387
H            6.87440282374237        1.17570051522273        0.04164793498833
H            0.06175356753242        0.36103051719453       -2.97689299158754
H           -0.72588844449793        1.95022160068126       -3.02279188709117
H            1.00375013645014        1.82165492706029       -2.63985297958885
H           -0.56846362144070        2.57472633271991        0.66242256118096
H            0.65997279466902        3.10644012274613       -0.49701008542356
H           -1.06172886752508        3.26774914014999       -0.89255837806189
H           -2.14752767039968        1.04104488848449       -0.06327203223292
H           -2.91190628353113       -3.14847567535754       -1.30693878083662
H           -4.20405517494593       -2.06508922023259       -1.86420385840698
H           -4.37174806163061       -2.92132980935112       -0.31887928698017
H           -5.92593428390570        0.26570185354550        1.95853296417800
H           -4.77891689265887        1.60174643716842        1.89287019670569
H           -4.75759944019778        0.48978548562985        3.28022488791770
H           -1.39538672723575       -1.37962459434647        1.04790825235061
H            4.50980491747222       -1.42963985410554        1.46152319592555

          :  Hamiltonian                  GFN1-xTB          :
         :: total energy             -83.908492241658 Eh    ::
         :: gradient norm              0.000388760676 Eh/a0 ::
         :: HOMO-LUMO gap              2.449192060940 eV    ::
         :: SCC energy               -84.667394188655 Eh    ::
         :: -> Gsolv                  -0.119192658578 Eh    ::
         :: repulsion energy           0.787231854665 Eh    ::

    * Orbital Energies and Occupations

         #    Occupation            Energy/Eh            Energy/eV
      -------------------------------------------------------------
         1        2.0000           -0.8199999             -22.3133
       ...           ...                  ...                  ...
        56        2.0000           -0.4753010             -12.9336
        57        2.0000           -0.4676192             -12.7246
        58        2.0000           -0.4610456             -12.5457
        59        2.0000           -0.4533769             -12.3370
        60        2.0000           -0.4456241             -12.1260
        61        2.0000           -0.4373066             -11.8997
        62        2.0000           -0.4343826             -11.8202
        63        2.0000           -0.4240259             -11.5383
        64        2.0000           -0.4183859             -11.3849
        65        2.0000           -0.3970953             -10.8055
        66        2.0000           -0.3861765             -10.5084
        67        2.0000           -0.3708887             -10.0924
        68        2.0000           -0.3684725             -10.0266 (HOMO)
        69                         -0.2784663              -7.5775 (LUMO)
        70                         -0.2404386              -6.5427
        71                         -0.2316359              -6.3031
        72                         -0.2248043              -6.1172
        73                         -0.1901450              -5.1741
        74                         -0.1329453              -3.6176
        75                         -0.1273063              -3.4642
        76                         -0.1159516              -3.1552
        77                         -0.1143602              -3.1119
        78                         -0.1060379              -2.8854
        79                         -0.1031183              -2.8060
       ...                                ...                  ...
       136                          0.7391733              20.1139
      -------------------------------------------------------------
                  HL-Gap            0.0900062 Eh            2.4492 eV

Wiberg/Mayer (AO) data.
largest (>0.10) Wiberg bond orders for each atom

     #   Z sym  total        # sym  WBO       # sym  WBO       # sym  WBO
 ---------------------------------------------------------------------------
     1   6 C    3.878 --    26 H    0.987    27 H    0.980    28 H    0.980
                             2 O    0.901
     2   8 O    2.184 --     3 C    1.057     1 C    0.901     4 O    0.119
     3   6 C    3.832 --     4 O    1.646     2 O    1.057     5 C    1.035
     4   8 O    1.907 --     3 C    1.646     2 O    0.119
     5   6 C    3.963 --    24 C    1.472     6 N    1.202     3 C    1.035
     6   7 N    2.994 --     7 C    1.458     5 C    1.202
     7   6 C    3.957 --     6 N    1.458    21 N    1.374     8 C    0.959
     8   6 C    3.932 --     9 C    0.993    10 C    0.990     7 C    0.959
                            11 N    0.918
     9   6 C    3.994 --     8 C    0.993    30 H    0.987    31 H    0.984
                            29 H    0.981
    10   6 C    3.995 --     8 C    0.990    34 H    0.986    32 H    0.984
                            33 H    0.984
    11   7 N    3.340 --    12 C    1.280     8 C    0.918    35 H    0.909
                            13 O    0.165
    12   6 C    3.898 --    13 O    1.598    11 N    1.280    14 C    0.918
    13   8 O    1.897 --    12 C    1.598    11 N    0.165
    14   6 C    3.878 --    15 C    0.991    16 N    0.949    12 C    0.918
                            20 O    0.910
    15   6 C    3.994 --    14 C    0.991    38 H    0.986    37 H    0.985
                            36 H    0.983
    16   7 N    3.037 --    17 N    1.009    14 C    0.949    42 H    0.891
    17   7 N    2.989 --    18 C    1.771    16 N    1.009    20 O    0.113
    18   6 C    3.894 --    17 N    1.771    19 C    1.022    20 O    1.007
    19   6 C    3.992 --    18 C    1.022    41 H    0.985    40 H    0.969
                            39 H    0.969
    20   8 O    2.132 --    18 C    1.007    14 C    0.910    17 N    0.113
    21   7 N    3.030 --     7 C    1.374    22 C    1.226    23 O    0.125
    22   6 C    3.929 --    23 O    1.499    21 N    1.226    24 C    1.071
    23   8 O    1.796 --    22 C    1.499    21 N    0.125
    24   6 C    3.902 --     5 C    1.472    22 C    1.071    25 O    1.061
    25   8 O    2.047 --    24 C    1.061    43 H    0.823
    26   1 H    1.012 --     1 C    0.987
    27   1 H    1.010 --     1 C    0.980
    28   1 H    1.010 --     1 C    0.980
    29   1 H    1.020 --     9 C    0.981
    30   1 H    1.005 --     9 C    0.987
    31   1 H    1.018 --     9 C    0.984
    32   1 H    1.003 --    10 C    0.984
    33   1 H    1.009 --    10 C    0.984
    34   1 H    1.002 --    10 C    0.986
    35   1 H    0.955 --    11 N    0.909
    36   1 H    1.012 --    15 C    0.983
    37   1 H    1.004 --    15 C    0.985
    38   1 H    1.008 --    15 C    0.986
    39   1 H    1.001 --    19 C    0.969
    40   1 H    1.001 --    19 C    0.969
    41   1 H    1.002 --    19 C    0.985
    42   1 H    1.013 --    16 N    0.891
    43   1 H    0.875 --    25 O    0.823
 ---------------------------------------------------------------------------

           -------------------------------------------------
          | TOTAL ENERGY              -83.908492241658 Eh   |
          | GRADIENT NORM               0.000388760676 Eh/α |
          | HOMO-LUMO GAP               2.449192060940 eV   |
           -------------------------------------------------

 * finished run on 2023/06/20 at 15:06:53.742
