   * xtb version 6.5.1 (579679a) compiled by 'ehlert@majestix' on 2022-07-11
          program call               : /lustre/hpc/kemi/ree/PhD/git/ReactivityQM/dep/xtb-6.5.1/bin/xtb --gfn 1 /lustre/hpc/kemi/ree/PhD/git/ReactivityQM/calculations/R02oxygendeprot/reac01prodE01/conf02/R02oxygendeprot_reac01prodE01_conf02_gfn1.xyz --opt --vfukui --chrg -2 --uhf 0 --alpb DMSO

   ID    Z sym.   atoms
    1    6 C      1, 3, 5, 7-10, 12, 13, 15, 18, 19, 22, 24
    2    8 O      2, 4, 14, 20, 23, 25
    3    7 N      6, 11, 16, 17, 21
    4    1 H      26-42

      * Solvation model:               ALPB
        Solvent                        DMSO
        Solvent mass                       7.8130E+01 g/mol
          :  Hamiltonian                  GFN1-xTB          :
 * total energy  :   -83.6287807 Eh     change       -0.1671197E-10 Eh
 * total energy  :   -83.6424225 Eh     change       -0.1364183E-01 Eh
 * total energy  :   -83.6474187 Eh     change       -0.4996156E-02 Eh
 * total energy  :   -83.6483041 Eh     change       -0.8854814E-03 Eh
 * total energy  :   -83.6487766 Eh     change       -0.4724316E-03 Eh
 * total energy  :   -83.6490201 Eh     change       -0.2435642E-03 Eh
 * total energy  :   -83.6491801 Eh     change       -0.1599093E-03 Eh
 * total energy  :   -83.6492586 Eh     change       -0.7855952E-04 Eh
 * total energy  :   -83.6492968 Eh     change       -0.3818970E-04 Eh
 * total energy  :   -83.6493257 Eh     change       -0.2888066E-04 Eh
 * total energy  :   -83.6497422 Eh     change       -0.3153433E-04 Eh
 * total energy  :   -83.6497848 Eh     change       -0.4257405E-04 Eh
 * total energy  :   -83.6498248 Eh     change       -0.4000336E-04 Eh
 * total energy  :   -83.6498558 Eh     change       -0.3098451E-04 Eh
 * total energy  :   -83.6498882 Eh     change       -0.3237838E-04 Eh
 * total energy  :   -83.6498968 Eh     change       -0.8626349E-05 Eh
 * total energy  :   -83.6499031 Eh     change       -0.6323931E-05 Eh
 * total energy  :   -83.6499090 Eh     change       -0.5851853E-05 Eh
 * total energy  :   -83.6499133 Eh     change       -0.4356071E-05 Eh
   *** GEOMETRY OPTIMIZATION CONVERGED AFTER 36 ITERATIONS ***

 final structure:
================
42
 xtb: 6.5.1 (579679a)
C            7.11571319302564        0.64826982000376       -0.49076237848425
O            5.86746302917740        0.75288386098593        0.17338632344635
C            4.78936661980940        0.28985545681107       -0.52059544432132
O            4.94051531086624       -0.19370241200413       -1.63941181874507
C            3.51788898391009        0.42553596210143        0.16534899190244
N            2.45031420789334       -0.04774209382497       -0.58529234647645
C            1.25582382980762        0.01708591461620       -0.12052172282811
C            0.07122517613482       -0.53763880748652       -0.91453494527864
C            0.25192526690807       -2.06285893902221       -0.95217527064981
C            0.16141287734222        0.01974462585829       -2.34699303799442
N           -1.14964231617085       -0.07453157353023       -0.24975809869757
C           -2.38119672217034       -0.98766667317987       -0.13592001682609
C           -3.14150241027491       -0.94477826478160       -1.50503465823152
O           -2.16607540397669       -2.17755102715647        0.33384580055868
C           -3.24360866924962       -0.13684604911728        0.87069994609364
N           -2.82507115877086        0.43436257179598        1.95647682356921
N           -3.93703241644819        0.93846847392918        2.60380594889719
C           -4.95096006920734        0.63235136177580        1.86846893357900
C           -6.37787738051401        0.95362952625542        2.11627262299025
O           -4.59083926298577       -0.04860288891082        0.76198165057059
N            0.99108262435705        0.53344797902784        1.12427591982238
C            1.93496856163967        1.03284756303769        1.96922242706005
O            1.60670424666157        1.49336611042135        3.06669713508670
C            3.35891136103625        0.97631657173186        1.46334928822426
O            4.27055718872543        1.40939856236227        2.20072693200501
H            7.35381463678442       -0.39702556554837       -0.71377368909033
H            7.10601076002077        1.21235057779028       -1.42909459780007
H            7.87115496017456        1.06144109154970        0.17672045338320
H           -0.52589798243442       -2.53648285257827       -1.54776353263561
H            0.22798886199165       -2.48238361777705        0.05335431303614
H            1.22226195026265       -2.28332627922615       -1.40169652677083
H           -0.60561510104132       -0.42319065805904       -2.97919505690394
H            0.02780044110501        1.10125927824559       -2.34238327224546
H            1.14168695967425       -0.20684000453596       -2.76808660395503
H           -1.45955717566362        0.77550507367227       -0.70938529977479
H           -2.56770508599963       -1.48739218237771       -2.25349776242059
H           -4.10301065797838       -1.43996282759932       -1.37833304788686
H           -3.30588073075372        0.07690757950208       -1.84153183197902
H           -6.76446149981683        1.58805926220355        1.31911205789813
H           -6.97358178265301        0.04163021256732        2.13944553708588
H           -6.47454586304700        1.47301915463912        3.06655231569226
H            0.00946964184131        0.58078612582968        1.39599653908846

          :  Hamiltonian                  GFN1-xTB          :
         :: total energy             -83.649913333184 Eh    ::
         :: gradient norm              0.000647914165 Eh/a0 ::
         :: HOMO-LUMO gap              2.132452678787 eV    ::
         :: SCC energy               -84.383862957791 Eh    ::
         :: -> Gsolv                  -0.276453202983 Eh    ::
         :: repulsion energy           0.760071189137 Eh    ::

    * Orbital Energies and Occupations

         #    Occupation            Energy/Eh            Energy/eV
      -------------------------------------------------------------
         1        2.0000           -0.8154381             -22.1892
       ...           ...                  ...                  ...
        56        2.0000           -0.4409514             -11.9989
        57        2.0000           -0.4397080             -11.9651
        58        2.0000           -0.4314038             -11.7391
        59        2.0000           -0.4269217             -11.6171
        60        2.0000           -0.4219514             -11.4819
        61        2.0000           -0.4103762             -11.1669
        62        2.0000           -0.4054486             -11.0328
        63        2.0000           -0.3992510             -10.8642
        64        2.0000           -0.3704968             -10.0817
        65        2.0000           -0.3624488              -9.8627
        66        2.0000           -0.3509500              -9.5498
        67        2.0000           -0.3454783              -9.4009
        68        2.0000           -0.3367538              -9.1635 (HOMO)
        69                         -0.2583876              -7.0311 (LUMO)
        70                         -0.2225557              -6.0560
        71                         -0.2180882              -5.9345
        72                         -0.2059950              -5.6054
        73                         -0.1851687              -5.0387
        74                         -0.1271636              -3.4603
        75                         -0.1186364              -3.2283
        76                         -0.1019921              -2.7753
        77                         -0.0958863              -2.6092
        78                         -0.0863567              -2.3499
        79                         -0.0801810              -2.1818
       ...                                ...                  ...
       134                          0.7561599              20.5762
      -------------------------------------------------------------
                  HL-Gap            0.0783662 Eh            2.1325 eV

Wiberg/Mayer (AO) data.
largest (>0.10) Wiberg bond orders for each atom

     #   Z sym  total        # sym  WBO       # sym  WBO       # sym  WBO
 ---------------------------------------------------------------------------
     1   6 C    3.904 --    28 H    0.987    27 H    0.980    26 H    0.980
                             2 O    0.930
     2   8 O    2.151 --     3 C    1.034     1 C    0.930     4 O    0.106
     3   6 C    3.849 --     4 O    1.565     5 C    1.129     2 O    1.034
     4   8 O    1.843 --     3 C    1.565     2 O    0.106
     5   6 C    3.920 --    24 C    1.281     6 N    1.143     3 C    1.129
                            25 O    0.130
     6   7 N    3.019 --     7 C    1.627     5 C    1.143
     7   6 C    3.925 --     6 N    1.627    21 N    1.111     8 C    0.966
     8   6 C    3.968 --    10 C    0.984     9 C    0.984    11 N    0.978
                             7 C    0.966
     9   6 C    3.995 --    31 H    0.986     8 C    0.984    30 H    0.983
                            29 H    0.981
    10   6 C    3.995 --    33 H    0.985    32 H    0.985     8 C    0.984
                            34 H    0.983
    11   7 N    3.010 --     8 C    0.978    35 H    0.952    12 C    0.846
    12   6 C    3.933 --    14 O    1.221    13 C    0.937    15 C    0.874
                            11 N    0.846
    13   6 C    3.991 --    38 H    0.989    37 H    0.985    36 H    0.983
                            12 C    0.937
    14   8 O    1.543 --    12 C    1.221
    15   6 C    3.801 --    16 N    1.654    20 O    1.045    12 C    0.874
    16   7 N    2.969 --    15 C    1.654    17 N    1.149
    17   7 N    2.976 --    18 C    1.657    16 N    1.149
    18   6 C    3.888 --    17 N    1.657    20 O    1.061    19 C    1.024
    19   6 C    3.993 --    18 C    1.024    41 H    0.985    40 H    0.971
                            39 H    0.970
    20   8 O    2.292 --    18 C    1.061    15 C    1.045
    21   7 N    3.451 --    22 C    1.186     7 C    1.111    42 H    0.879
                            23 O    0.136
    22   6 C    3.886 --    23 O    1.549    21 N    1.186    24 C    0.974
    23   8 O    1.830 --    22 C    1.549    21 N    0.136
    24   6 C    3.945 --    25 O    1.499     5 C    1.281    22 C    0.974
    25   8 O    1.804 --    24 C    1.499     5 C    0.130
    26   1 H    1.016 --     1 C    0.980
    27   1 H    1.015 --     1 C    0.980
    28   1 H    1.017 --     1 C    0.987
    29   1 H    1.025 --     9 C    0.981
    30   1 H    1.032 --     9 C    0.983
    31   1 H    1.015 --     9 C    0.986
    32   1 H    1.009 --    10 C    0.985
    33   1 H    1.007 --    10 C    0.985
    34   1 H    1.018 --    10 C    0.983
    35   1 H    0.981 --    11 N    0.952
    36   1 H    1.017 --    13 C    0.983
    37   1 H    1.017 --    13 C    0.985
    38   1 H    1.009 --    13 C    0.989
    39   1 H    1.002 --    19 C    0.970
    40   1 H    1.002 --    19 C    0.971
    41   1 H    1.003 --    19 C    0.985
    42   1 H    0.984 --    21 N    0.879
 ---------------------------------------------------------------------------

           -------------------------------------------------
          | TOTAL ENERGY              -83.649913333184 Eh   |
          | GRADIENT NORM               0.000647914165 Eh/α |
          | HOMO-LUMO GAP               2.132452678787 eV   |
           -------------------------------------------------

 * finished run on 2023/06/21 at 17:00:49.091
