   * xtb version 6.5.1 (579679a) compiled by 'ehlert@majestix' on 2022-07-11
          program call               : /lustre/hpc/kemi/ree/PhD/git/ReactivityQM/dep/xtb-6.5.1/bin/xtb --gfn 1 /lustre/hpc/kemi/ree/PhD/git/ReactivityQM/calculations/R02oxygendeprot/reac01prodN17/conf04/R02oxygendeprot_reac01prodN17_conf04_gfn1.xyz --opt --vfukui --chrg 0 --uhf 0 --alpb DMSO

   ID    Z sym.   atoms
    1    6 C      1, 3, 5, 7-10, 12, 13, 15, 18, 19, 22, 24
    2    8 O      2, 4, 14, 20, 23, 25
    3    7 N      6, 11, 16, 17, 21
    4    1 H      26-42

      * Solvation model:               ALPB
        Solvent                        DMSO
        Solvent mass                       7.8130E+01 g/mol
          :  Hamiltonian                  GFN1-xTB          :
 * total energy  :   -82.9285714 Eh     change       -0.8242296E-12 Eh
 * total energy  :   -82.9435986 Eh     change       -0.1502716E-01 Eh
 * total energy  :   -82.9493922 Eh     change       -0.5793675E-02 Eh
 * total energy  :   -82.9503946 Eh     change       -0.1002324E-02 Eh
 * total energy  :   -82.9508924 Eh     change       -0.4978621E-03 Eh
 * total energy  :   -82.9511778 Eh     change       -0.2853361E-03 Eh
 * total energy  :   -82.9514314 Eh     change       -0.2536701E-03 Eh
 * total energy  :   -82.9516854 Eh     change       -0.2539223E-03 Eh
 * total energy  :   -82.9519499 Eh     change       -0.2645155E-03 Eh
 * total energy  :   -82.9521743 Eh     change       -0.2244287E-03 Eh
 * total energy  :   -82.9536935 Eh     change       -0.1252590E-04 Eh
 * total energy  :   -82.9537037 Eh     change       -0.1012654E-04 Eh
 * total energy  :   -82.9537120 Eh     change       -0.8321667E-05 Eh
 * total energy  :   -82.9537312 Eh     change       -0.1923192E-04 Eh
 * total energy  :   -82.9537403 Eh     change       -0.9096153E-05 Eh
 * total energy  :   -82.9537491 Eh     change       -0.8825859E-05 Eh
 * total energy  :   -82.9537559 Eh     change       -0.6733428E-05 Eh
 * total energy  :   -82.9537625 Eh     change       -0.6581018E-05 Eh
 * total energy  :   -82.9537668 Eh     change       -0.4293550E-05 Eh
   *** GEOMETRY OPTIMIZATION CONVERGED AFTER 56 ITERATIONS ***

 final structure:
================
42
 xtb: 6.5.1 (579679a)
C           -6.70812733932978       -0.05340330491990       -0.86651062859252
O           -5.52010001097692        0.63112350724092       -0.48085350395802
C           -4.41954491894140       -0.13141911233646       -0.33462082226492
O           -4.44878627909157       -1.33721402547697       -0.52820822338300
C           -3.21783992297121        0.60433498018490        0.06810095466369
N           -2.12852012230854       -0.21207022064266        0.21876652761524
C           -0.99124575124811        0.25274685263016        0.60290402804576
C            0.17484418160708       -0.68640194963155        0.74300681622712
C           -0.30670909269122       -2.11913739393635        0.93120053093165
C            1.13662002628333       -0.28108937043293        1.85407806842615
N            0.96655711079146       -0.56646662366241       -0.60104387420219
C            0.20718154504203       -1.06413231782573       -1.77713632020368
C            2.29062897265421       -1.26010320903744       -0.53937103801125
O            2.35540825665071       -2.45300328075291       -0.59909178212632
C            3.34972394815565       -0.28919010325246       -0.42696495039067
N            3.18166297667199        1.01179936094466       -0.41989033580775
N            4.40142246416296        1.56269835366779       -0.31658984924756
C            5.26116487833032        0.57603485451596       -0.26668794671031
C            6.72850359982133        0.66809661655291       -0.14942511914240
O            4.65254145176313       -0.61037719798521       -0.33484372954492
N           -0.79942163409006        1.60123504525118        0.82530262229478
C           -1.79587289370644        2.54348900003842        0.68901455667289
O           -1.54482942138821        3.72255315598883        0.89375106614091
C           -3.15621631716142        2.01170149046130        0.28447077472775
O           -4.09327278234276        2.81068509760775        0.16608718620130
H           -7.00076972796372       -0.77446630188791       -0.09767889111714
H           -6.55538954326997       -0.58420036269185       -1.81056262992916
H           -7.48510914467032        0.70063721582946       -0.98449439089315
H            0.51752416612150       -2.82317875207093        0.85230024766477
H           -0.74055241343782       -2.19899652214915        1.92733879500524
H           -1.07621685424988       -2.36928648098882        0.20244746917703
H            1.89800127053875       -1.04652933005937        1.99328756676594
H            1.63141941070217        0.66094952539901        1.62664037286503
H            0.57783711652597       -0.17348186851362        2.78238433171081
H            1.15889898573313        0.43322818068810       -0.72540659009198
H            0.22552252887325       -2.15071756200986       -1.77075768882810
H           -0.81389161641208       -0.69348393541087       -1.70794152916150
H            0.69721116131502       -0.68432803539478       -2.66970732675055
H            7.02968673612100        1.71171670154013       -0.09923714093312
H            7.06006046335164        0.14463877459894        0.74786384177300
H            7.19897445823599        0.18855137301201       -1.00826131025960
H            0.10102107679903        1.94842217491892        1.10633786464208

          :  Hamiltonian                  GFN1-xTB          :
         :: total energy             -82.953766756557 Eh    ::
         :: gradient norm              0.000527772226 Eh/a0 ::
         :: HOMO-LUMO gap              0.387409722398 eV    ::
         :: SCC energy               -83.727982683087 Eh    ::
         :: -> Gsolv                  -0.091447834372 Eh    ::
         :: repulsion energy           0.801986013499 Eh    ::

    * Orbital Energies and Occupations

         #    Occupation            Energy/Eh            Energy/eV
      -------------------------------------------------------------
         1        2.0000           -0.8945664             -24.3424
       ...           ...                  ...                  ...
        55        2.0000           -0.5182729             -14.1029
        56        2.0000           -0.5102392             -13.8843
        57        2.0000           -0.5046942             -13.7334
        58        2.0000           -0.4976368             -13.5414
        59        2.0000           -0.4853004             -13.2057
        60        2.0000           -0.4833116             -13.1516
        61        2.0000           -0.4773559             -12.9895
        62        2.0000           -0.4761923             -12.9579
        63        2.0000           -0.4627846             -12.5930
        64        2.0000           -0.4524983             -12.3131
        65        2.0000           -0.4410882             -12.0026
        66        2.0000           -0.3989474             -10.8559
        67        1.9989           -0.3880173             -10.5585 (HOMO)
        68        0.0011           -0.3737803             -10.1711 (LUMO)
        69                         -0.2875422              -7.8244
        70                         -0.2843943              -7.7388
        71                         -0.2727123              -7.4209
        72                         -0.2483669              -6.7584
        73                         -0.2140959              -5.8258
        74                         -0.1614288              -4.3927
        75                         -0.1527619              -4.1569
        76                         -0.1479995              -4.0273
        77                         -0.1421824              -3.8690
        78                         -0.1324399              -3.6039
       ...                                ...                  ...
       134                          0.7515541              20.4508
      -------------------------------------------------------------
                  HL-Gap            0.0142370 Eh            0.3874 eV

Wiberg/Mayer (AO) data.
largest (>0.10) Wiberg bond orders for each atom

     #   Z sym  total        # sym  WBO       # sym  WBO       # sym  WBO
 ---------------------------------------------------------------------------
     1   6 C    3.890 --    28 H    0.987    26 H    0.980    27 H    0.980
                             2 O    0.915
     2   8 O    2.175 --     3 C    1.074     1 C    0.915     4 O    0.118
     3   6 C    3.849 --     4 O    1.597     5 C    1.078     2 O    1.074
     4   8 O    1.862 --     3 C    1.597     2 O    0.118
     5   6 C    3.872 --    24 C    1.237     6 N    1.204     3 C    1.078
                            25 O    0.112
     6   7 N    3.045 --     7 C    1.575     5 C    1.204
     7   6 C    3.930 --     6 N    1.575    21 N    1.097     8 C    0.994
     8   6 C    3.878 --     9 C    1.007    10 C    1.004     7 C    0.994
                            11 N    0.792
     9   6 C    3.983 --     8 C    1.007    29 H    0.980    31 H    0.977
                            30 H    0.976
    10   6 C    3.987 --     8 C    1.004    32 H    0.978    33 H    0.977
                            34 H    0.977
    11   7 N    3.591 --    12 C    0.901    35 H    0.883    13 C    0.878
                             8 C    0.792
    12   6 C    3.885 --    38 H    0.982    36 H    0.981    37 H    0.974
                            11 N    0.901
    13   6 C    3.849 --    14 O    1.746    15 C    1.085    11 N    0.878
    14   8 O    2.015 --    13 C    1.746
    15   6 C    3.884 --    16 N    1.511    13 C    1.085    20 O    1.059
    16   7 N    3.024 --    15 C    1.511    17 N    1.266
    17   7 N    2.986 --    18 C    1.533    16 N    1.266
    18   6 C    3.844 --    17 N    1.533    20 O    1.103    19 C    1.040
    19   6 C    3.979 --    18 C    1.040    39 H    0.980    40 H    0.955
                            41 H    0.955
    20   8 O    2.343 --    18 C    1.103    15 C    1.059
    21   7 N    3.417 --    22 C    1.141     7 C    1.097    42 H    0.892
                            23 O    0.134
    22   6 C    3.868 --    23 O    1.608    21 N    1.141    24 C    0.958
    23   8 O    1.878 --    22 C    1.608    21 N    0.134
    24   6 C    3.928 --    25 O    1.558     5 C    1.237    22 C    0.958
    25   8 O    1.835 --    24 C    1.558     5 C    0.112
    26   1 H    1.011 --     1 C    0.980
    27   1 H    1.012 --     1 C    0.980
    28   1 H    1.014 --     1 C    0.987
    29   1 H    1.003 --     9 C    0.980
    30   1 H    0.999 --     9 C    0.976
    31   1 H    1.013 --     9 C    0.977
    32   1 H    0.996 --    10 C    0.978
    33   1 H    1.003 --    10 C    0.977
    34   1 H    0.996 --    10 C    0.977
    35   1 H    0.958 --    11 N    0.883
    36   1 H    0.998 --    12 C    0.981
    37   1 H    1.006 --    12 C    0.974
    38   1 H    0.991 --    12 C    0.982
    39   1 H    0.995 --    19 C    0.980
    40   1 H    0.991 --    19 C    0.955
    41   1 H    0.991 --    19 C    0.955
    42   1 H    0.940 --    21 N    0.892
 ---------------------------------------------------------------------------

           -------------------------------------------------
          | TOTAL ENERGY              -82.953766756557 Eh   |
          | GRADIENT NORM               0.000527772226 Eh/α |
          | HOMO-LUMO GAP               0.387409722398 eV   |
           -------------------------------------------------

 * finished run on 2023/06/21 at 17:37:49.343
