   * xtb version 6.5.1 (579679a) compiled by 'ehlert@majestix' on 2022-07-11
          program call               : /lustre/hpc/kemi/ree/PhD/git/ReactivityQM/dep/xtb-6.5.1/bin/xtb --gfn 1 /lustre/hpc/kemi/ree/PhD/git/ReactivityQM/calculations/R02deprot/reac01prodN17/conf05/R02deprot_reac01prodN17_conf05_gfn1.xyz --opt --vfukui --chrg 0 --uhf 0 --alpb DMSO

   ID    Z sym.   atoms
    1    6 C      1, 2, 5, 6, 9-12, 14, 15, 18-20, 22
    2    7 N      3, 4, 8, 13, 24
    3    8 O      7, 16, 17, 21, 23, 25
    4    1 H      26-42

      * Solvation model:               ALPB
        Solvent                        DMSO
        Solvent mass                       7.8130E+01 g/mol
          :  Hamiltonian                  GFN1-xTB          :
 * total energy  :   -82.9045068 Eh     change       -0.2984279E-11 Eh
 * total energy  :   -82.9196356 Eh     change       -0.1512875E-01 Eh
 * total energy  :   -82.9259084 Eh     change       -0.6272793E-02 Eh
 * total energy  :   -82.9275102 Eh     change       -0.1601849E-02 Eh
 * total energy  :   -82.9285810 Eh     change       -0.1070752E-02 Eh
 * total energy  :   -82.9292373 Eh     change       -0.6563554E-03 Eh
 * total energy  :   -82.9297435 Eh     change       -0.5061563E-03 Eh
 * total energy  :   -82.9301928 Eh     change       -0.4492898E-03 Eh
 * total energy  :   -82.9306066 Eh     change       -0.4138553E-03 Eh
 * total energy  :   -82.9310206 Eh     change       -0.4139542E-03 Eh
 * total energy  :   -82.9331551 Eh     change       -0.8151503E-05 Eh
 * total energy  :   -82.9331670 Eh     change       -0.1193495E-04 Eh
 * total energy  :   -82.9331728 Eh     change       -0.5759789E-05 Eh
 * total energy  :   -82.9331802 Eh     change       -0.7385939E-05 Eh
 * total energy  :   -82.9331868 Eh     change       -0.6627526E-05 Eh
 * total energy  :   -82.9331941 Eh     change       -0.7290577E-05 Eh
 * total energy  :   -82.9332018 Eh     change       -0.7715535E-05 Eh
 * total energy  :   -82.9332080 Eh     change       -0.6216429E-05 Eh
 * total energy  :   -82.9332128 Eh     change       -0.4801497E-05 Eh
   *** GEOMETRY OPTIMIZATION CONVERGED AFTER 52 ITERATIONS ***

 final structure:
================
42
 xtb: 6.5.1 (579679a)
C            7.63642711664348       -1.13644543003775        1.07411602027457
C            6.17577099456564       -1.03543635676749        0.85918600228945
N            5.25278577142907       -1.83599809686812        1.29553241342664
N            4.06372832056633       -1.33541732383551        0.85176495706027
C            4.33835641632422       -0.26341208715995        0.17257997874001
C            3.35613516484517        0.63725920347190       -0.49455921630054
O            3.68732455249248        1.61710218493655       -1.14582498446503
N            2.10010291654323        0.22817595347508       -0.27330909309619
C            0.90746201845720        0.91194868848339       -0.76133797824374
C            0.85848240204247        2.34498492937701       -0.21390442685836
C            0.89161468281374        0.91215513958831       -2.29699635239239
C           -0.30447504301026        0.14190891582493       -0.25528416268395
N           -1.46646995849827        0.69922018800538       -0.51183295020642
C           -2.59697360118438        0.04781834496796       -0.07438087136451
C           -3.78760731860512        0.78254081762515       -0.33908587330829
O           -4.01105998181426        1.83815525520465       -0.82387571572630
O           -5.05861450670365        0.03523958088276        0.19527035489893
C           -6.07585549698028        0.96972903217757        0.62858049584695
C           -5.55002954136440       -0.95450149106497       -0.74351853317491
C           -2.47000319390049       -1.15682776642040        0.58883198613473
O           -3.47445193780813       -1.89922926087910        1.04883812497120
C           -1.12801419234528       -1.71968856694422        0.83714505214247
O           -1.06552633289744       -2.80023916512746        1.44001107002616
N           -0.07846675709479       -1.00642281905922        0.38592811735322
O            5.66301196129531       -0.02358369924687        0.14265144926947
H            7.85803248159174       -2.01600064844037        1.67325757704178
H            7.99958216936712       -0.24517993300912        1.58552513726038
H            8.15099435007335       -1.20855276372094        0.11598897461620
H            1.93021377511770       -0.61419997855184        0.27103186009050
H           -0.08609190431403        2.80205763872665       -0.50502321741198
H            0.92335463942694        2.32981310549261        0.87346919805202
H            1.68096394886317        2.93574439730784       -0.61342413846213
H            0.97388900858582       -0.10794985986979       -2.67013801526495
H            1.72020916532742        1.50261867654858       -2.68490936627887
H           -0.04761355645354        1.34121503011856       -2.64280051650064
H           -5.62309333850791        1.59751325131297        1.39312750078656
H           -6.41701359232550        1.56798424326746       -0.21699508829861
H           -6.89006538381841        0.38155262750675        1.04396619469739
H           -5.98372532722377       -0.45726805967394       -1.61144492019895
H           -4.70554699271817       -1.57687240698783       -1.02796933168819
H           -6.29563668779471       -1.54592058192072       -0.21707427779758
H           -3.05210821099619       -2.68558790873166        1.47573656472622

          :  Hamiltonian                  GFN1-xTB          :
         :: total energy             -82.933212815925 Eh    ::
         :: gradient norm              0.000429091282 Eh/a0 ::
         :: HOMO-LUMO gap              1.676684869378 eV    ::
         :: SCC energy               -83.713968681775 Eh    ::
         :: -> Gsolv                  -0.067865253044 Eh    ::
         :: repulsion energy           0.806229010893 Eh    ::

    * Orbital Energies and Occupations

         #    Occupation            Energy/Eh            Energy/eV
      -------------------------------------------------------------
         1        2.0000           -0.9020400             -24.5458
       ...           ...                  ...                  ...
        55        2.0000           -0.5004544             -13.6181
        56        2.0000           -0.4911436             -13.3647
        57        2.0000           -0.4888589             -13.3025
        58        2.0000           -0.4770663             -12.9816
        59        2.0000           -0.4689705             -12.7613
        60        2.0000           -0.4595367             -12.5046
        61        2.0000           -0.4573082             -12.4440
        62        2.0000           -0.4532290             -12.3330
        63        2.0000           -0.4455061             -12.1228
        64        2.0000           -0.4355123             -11.8509
        65        2.0000           -0.4327369             -11.7754
        66        2.0000           -0.4063303             -11.0568
        67        2.0000           -0.4051168             -11.0238 (HOMO)
        68                         -0.3434997              -9.3471 (LUMO)
        69                         -0.3019157              -8.2155
        70                         -0.2591025              -7.0505
        71                         -0.2526976              -6.8763
        72                         -0.2353389              -6.4039
        73                         -0.1903187              -5.1788
        74                         -0.1717889              -4.6746
        75                         -0.1610770              -4.3831
        76                         -0.1439275              -3.9165
        77                         -0.1413472              -3.8463
        78                         -0.1410037              -3.8369
       ...                                ...                  ...
       134                          0.7835576              21.3217
      -------------------------------------------------------------
                  HL-Gap            0.0616170 Eh            1.6767 eV

Wiberg/Mayer (AO) data.
largest (>0.10) Wiberg bond orders for each atom

     #   Z sym  total        # sym  WBO       # sym  WBO       # sym  WBO
 ---------------------------------------------------------------------------
     1   6 C    3.987 --     2 C    1.030    26 H    0.983    28 H    0.964
                            27 H    0.964
     2   6 C    3.873 --     3 N    1.612    25 O    1.081     1 C    1.030
     3   7 N    2.980 --     2 C    1.612     4 N    1.194
     4   7 N    3.011 --     5 C    1.617     3 N    1.194
     5   6 C    3.871 --     4 N    1.617    25 O    1.062     6 C    0.983
     6   6 C    3.922 --     7 O    1.571     8 N    1.287     5 C    0.983
     7   8 O    1.891 --     6 C    1.571     8 N    0.185
     8   7 N    3.374 --     6 C    1.287     9 C    0.929    29 H    0.874
                             7 O    0.185
     9   6 C    3.935 --    10 C    0.983    11 C    0.980    12 C    0.976
                             8 N    0.929
    10   6 C    3.992 --    31 H    0.986    30 H    0.984     9 C    0.983
                            32 H    0.982
    11   6 C    3.992 --    33 H    0.986    35 H    0.985    34 H    0.982
                             9 C    0.980
    12   6 C    3.951 --    13 N    1.476    24 N    1.345     9 C    0.976
    13   7 N    2.989 --    12 C    1.476    14 C    1.162
    14   6 C    3.956 --    20 C    1.387    15 C    1.164    13 N    1.162
    15   6 C    3.790 --    16 O    1.802    14 C    1.164    17 O    0.653
    16   8 O    2.089 --    15 C    1.802
    17   8 O    2.456 --    18 C    0.842    19 C    0.835    15 C    0.653
    18   6 C    3.813 --    37 H    0.979    36 H    0.978    38 H    0.978
                            17 O    0.842
    19   6 C    3.810 --    39 H    0.982    41 H    0.977    40 H    0.975
                            17 O    0.835
    20   6 C    3.894 --    14 C    1.387    21 O    1.131    22 C    1.037
    21   8 O    2.110 --    20 C    1.131    42 H    0.782
    22   6 C    3.931 --    23 O    1.499    24 N    1.263    20 C    1.037
    23   8 O    1.847 --    22 C    1.499    24 N    0.134
    24   7 N    3.023 --    12 C    1.345    22 C    1.263    23 O    0.134
    25   8 O    2.326 --     2 C    1.081     5 C    1.062
    26   1 H    0.999 --     1 C    0.983
    27   1 H    0.997 --     1 C    0.964
    28   1 H    0.997 --     1 C    0.964
    29   1 H    0.975 --     8 N    0.874
    30   1 H    1.014 --    10 C    0.984
    31   1 H    1.004 --    10 C    0.986
    32   1 H    1.011 --    10 C    0.982
    33   1 H    1.004 --    11 C    0.986
    34   1 H    1.010 --    11 C    0.982
    35   1 H    1.010 --    11 C    0.985
    36   1 H    0.998 --    18 C    0.978
    37   1 H    1.001 --    18 C    0.979
    38   1 H    0.997 --    18 C    0.978
    39   1 H    0.995 --    19 C    0.982
    40   1 H    1.006 --    19 C    0.975
    41   1 H    0.998 --    19 C    0.977
    42   1 H    0.849 --    21 O    0.782
 ---------------------------------------------------------------------------

           -------------------------------------------------
          | TOTAL ENERGY              -82.933212815925 Eh   |
          | GRADIENT NORM               0.000429091282 Eh/α |
          | HOMO-LUMO GAP               1.676684869378 eV   |
           -------------------------------------------------

 * finished run on 2023/06/20 at 18:28:13.340
