   * xtb version 6.5.1 (579679a) compiled by 'ehlert@majestix' on 2022-07-11
          program call               : /lustre/hpc/kemi/ree/PhD/git/ReactivityQM/dep/xtb-6.5.1/bin/xtb --gfn 1 /lustre/hpc/kemi/ree/PhD/git/ReactivityQM/calculations/RaltegravirCLI/reac01prodN04/conf08/RaltegravirCLI_reac01prodN04_conf08_gfn1.xyz --opt --vfukui --chrg 1 --uhf 0 --alpb DMSO

   ID    Z sym.   atoms
    1    6 C      1-3, 6, 7
    2    7 N      4, 5
    3    8 O      8, 10
    4   17 Cl     9
    5    1 H      11-16

      * Solvation model:               ALPB
        Solvent                        DMSO
        Solvent mass                       7.8130E+01 g/mol
          :  Hamiltonian                  GFN1-xTB          :
 * total energy  :   -33.3591028 Eh     change       -0.5115908E-12 Eh
 * total energy  :   -33.3656943 Eh     change       -0.6591500E-02 Eh
 * total energy  :   -33.3675659 Eh     change       -0.1871627E-02 Eh
 * total energy  :   -33.3677458 Eh     change       -0.1798813E-03 Eh
 * total energy  :   -33.3678193 Eh     change       -0.7349630E-04 Eh
 * total energy  :   -33.3678215 Eh     change       -0.2203336E-05 Eh
 * total energy  :   -33.3678245 Eh     change       -0.3016755E-05 Eh
   *** GEOMETRY OPTIMIZATION CONVERGED AFTER 7 ITERATIONS ***

 final structure:
================
16
 xtb: 6.5.1 (579679a)
C           -1.86235646470208        0.51365604461562       -0.14662393539849
C           -0.57379330487289       -0.30070167157446        0.06440468483446
C           -0.70666616842308       -1.73406794640501       -0.47899695599504
N           -0.19111539560994       -0.30767074128723        1.42832599390185
N            0.93082854388496        0.24824265498742        1.57333150346634
C            1.35008782246437        0.65241577631343        0.32790716108345
C            2.65678048980910        1.37352953948757        0.01107551728680
O            2.88270062602702        1.77000731304198       -1.08598564586798
Cl           3.67855395988603        1.51406377982906        1.34885975014743
O            0.51351044996115        0.35464333064062       -0.57337571258541
H           -1.71097496593730        1.52285195445936        0.23050542496955
H           -2.67087989052313        0.02782822621311        0.39405216076744
H           -2.08308746893545        0.54225775324502       -1.21101547854421
H            0.23309113974784       -2.26067221059457       -0.32691015151021
H           -1.50851211765078       -2.23463340302904        0.05818342926244
H           -0.93816825512584       -1.68175039994292       -1.54023274581859

          :  Hamiltonian                  GFN1-xTB          :
         :: total energy             -33.367824512650 Eh    ::
         :: gradient norm              0.000759937026 Eh/a0 ::
         :: HOMO-LUMO gap              1.512587492646 eV    ::
         :: SCC energy               -33.642569832636 Eh    ::
         :: -> Gsolv                  -0.084557580933 Eh    ::
         :: repulsion energy           0.282292789172 Eh    ::

    * Orbital Energies and Occupations

         #    Occupation            Energy/Eh            Energy/eV
      -------------------------------------------------------------
         1        2.0000           -1.0040157             -27.3207
       ...           ...                  ...                  ...
        15        2.0000           -0.6379710             -17.3601
        16        2.0000           -0.6238536             -16.9759
        17        2.0000           -0.6146644             -16.7259
        18        2.0000           -0.5899098             -16.0523
        19        2.0000           -0.5886526             -16.0181
        20        2.0000           -0.5800776             -15.7847
        21        2.0000           -0.5763098             -15.6822
        22        2.0000           -0.5694400             -15.4953
        23        2.0000           -0.5567174             -15.1491
        24        2.0000           -0.5429353             -14.7740
        25        2.0000           -0.5342337             -14.5372
        26        2.0000           -0.5289949             -14.3947
        27        2.0000           -0.5199336             -14.1481 (HOMO)
        28                         -0.4643470             -12.6355 (LUMO)
        29                         -0.3899121             -10.6100
        30                         -0.3084828              -8.3942
        31                         -0.2556355              -6.9562
        32                         -0.1705662              -4.6413
        33                         -0.1647742              -4.4837
        34                         -0.1351025              -3.6763
        35                         -0.1291523              -3.5144
        36                         -0.1286478              -3.5007
        37                         -0.1206465              -3.2830
        38                         -0.1125023              -3.0613
       ...                                ...                  ...
        57                          0.7121560              19.3788
      -------------------------------------------------------------
                  HL-Gap            0.0555866 Eh            1.5126 eV

Wiberg/Mayer (AO) data.
largest (>0.10) Wiberg bond orders for each atom

     #   Z sym  total        # sym  WBO       # sym  WBO       # sym  WBO
 ---------------------------------------------------------------------------
     1   6 C    3.938 --    11 H    0.977    12 H    0.975    13 H    0.974
                             2 C    0.878
     2   6 C    3.814 --     4 N    1.078     3 C    0.879     1 C    0.878
                            10 O    0.872
     3   6 C    3.938 --    14 H    0.977    15 H    0.975    16 H    0.974
                             2 C    0.879
     4   7 N    2.996 --     5 N    1.669     2 C    1.078
     5   7 N    3.021 --     4 N    1.669     6 C    1.205
     6   6 C    3.801 --    10 O    1.384     5 N    1.205     7 C    0.927
     7   6 C    3.905 --     8 O    1.806     9 Cl   1.131     6 C    0.927
     8   8 O    2.091 --     7 C    1.806     9 Cl   0.200
     9  17 Cl   1.405 --     7 C    1.131     8 O    0.200
    10   8 O    2.444 --     6 C    1.384     2 C    0.872
    11   1 H    0.988 --     1 C    0.977
    12   1 H    0.989 --     1 C    0.975
    13   1 H    0.989 --     1 C    0.974
    14   1 H    0.988 --     3 C    0.977
    15   1 H    0.989 --     3 C    0.975
    16   1 H    0.989 --     3 C    0.974
 ---------------------------------------------------------------------------

           -------------------------------------------------
          | TOTAL ENERGY              -33.367824512650 Eh   |
          | GRADIENT NORM               0.000759937026 Eh/α |
          | HOMO-LUMO GAP               1.512587492646 eV   |
           -------------------------------------------------

 * finished run on 2023/06/20 at 14:54:55.795
