                         Program Version 5.0.1 -  RELEASE  -
|  1> # ORCA input file
|  2> ! SP r2SCAN-3c CPCM
|  3>
|  4> %maxcore 1875.0
|  5> %pal nprocs 4 end
|  6> %cpcm smd true SMDsolvent "DMSO" end
|  7>
|  8> *xyz -2 1
|  9> C      -6.873823    1.466152   -0.158219
| 10> O      -5.842877    0.534774   -0.442252
| 11> C      -4.626608    0.813909    0.103725
| 12> O      -4.476400    1.821666    0.789006
| 13> C      -3.587405   -0.155210   -0.193237
| 14> N      -2.370891    0.168779    0.388051
| 15> C      -1.349371   -0.587243    0.221184
| 16> C      -0.017050   -0.289082    0.877670
| 17> C       0.116779    1.222448    1.124789
| 18> C       0.045091   -1.056577    2.208103
| 19> N       1.044405   -0.799168   -0.014850
| 20> C       2.388255   -0.506331    0.472053
| 21> O       3.010018   -1.540012    1.194121
| 22> C       3.558369   -2.593548    0.411911
| 23> C       3.092925    0.460325   -0.201493
| 24> N       2.542699    1.404347   -1.001592
| 25> N       3.576962    2.251465   -1.354822
| 26> C       4.648118    1.825329   -0.788802
| 27> C       6.010851    2.418252   -0.864045
| 28> O       4.448257    0.692784   -0.032575
| 29> N      -1.418760   -1.745479   -0.524897
| 30> C      -2.546735   -2.186433   -1.152943
| 31> O      -2.522935   -3.232827   -1.804914
| 32> C      -3.773363   -1.317621   -0.985370
| 33> O      -4.834720   -1.672962   -1.539298
| 34> H      -6.614462    2.462436   -0.531547
| 35> H      -7.774313    1.110907   -0.658242
| 36> H      -7.053502    1.532452    0.919944
| 37> H       0.224437    1.748687    0.174794
| 38> H       0.995877    1.424117    1.736387
| 39> H      -0.769547    1.593299    1.640303
| 40> H       0.998387   -0.871412    2.702591
| 41> H      -0.763981   -0.738888    2.865554
| 42> H      -0.047856   -2.126642    2.022158
| 43> H       0.942829   -0.317163   -0.913054
| 44> H       3.975943   -3.331766    1.100860
| 45> H       2.787279   -3.075969   -0.204274
| 46> H       4.358020   -2.227307   -0.246285
| 47> H       6.369026    2.692043    0.129826
| 48> H       5.981587    3.308961   -1.488751
| 49> H       6.720511    1.708005   -1.291518
| 50> H      -0.572023   -2.289497   -0.632163
| 51> **                         ****END OF INPUT****

CARTESIAN COORDINATES (ANGSTROEM)
---------------------------------
  C     -6.873823    1.466152   -0.158219
  O     -5.842877    0.534774   -0.442252
  C     -4.626608    0.813909    0.103725
  O     -4.476400    1.821666    0.789006
  C     -3.587405   -0.155210   -0.193237
  N     -2.370891    0.168779    0.388051
  C     -1.349371   -0.587243    0.221184
  C     -0.017050   -0.289082    0.877670
  C      0.116779    1.222448    1.124789
  C      0.045091   -1.056577    2.208103
  N      1.044405   -0.799168   -0.014850
  C      2.388255   -0.506331    0.472053
  O      3.010018   -1.540012    1.194121
  C      3.558369   -2.593548    0.411911
  C      3.092925    0.460325   -0.201493
  N      2.542699    1.404347   -1.001592
  N      3.576962    2.251465   -1.354822
  C      4.648118    1.825329   -0.788802
  C      6.010851    2.418252   -0.864045
  O      4.448257    0.692784   -0.032575
  N     -1.418760   -1.745479   -0.524897
  C     -2.546735   -2.186433   -1.152943
  O     -2.522935   -3.232827   -1.804914
  C     -3.773363   -1.317621   -0.985370
  O     -4.834720   -1.672962   -1.539298
  H     -6.614462    2.462436   -0.531547
  H     -7.774313    1.110907   -0.658242
  H     -7.053502    1.532452    0.919944
  H      0.224437    1.748687    0.174794
  H      0.995877    1.424117    1.736387
  H     -0.769547    1.593299    1.640303
  H      0.998387   -0.871412    2.702591
  H     -0.763981   -0.738888    2.865554
  H     -0.047856   -2.126642    2.022158
  H      0.942829   -0.317163   -0.913054
  H      3.975943   -3.331766    1.100860
  H      2.787279   -3.075969   -0.204274
  H      4.358020   -2.227307   -0.246285
  H      6.369026    2.692043    0.129826
  H      5.981587    3.308961   -1.488751
  H      6.720511    1.708005   -1.291518
  H     -0.572023   -2.289497   -0.632163

 Total Charge           Charge          ....   -2
 Multiplicity           Mult            ....    1
 Number of Electrons    NEL             ....  186
 Basis Dimension        Dim             ....  615

ORBITAL ENERGIES
----------------

  NO   OCC          E(Eh)            E(eV)
   0   2.0000     -18.987133      -516.6661
   1   2.0000     -18.963182      -516.0144
   2   2.0000     -18.933026      -515.1938
   3   2.0000     -18.897490      -514.2268
   4   2.0000     -18.896603      -514.2027
   5   2.0000     -18.869399      -513.4624
   6   2.0000     -14.186031      -386.0215
   7   2.0000     -14.147702      -384.9785
   8   2.0000     -14.132167      -384.5558
   9   2.0000     -14.126563      -384.4033
  10   2.0000     -14.113133      -384.0379
  11   2.0000     -10.118578      -275.3405
  12   2.0000     -10.104904      -274.9684
  13   2.0000     -10.081494      -274.3314
  14   2.0000     -10.075138      -274.1584
  15   2.0000     -10.069466      -274.0041
  16   2.0000     -10.064586      -273.8713
  17   2.0000     -10.058168      -273.6967
  18   2.0000     -10.056296      -273.6457
  19   2.0000     -10.047133      -273.3964
  20   2.0000     -10.033713      -273.0312
  21   2.0000     -10.027987      -272.8754
  22   2.0000     -10.023521      -272.7539
  23   2.0000     -10.002640      -272.1857
  24   2.0000      -9.993945      -271.9491
  25   2.0000      -1.062267       -28.9058
  26   2.0000      -1.033518       -28.1235
  27   2.0000      -0.987104       -26.8605
  28   2.0000      -0.970427       -26.4067
  29   2.0000      -0.940215       -25.5846
  30   2.0000      -0.927883       -25.2490
  31   2.0000      -0.922128       -25.0924
  32   2.0000      -0.897389       -24.4192
  33   2.0000      -0.850055       -23.1312
  34   2.0000      -0.835661       -22.7395
  35   2.0000      -0.767643       -20.8886
  36   2.0000      -0.728218       -19.8158
  37   2.0000      -0.694733       -18.9046
  38   2.0000      -0.671998       -18.2860
  39   2.0000      -0.660770       -17.9805
  40   2.0000      -0.646819       -17.6009
  41   2.0000      -0.636288       -17.3143
  42   2.0000      -0.607824       -16.5397
  43   2.0000      -0.598881       -16.2964
  44   2.0000      -0.585923       -15.9438
  45   2.0000      -0.542652       -14.7663
  46   2.0000      -0.521196       -14.1825
  47   2.0000      -0.513591       -13.9755
  48   2.0000      -0.498211       -13.5570
  49   2.0000      -0.483666       -13.1612
  50   2.0000      -0.465402       -12.6642
  51   2.0000      -0.461758       -12.5651
  52   2.0000      -0.447596       -12.1797
  53   2.0000      -0.425904       -11.5894
  54   2.0000      -0.424978       -11.5642
  55   2.0000      -0.420835       -11.4515
  56   2.0000      -0.412572       -11.2267
  57   2.0000      -0.403652       -10.9839
  58   2.0000      -0.401331       -10.9208
  59   2.0000      -0.395516       -10.7625
  60   2.0000      -0.388306       -10.5663
  61   2.0000      -0.385070       -10.4783
  62   2.0000      -0.372927       -10.1479
  63   2.0000      -0.371080       -10.0976
  64   2.0000      -0.365534        -9.9467
  65   2.0000      -0.361135        -9.8270
  66   2.0000      -0.359222        -9.7749
  67   2.0000      -0.351784        -9.5725
  68   2.0000      -0.348537        -9.4842
  69   2.0000      -0.343777        -9.3546
  70   2.0000      -0.342389        -9.3169
  71   2.0000      -0.337920        -9.1953
  72   2.0000      -0.321716        -8.7543
  73   2.0000      -0.309610        -8.4249
  74   2.0000      -0.306679        -8.3452
  75   2.0000      -0.297970        -8.1082
  76   2.0000      -0.295241        -8.0339
  77   2.0000      -0.293691        -7.9917
  78   2.0000      -0.283336        -7.7100
  79   2.0000      -0.278118        -7.5680
  80   2.0000      -0.259335        -7.0569
  81   2.0000      -0.244018        -6.6401
  82   2.0000      -0.234021        -6.3680
  83   2.0000      -0.233239        -6.3468
  84   2.0000      -0.224863        -6.1188
  85   2.0000      -0.218312        -5.9406
  86   2.0000      -0.214689        -5.8420
  87   2.0000      -0.209408        -5.6983
  88   2.0000      -0.201602        -5.4859
  89   2.0000      -0.198856        -5.4112
  90   2.0000      -0.163785        -4.4568
  91   2.0000      -0.148911        -4.0521
  92   2.0000      -0.097326        -2.6484
  93   0.0000      -0.044458        -1.2098
  94   0.0000       0.002449         0.0666
  95   0.0000       0.021228         0.5777
  96   0.0000       0.051416         1.3991
  97   0.0000       0.053727         1.4620

MULLIKEN ATOMIC CHARGES
-----------------------
   0 C :   -0.332910
   1 O :   -0.150111
   2 C :    0.132540
   3 O :   -0.439026
   4 C :   -0.044587
   5 N :   -0.185094
   6 C :    0.281746
   7 C :    0.105479
   8 C :   -0.634494
   9 C :   -0.644045
  10 N :   -0.338261
  11 C :   -0.403228
  12 O :   -0.202909
  13 C :   -0.355732
  14 C :    0.126807
  15 N :   -0.278144
  16 N :   -0.354711
  17 C :    0.293778
  18 C :   -0.664204
  19 O :   -0.106569
  20 N :   -0.007760
  21 C :    0.003060
  22 O :   -0.401752
  23 C :   -0.105552
  24 O :   -0.377154
  25 H :    0.161052
  26 H :    0.161513
  27 H :    0.161020
  28 H :    0.183105
  29 H :    0.172274
  30 H :    0.168792
  31 H :    0.179150
  32 H :    0.177398
  33 H :    0.178858
  34 H :    0.280270
  35 H :    0.151525
  36 H :    0.146214
  37 H :    0.147082
  38 H :    0.173553
  39 H :    0.186512
  40 H :    0.173376
  41 H :    0.281138
Sum of atomic charges:   -2.0000000

LOEWDIN ATOMIC CHARGES
----------------------
   0 C :   -0.058326
   1 O :   -0.608037
   2 C :    0.385777
   3 O :   -0.488371
   4 C :    0.110806
   5 N :   -0.613754
   6 C :    0.312352
   7 C :    0.079641
   8 C :   -0.379571
   9 C :   -0.362089
  10 N :   -0.719728
  11 C :    0.201374
  12 O :   -0.711009
  13 C :   -0.084114
  14 C :    0.349492
  15 N :   -0.537435
  16 N :   -0.484687
  17 C :    0.297323
  18 C :   -0.342860
  19 O :   -0.457305
  20 N :   -0.495208
  21 C :    0.351768
  22 O :   -0.491596
  23 C :    0.223444
  24 O :   -0.579173
  25 H :    0.172124
  26 H :    0.175799
  27 H :    0.172112
  28 H :    0.171765
  29 H :    0.162074
  30 H :    0.166214
  31 H :    0.172106
  32 H :    0.161881
  33 H :    0.165465
  34 H :    0.275823
  35 H :    0.168564
  36 H :    0.157491
  37 H :    0.158159
  38 H :    0.171495
  39 H :    0.178853
  40 H :    0.171308
  41 H :    0.300052

  Mayer bond orders larger than 0.100000
B(  0-C ,  1-O ) :   0.8514 B(  0-C , 25-H ) :   0.9628 B(  0-C , 26-H ) :   0.9701
B(  0-C , 27-H ) :   0.9628 B(  1-O ,  2-C ) :   1.1172 B(  2-C ,  3-O ) :   1.8934
B(  2-C ,  4-C ) :   1.1537 B(  4-C ,  5-N ) :   0.8861 B(  4-C , 23-C ) :   0.9784
B(  4-C , 24-O ) :  -0.1005 B(  5-N ,  6-C ) :   1.7997 B(  6-C ,  7-C ) :   0.8503
B(  6-C , 10-N ) :  -0.1990 B(  6-C , 20-N ) :   1.0526 B(  7-C ,  8-C ) :   0.8814
B(  7-C ,  9-C ) :   0.9108 B(  7-C , 10-N ) :   1.0352 B(  8-C , 28-H ) :   0.9764
B(  8-C , 29-H ) :   0.9737 B(  8-C , 30-H ) :   0.9627 B(  9-C , 31-H ) :   0.9561
B(  9-C , 32-H ) :   0.9783 B(  9-C , 33-H ) :   0.9797 B( 10-N , 11-C ) :   0.8400
B( 10-N , 34-H ) :   0.8703 B( 11-C , 12-O ) :   1.1360 B( 11-C , 14-C ) :   1.2921
B( 12-O , 13-C ) :   0.8601 B( 13-C , 35-H ) :   0.9708 B( 13-C , 36-H ) :   0.9728
B( 13-C , 37-H ) :   0.9690 B( 14-C , 15-N ) :   1.4399 B( 14-C , 19-O ) :   1.0754
B( 15-N , 16-N ) :   1.2889 B( 16-N , 17-C ) :   1.7995 B( 17-C , 18-C ) :   0.8012
B( 17-C , 19-O ) :   0.9835 B( 18-C , 38-H ) :   0.9586 B( 18-C , 39-H ) :   1.0039
B( 18-C , 40-H ) :   0.9540 B( 20-N , 21-C ) :   1.0420 B( 20-N , 41-H ) :   0.8660
B( 21-C , 22-O ) :   2.0814 B( 21-C , 23-C ) :   0.8871 B( 23-C , 24-O ) :   1.9603

Dispersion correction           -0.019072776
FINAL SINGLE POINT ENERGY     -1268.824364103485

DIPOLE MOMENT
-------------
                                X             Y             Z
Electronic contribution:    -12.57081      -4.30677      -7.06134
Nuclear contribution   :     15.48775       4.21012       8.85399
                        -----------------------------------------
Total Dipole Moment    :      2.91694      -0.09666       1.79265
                        -----------------------------------------
Magnitude (a.u.)       :      3.42513
Magnitude (Debye)      :      8.70598

Rotational constants in cm-1:     0.014257     0.003301     0.002995
Rotational constants in MHz :   427.411082    98.954812    89.775472

                             ****ORCA TERMINATED NORMALLY****
TOTAL RUN TIME: 0 days 0 hours 1 minutes 31 seconds 870 msec
