   * xtb version 6.5.1 (579679a) compiled by 'ehlert@majestix' on 2022-07-11
          program call               : /lustre/hpc/kemi/ree/PhD/git/ReactivityQM/dep/xtb-6.5.1/bin/xtb --gfn 1 /lustre/hpc/kemi/ree/PhD/git/ReactivityQM/calculations/R02oxygendeprot/reac01prodE07/conf07/R02oxygendeprot_reac01prodE07_conf07_gfn1.xyz --opt --vfukui --chrg -2 --uhf 0 --alpb DMSO

   ID    Z sym.   atoms
    1    6 C      1, 3, 5, 7-10, 12, 14, 15, 18, 19, 22, 24
    2    8 O      2, 4, 13, 20, 23, 25
    3    7 N      6, 11, 16, 17, 21
    4    1 H      26-42

      * Solvation model:               ALPB
        Solvent                        DMSO
        Solvent mass                       7.8130E+01 g/mol
          :  Hamiltonian                  GFN1-xTB          :
 * total energy  :   -83.5830640 Eh     change       -0.9094947E-12 Eh
 * total energy  :   -83.5983781 Eh     change       -0.1531412E-01 Eh
 * total energy  :   -83.6054983 Eh     change       -0.7120250E-02 Eh
 * total energy  :   -83.6067779 Eh     change       -0.1279518E-02 Eh
 * total energy  :   -83.6074519 Eh     change       -0.6740244E-03 Eh
 * total energy  :   -83.6076710 Eh     change       -0.2190980E-03 Eh
 * total energy  :   -83.6078699 Eh     change       -0.1988718E-03 Eh
 * total energy  :   -83.6080434 Eh     change       -0.1735941E-03 Eh
 * total energy  :   -83.6082446 Eh     change       -0.2011687E-03 Eh
 * total energy  :   -83.6084855 Eh     change       -0.2408760E-03 Eh
 * total energy  :   -83.6195549 Eh     change       -0.2217574E-04 Eh
 * total energy  :   -83.6195793 Eh     change       -0.2438618E-04 Eh
 * total energy  :   -83.6195959 Eh     change       -0.1655868E-04 Eh
 * total energy  :   -83.6195960 Eh     change       -0.1750232E-06 Eh
 * total energy  :   -83.6196062 Eh     change       -0.1015958E-04 Eh
 * total energy  :   -83.6196115 Eh     change       -0.5318816E-05 Eh
 * total energy  :   -83.6196179 Eh     change       -0.6363646E-05 Eh
 * total energy  :   -83.6196231 Eh     change       -0.5193304E-05 Eh
 * total energy  :   -83.6196260 Eh     change       -0.2897162E-05 Eh
   *** GEOMETRY OPTIMIZATION CONVERGED AFTER 72 ITERATIONS ***

 final structure:
================
42
 xtb: 6.5.1 (579679a)
C           -6.87382344377499        1.46615224906881       -0.15821859892809
O           -5.84287738422995        0.53477379018304       -0.44225229718633
C           -4.62660792351987        0.81390878368424        0.10372474646785
O           -4.47640033780403        1.82166622023936        0.78900593803320
C           -3.58740498664228       -0.15520964358132       -0.19323663763123
N           -2.37089143942878        0.16877932849295        0.38805088663556
C           -1.34937086633109       -0.58724290722748        0.22118411267649
C           -0.01704984944978       -0.28908203006824        0.87767020552383
C            0.11677898268193        1.22244784877714        1.12478925492507
C            0.04509134995167       -1.05657734649658        2.20810340186812
N            1.04440459582282       -0.79916821475540       -0.01484957780273
C            2.38825541985432       -0.50633117301003        0.47205328794410
O            3.01001808486269       -1.54001170446114        1.19412055805074
C            3.55836915085089       -2.59354753790407        0.41191101290376
C            3.09292541240287        0.46032537459713       -0.20149344648409
N            2.54269884088389        1.40434746453057       -1.00159195245388
N            3.57696160872923        2.25146487518544       -1.35482174008539
C            4.64811784319352        1.82532885168050       -0.78880226273444
C            6.01085083899555        2.41825225484053       -0.86404543657814
O            4.44825651943747        0.69278384574460       -0.03257547717383
N           -1.41876040682589       -1.74547895312245       -0.52489709567665
C           -2.54673542034884       -2.18643293501620       -1.15294304888740
O           -2.52293525411405       -3.23282697184047       -1.80491376341663
C           -3.77336298239340       -1.31762104275013       -0.98537035887057
O           -4.83472044014186       -1.67296191048438       -1.53929778168444
H           -6.61446205470129        2.46243634756850       -0.53154657281009
H           -7.77431259778399        1.11090694981016       -0.65824213807739
H           -7.05350209682828        1.53245183759780        0.91994403790420
H            0.22443667228204        1.74868687925335        0.17479401488291
H            0.99587708055951        1.42411665891738        1.73638705569742
H           -0.76954694283875        1.59329938388600        1.64030326573053
H            0.99838713914729       -0.87141187568632        2.70259076502214
H           -0.76398072505212       -0.73888847568704        2.86555372398007
H           -0.04785555232692       -2.12664152053930        2.02215752702262
H            0.94282881790840       -0.31716319893144       -0.91305431899062
H            3.97594256417693       -3.33176580981076        1.10086029605049
H            2.78727915056106       -3.07596886863024       -0.20427431671160
H            4.35801982130232       -2.22730669222647       -0.24628537240778
H            6.36902595415916        2.69204307003067        0.12982572948979
H            5.98158679727023        3.30896089939834       -1.48875124829735
H            6.72051136583218        1.70800533079339       -1.29151823376285
H           -0.57202330629938       -2.28949743203753       -0.63216314418174

          :  Hamiltonian                  GFN1-xTB          :
         :: total energy             -83.619625959937 Eh    ::
         :: gradient norm              0.000426746986 Eh/a0 ::
         :: HOMO-LUMO gap              0.577978088181 eV    ::
         :: SCC energy               -84.351063303241 Eh    ::
         :: -> Gsolv                  -0.258458785772 Eh    ::
         :: repulsion energy           0.757203660593 Eh    ::

    * Orbital Energies and Occupations

         #    Occupation            Energy/Eh            Energy/eV
      -------------------------------------------------------------
         1        2.0000           -0.7912271             -21.5304
       ...           ...                  ...                  ...
        56        2.0000           -0.4427557             -12.0480
        57        2.0000           -0.4280380             -11.6475
        58        2.0000           -0.4246254             -11.5546
        59        2.0000           -0.4153107             -11.3012
        60        2.0000           -0.4110652             -11.1857
        61        2.0000           -0.4005997             -10.9009
        62        2.0000           -0.3921749             -10.6716
        63        2.0000           -0.3864229             -10.5151
        64        2.0000           -0.3719100             -10.1202
        65        2.0000           -0.3664612              -9.9719
        66        2.0000           -0.3646601              -9.9229
        67        2.0000           -0.3530088              -9.6059
        68        2.0000           -0.2810275              -7.6471 (HOMO)
        69        0.0000           -0.2597872              -7.0692 (LUMO)
        70                         -0.2211732              -6.0184
        71                         -0.1867951              -5.0830
        72                         -0.1815204              -4.9394
        73                         -0.1386952              -3.7741
        74                         -0.1189963              -3.2381
        75                         -0.1132101              -3.0806
        76                         -0.1028774              -2.7994
        77                         -0.0992220              -2.7000
        78                         -0.0952806              -2.5927
        79                         -0.0885602              -2.4098
       ...                                ...                  ...
       134                          0.7571909              20.6042
      -------------------------------------------------------------
                  HL-Gap            0.0212403 Eh            0.5780 eV

Wiberg/Mayer (AO) data.
largest (>0.10) Wiberg bond orders for each atom

     #   Z sym  total        # sym  WBO       # sym  WBO       # sym  WBO
 ---------------------------------------------------------------------------
     1   6 C    3.903 --    27 H    0.987    28 H    0.980    26 H    0.980
                             2 O    0.930
     2   8 O    2.153 --     3 C    1.036     1 C    0.930     4 O    0.106
     3   6 C    3.848 --     4 O    1.566     5 C    1.127     2 O    1.036
     4   8 O    1.843 --     3 C    1.566     2 O    0.106
     5   6 C    3.919 --    24 C    1.279     6 N    1.144     3 C    1.127
                            25 O    0.130
     6   7 N    3.022 --     7 C    1.633     5 C    1.144
     7   6 C    3.926 --     6 N    1.633    21 N    1.095     8 C    0.980
     8   6 C    3.972 --     9 C    0.988    10 C    0.982     7 C    0.980
                            11 N    0.963
     9   6 C    3.997 --     8 C    0.988    30 H    0.986    31 H    0.985
                            29 H    0.983
    10   6 C    3.994 --    33 H    0.989    34 H    0.986    32 H    0.982
                             8 C    0.982
    11   7 N    3.033 --     8 C    0.963    12 C    0.947    35 H    0.944
    12   6 C    3.676 --    15 C    1.463    11 N    0.947    13 O    0.928
                            16 N    0.149
    13   8 O    2.000 --    14 C    0.946    12 C    0.928
    14   6 C    3.938 --    36 H    0.986    37 H    0.982    38 H    0.982
                            13 O    0.946
    15   6 C    3.866 --    12 C    1.463    16 N    1.293    20 O    0.966
    16   7 N    2.836 --    15 C    1.293    17 N    1.145    12 C    0.149
                            18 C    0.114
    17   7 N    2.987 --    18 C    1.679    16 N    1.145
    18   6 C    3.886 --    17 N    1.679    19 C    1.018    20 O    0.996
                            16 N    0.114
    19   6 C    3.996 --    18 C    1.018    40 H    0.987    39 H    0.976
                            41 H    0.975
    20   8 O    2.182 --    18 C    0.996    15 C    0.966
    21   7 N    3.441 --    22 C    1.181     7 C    1.095    42 H    0.892
                            23 O    0.136
    22   6 C    3.884 --    23 O    1.557    21 N    1.181    24 C    0.972
    23   8 O    1.838 --    22 C    1.557    21 N    0.136
    24   6 C    3.944 --    25 O    1.503     5 C    1.279    22 C    0.972
    25   8 O    1.808 --    24 C    1.503     5 C    0.130
    26   1 H    1.015 --     1 C    0.980
    27   1 H    1.016 --     1 C    0.987
    28   1 H    1.015 --     1 C    0.980
    29   1 H    1.027 --     9 C    0.983
    30   1 H    1.017 --     9 C    0.986
    31   1 H    1.020 --     9 C    0.985
    32   1 H    1.016 --    10 C    0.982
    33   1 H    1.008 --    10 C    0.989
    34   1 H    1.011 --    10 C    0.986
    35   1 H    0.994 --    11 N    0.944
    36   1 H    1.022 --    14 C    0.986
    37   1 H    1.021 --    14 C    0.982
    38   1 H    1.021 --    14 C    0.982
    39   1 H    1.007 --    19 C    0.976
    40   1 H    1.008 --    19 C    0.987
    41   1 H    1.007 --    19 C    0.975
    42   1 H    0.970 --    21 N    0.892
 ---------------------------------------------------------------------------

           -------------------------------------------------
          | TOTAL ENERGY              -83.619625959937 Eh   |
          | GRADIENT NORM               0.000426746986 Eh/α |
          | HOMO-LUMO GAP               0.577978088181 eV   |
           -------------------------------------------------

 * finished run on 2023/06/21 at 17:08:52.936
