                         Program Version 5.0.1 -  RELEASE  -
|  1> # ORCA input file
|  2> ! SP r2SCAN-3c CPCM
|  3>
|  4> %maxcore 1875.0
|  5> %pal nprocs 4 end
|  6> %cpcm smd true SMDsolvent "DMSO" end
|  7>
|  8> *xyz -2 1
|  9> C      -4.280524   -2.062344    0.025969
| 10> O      -4.421687   -0.817557   -0.646706
| 11> C      -4.073729    0.319892    0.100019
| 12> O      -5.160968    0.956389    0.702180
| 13> C      -5.839472    1.913364   -0.102442
| 14> C      -2.751217    0.696688    0.287738
| 15> N      -1.773375   -0.160830   -0.213772
| 16> C      -0.513940    0.177448   -0.025655
| 17> C       0.503381   -0.825401   -0.590464
| 18> C       0.334950   -0.903891   -2.116299
| 19> C       0.257481   -2.203070    0.043527
| 20> N       1.835280   -0.342204   -0.252910
| 21> C       2.995377   -0.971167   -0.542456
| 22> O       3.082520   -2.040140   -1.167234
| 23> C       4.152038   -0.241066   -0.026772
| 24> N       4.128453    0.896545    0.639154
| 25> N       5.427432    1.203108    0.938141
| 26> C       6.160293    0.255804    0.449611
| 27> C       7.636326    0.138368    0.520818
| 28> O       5.434639   -0.693828   -0.175793
| 29> N      -0.018465    1.250353    0.572134
| 30> C      -0.924763    2.173060    1.073854
| 31> O      -0.537168    3.241925    1.639113
| 32> C      -2.298364    1.871123    0.927785
| 33> O      -3.199087    2.826543    1.421996
| 34> H      -4.863508   -2.086593    0.956266
| 35> H      -3.225306   -2.262952    0.259921
| 36> H      -4.650656   -2.840602   -0.645380
| 37> H      -6.183012    1.469382   -1.045553
| 38> H      -5.192312    2.771722   -0.326743
| 39> H      -6.707271    2.258552    0.463694
| 40> H       0.573671    0.058829   -2.569159
| 41> H       0.987665   -1.665448   -2.541879
| 42> H      -0.701419   -1.153310   -2.345580
| 43> H       0.900541   -2.960980   -0.402215
| 44> H       0.449294   -2.162164    1.116063
| 45> H      -0.784284   -2.482788   -0.115939
| 46> H       1.851248    0.541107    0.261633
| 47> H       7.917585   -0.790259    1.017186
| 48> H       8.064506    0.127245   -0.481446
| 49> H       8.041065    0.981031    1.075935
| 50> H      -2.633214    3.538114    1.774873
| 51> **                         ****END OF INPUT****

CARTESIAN COORDINATES (ANGSTROEM)
---------------------------------
  C     -4.280524   -2.062344    0.025969
  O     -4.421687   -0.817557   -0.646706
  C     -4.073729    0.319892    0.100019
  O     -5.160968    0.956389    0.702180
  C     -5.839472    1.913364   -0.102442
  C     -2.751217    0.696688    0.287738
  N     -1.773375   -0.160830   -0.213772
  C     -0.513940    0.177448   -0.025655
  C      0.503381   -0.825401   -0.590464
  C      0.334950   -0.903891   -2.116299
  C      0.257481   -2.203070    0.043527
  N      1.835280   -0.342204   -0.252910
  C      2.995377   -0.971167   -0.542456
  O      3.082520   -2.040140   -1.167234
  C      4.152038   -0.241066   -0.026772
  N      4.128453    0.896545    0.639154
  N      5.427432    1.203108    0.938141
  C      6.160293    0.255804    0.449611
  C      7.636326    0.138368    0.520818
  O      5.434639   -0.693828   -0.175793
  N     -0.018465    1.250353    0.572134
  C     -0.924763    2.173060    1.073854
  O     -0.537168    3.241925    1.639113
  C     -2.298364    1.871123    0.927785
  O     -3.199087    2.826543    1.421996
  H     -4.863508   -2.086593    0.956266
  H     -3.225306   -2.262952    0.259921
  H     -4.650656   -2.840602   -0.645380
  H     -6.183012    1.469382   -1.045553
  H     -5.192312    2.771722   -0.326743
  H     -6.707271    2.258552    0.463694
  H      0.573671    0.058829   -2.569159
  H      0.987665   -1.665448   -2.541879
  H     -0.701419   -1.153310   -2.345580
  H      0.900541   -2.960980   -0.402215
  H      0.449294   -2.162164    1.116063
  H     -0.784284   -2.482788   -0.115939
  H      1.851248    0.541107    0.261633
  H      7.917585   -0.790259    1.017186
  H      8.064506    0.127245   -0.481446
  H      8.041065    0.981031    1.075935
  H     -2.633214    3.538114    1.774873

 Total Charge           Charge          ....   -2
 Multiplicity           Mult            ....    1
 Number of Electrons    NEL             ....  186
 Basis Dimension        Dim             ....  615

ORBITAL ENERGIES
----------------

  NO   OCC          E(Eh)            E(eV)
   0   2.0000     -19.045175      -518.2456
   1   2.0000     -18.931645      -515.1562
   2   2.0000     -18.930510      -515.1254
   3   2.0000     -18.922823      -514.9162
   4   2.0000     -18.904786      -514.4254
   5   2.0000     -18.847381      -512.8633
   6   2.0000     -14.187128      -386.0514
   7   2.0000     -14.184392      -385.9769
   8   2.0000     -14.164241      -385.4286
   9   2.0000     -14.090944      -383.4341
  10   2.0000     -14.090932      -383.4338
  11   2.0000     -10.130619      -275.6682
  12   2.0000     -10.126414      -275.5537
  13   2.0000     -10.123249      -275.4676
  14   2.0000     -10.063223      -273.8342
  15   2.0000     -10.049806      -273.4691
  16   2.0000     -10.048425      -273.4315
  17   2.0000     -10.047984      -273.4195
  18   2.0000     -10.044860      -273.3345
  19   2.0000     -10.044542      -273.3259
  20   2.0000     -10.038148      -273.1519
  21   2.0000     -10.021441      -272.6973
  22   2.0000     -10.016386      -272.5597
  23   2.0000     -10.000886      -272.1379
  24   2.0000      -9.999662      -272.1046
  25   2.0000      -1.127290       -30.6751
  26   2.0000      -0.990368       -26.9493
  27   2.0000      -0.985256       -26.8102
  28   2.0000      -0.960832       -26.1456
  29   2.0000      -0.955263       -25.9940
  30   2.0000      -0.941027       -25.6066
  31   2.0000      -0.911194       -24.7949
  32   2.0000      -0.887551       -24.1515
  33   2.0000      -0.862391       -23.4669
  34   2.0000      -0.812110       -22.0986
  35   2.0000      -0.777198       -21.1486
  36   2.0000      -0.740790       -20.1579
  37   2.0000      -0.699611       -19.0374
  38   2.0000      -0.681670       -18.5492
  39   2.0000      -0.648296       -17.6410
  40   2.0000      -0.644606       -17.5406
  41   2.0000      -0.638450       -17.3731
  42   2.0000      -0.623274       -16.9601
  43   2.0000      -0.601555       -16.3691
  44   2.0000      -0.578823       -15.7506
  45   2.0000      -0.570716       -15.5300
  46   2.0000      -0.542114       -14.7517
  47   2.0000      -0.508274       -13.8309
  48   2.0000      -0.497964       -13.5503
  49   2.0000      -0.492470       -13.4008
  50   2.0000      -0.472995       -12.8708
  51   2.0000      -0.462959       -12.5978
  52   2.0000      -0.448683       -12.2093
  53   2.0000      -0.440307       -11.9814
  54   2.0000      -0.434316       -11.8183
  55   2.0000      -0.412971       -11.2375
  56   2.0000      -0.404706       -11.0126
  57   2.0000      -0.400581       -10.9004
  58   2.0000      -0.399307       -10.8657
  59   2.0000      -0.390205       -10.6180
  60   2.0000      -0.388360       -10.5678
  61   2.0000      -0.383838       -10.4448
  62   2.0000      -0.377493       -10.2721
  63   2.0000      -0.373795       -10.1715
  64   2.0000      -0.372922       -10.1477
  65   2.0000      -0.369564       -10.0563
  66   2.0000      -0.366261        -9.9665
  67   2.0000      -0.364879        -9.9288
  68   2.0000      -0.346049        -9.4165
  69   2.0000      -0.331627        -9.0240
  70   2.0000      -0.330285        -8.9875
  71   2.0000      -0.326866        -8.8945
  72   2.0000      -0.325001        -8.8437
  73   2.0000      -0.306667        -8.3448
  74   2.0000      -0.303925        -8.2702
  75   2.0000      -0.303010        -8.2453
  76   2.0000      -0.296031        -8.0554
  77   2.0000      -0.287087        -7.8120
  78   2.0000      -0.284103        -7.7308
  79   2.0000      -0.280213        -7.6250
  80   2.0000      -0.269982        -7.3466
  81   2.0000      -0.255159        -6.9432
  82   2.0000      -0.246722        -6.7137
  83   2.0000      -0.230284        -6.2664
  84   2.0000      -0.221790        -6.0352
  85   2.0000      -0.216742        -5.8979
  86   2.0000      -0.214565        -5.8386
  87   2.0000      -0.209135        -5.6909
  88   2.0000      -0.198939        -5.4134
  89   2.0000      -0.174712        -4.7542
  90   2.0000      -0.168169        -4.5761
  91   2.0000      -0.144715        -3.9379
  92   2.0000      -0.078282        -2.1302
  93   0.0000      -0.071994        -1.9591
  94   0.0000      -0.006918        -0.1882
  95   0.0000       0.027181         0.7396
  96   0.0000       0.055009         1.4969
  97   0.0000       0.062640         1.7045

MULLIKEN ATOMIC CHARGES
-----------------------
   0 C :   -0.354962
   1 O :   -0.179570
   2 C :   -0.197260
   3 O :   -0.171773
   4 C :   -0.359012
   5 C :    0.015936
   6 N :   -0.290396
   7 C :    0.441429
   8 C :   -0.118863
   9 C :   -0.674974
  10 C :   -0.671626
  11 N :    0.043926
  12 C :   -0.184228
  13 O :   -0.473769
  14 C :    0.348487
  15 N :   -0.169032
  16 N :   -0.314315
  17 C :    0.394554
  18 C :   -0.645747
  19 O :   -0.043094
  20 N :   -0.263219
  21 C :   -0.208191
  22 O :   -0.496546
  23 C :   -0.202668
  24 O :   -0.394111
  25 H :    0.140357
  26 H :    0.156606
  27 H :    0.147058
  28 H :    0.143944
  29 H :    0.156677
  30 H :    0.145842
  31 H :    0.172496
  32 H :    0.184357
  33 H :    0.181169
  34 H :    0.185617
  35 H :    0.171819
  36 H :    0.179847
  37 H :    0.305399
  38 H :    0.194488
  39 H :    0.195146
  40 H :    0.200554
  41 H :    0.307647
Sum of atomic charges:   -2.0000000

LOEWDIN ATOMIC CHARGES
----------------------
   0 C :   -0.083397
   1 O :   -0.688486
   2 C :    0.259762
   3 O :   -0.687632
   4 C :   -0.083407
   5 C :    0.154934
   6 N :   -0.695977
   7 C :    0.285020
   8 C :    0.104456
   9 C :   -0.364534
  10 C :   -0.365035
  11 N :   -0.615439
  12 C :    0.360868
  13 O :   -0.511651
  14 C :    0.409966
  15 N :   -0.385283
  16 N :   -0.385711
  17 C :    0.361539
  18 C :   -0.323005
  19 O :   -0.382060
  20 N :   -0.672185
  21 C :    0.255943
  22 O :   -0.656971
  23 C :    0.135130
  24 O :   -0.559878
  25 H :    0.155731
  26 H :    0.162851
  27 H :    0.166524
  28 H :    0.156425
  29 H :    0.162404
  30 H :    0.166933
  31 H :    0.165295
  32 H :    0.167615
  33 H :    0.168728
  34 H :    0.168277
  35 H :    0.165427
  36 H :    0.169755
  37 H :    0.308991
  38 H :    0.187081
  39 H :    0.187277
  40 H :    0.188062
  41 H :    0.285658

  Mayer bond orders larger than 0.100000
B(  0-C ,  1-O ) :   0.8480 B(  0-C , 25-H ) :   0.9691 B(  0-C , 26-H ) :   0.9639
B(  0-C , 27-H ) :   0.9737 B(  1-O ,  2-C ) :   1.0962 B(  2-C ,  3-O ) :   1.1105
B(  2-C ,  5-C ) :   1.5131 B(  3-O ,  4-C ) :   0.8475 B(  4-C , 28-H ) :   0.9726
B(  4-C , 29-H ) :   0.9659 B(  4-C , 30-H ) :   0.9734 B(  5-C ,  6-N ) :   1.0325
B(  5-C , 23-C ) :   1.0493 B(  6-N ,  7-C ) :   1.3642 B(  7-C ,  8-C ) :   0.7574
B(  7-C , 11-N ) :  -0.1173 B(  7-C , 20-N ) :   1.4202 B(  8-C ,  9-C ) :   0.8934
B(  8-C , 10-C ) :   0.8960 B(  8-C , 11-N ) :   0.9387 B(  8-C , 20-N ) :   0.1299
B(  9-C , 31-H ) :   0.9784 B(  9-C , 32-H ) :   0.9701 B(  9-C , 33-H ) :   0.9720
B( 10-C , 34-H ) :   0.9719 B( 10-C , 35-H ) :   0.9791 B( 10-C , 36-H ) :   0.9677
B( 11-N , 12-C ) :   1.1483 B( 11-N , 37-H ) :   0.8236 B( 12-C , 13-O ) :   1.8841
B( 12-C , 14-C ) :   0.8777 B( 13-O , 14-C ) :  -0.1048 B( 14-C , 15-N ) :   1.6256
B( 14-C , 19-O ) :   1.0964 B( 15-N , 16-N ) :   1.2177 B( 16-N , 17-C ) :   1.6385
B( 17-C , 18-C ) :   0.8278 B( 17-C , 19-O ) :   1.0611 B( 18-C , 38-H ) :   0.9461
B( 18-C , 39-H ) :   0.9446 B( 18-C , 40-H ) :   0.9931 B( 20-N , 21-C ) :   1.1806
B( 20-N , 22-O ) :  -0.1308 B( 21-C , 22-O ) :   2.0525 B( 21-C , 23-C ) :   1.1134
B( 22-O , 23-C ) :  -0.1315 B( 23-C , 24-O ) :   0.9427 B( 24-O , 41-H ) :   0.8319

Dispersion correction           -0.018839478
FINAL SINGLE POINT ENERGY     -1268.796433495745

DIPOLE MOMENT
-------------
                                X             Y             Z
Electronic contribution:     13.62031       7.12221       4.09974
Nuclear contribution   :     -8.89060     -10.42418      -5.51914
                        -----------------------------------------
Total Dipole Moment    :      4.72971      -3.30197      -1.41940
                        -----------------------------------------
Magnitude (a.u.)       :      5.94035
Magnitude (Debye)      :     15.09918

Rotational constants in cm-1:     0.016925     0.003213     0.002784
Rotational constants in MHz :   507.393528    96.333984    83.462724

                             ****ORCA TERMINATED NORMALLY****
TOTAL RUN TIME: 0 days 0 hours 17 minutes 42 seconds 308 msec
