   * xtb version 6.5.1 (579679a) compiled by 'ehlert@majestix' on 2022-07-11
          program call               : /lustre/hpc/kemi/ree/PhD/git/ReactivityQM/dep/xtb-6.5.1/bin/xtb --gfn 1 /lustre/hpc/kemi/ree/PhD/git/ReactivityQM/calculations/R02deprot/reac01prodE03/conf16/R02deprot_reac01prodE03_conf16_gfn1.xyz --opt --vfukui --chrg -2 --uhf 0 --alpb DMSO

   ID    Z sym.   atoms
    1    6 C      1, 3, 5, 6, 8-11, 13, 15, 18, 19, 22, 24
    2    8 O      2, 4, 14, 20, 23, 25
    3    7 N      7, 12, 16, 17, 21
    4    1 H      26-42

      * Solvation model:               ALPB
        Solvent                        DMSO
        Solvent mass                       7.8130E+01 g/mol
          :  Hamiltonian                  GFN1-xTB          :
 * total energy  :   -83.5552441 Eh     change       -0.7211725E-09 Eh
 * total energy  :   -83.5672299 Eh     change       -0.1198585E-01 Eh
 * total energy  :   -83.5723000 Eh     change       -0.5070100E-02 Eh
 * total energy  :   -83.5735804 Eh     change       -0.1280378E-02 Eh
 * total energy  :   -83.5745757 Eh     change       -0.9953189E-03 Eh
 * total energy  :   -83.5752188 Eh     change       -0.6431437E-03 Eh
 * total energy  :   -83.5757389 Eh     change       -0.5200098E-03 Eh
 * total energy  :   -83.5761629 Eh     change       -0.4240398E-03 Eh
 * total energy  :   -83.5765159 Eh     change       -0.3530507E-03 Eh
 * total energy  :   -83.5768127 Eh     change       -0.2967753E-03 Eh
 * total energy  :   -83.5827846 Eh     change       -0.1405315E-04 Eh
 * total energy  :   -83.5828132 Eh     change       -0.2859849E-04 Eh
 * total energy  :   -83.5828270 Eh     change       -0.1383886E-04 Eh
 * total energy  :   -83.5828497 Eh     change       -0.2270295E-04 Eh
 * total energy  :   -83.5828602 Eh     change       -0.1047974E-04 Eh
 * total energy  :   -83.5828689 Eh     change       -0.8710929E-05 Eh
 * total energy  :   -83.5828757 Eh     change       -0.6837639E-05 Eh
 * total energy  :   -83.5828808 Eh     change       -0.5030114E-05 Eh
 * total energy  :   -83.5828847 Eh     change       -0.3963948E-05 Eh
   *** GEOMETRY OPTIMIZATION CONVERGED AFTER 78 ITERATIONS ***

 final structure:
================
42
 xtb: 6.5.1 (579679a)
C           -4.28052389160603       -2.06234378140944        0.02596883749941
O           -4.42168671249849       -0.81755682135095       -0.64670556631560
C           -4.07372941246993        0.31989169630322        0.10001929826547
O           -5.16096793416374        0.95638875432609        0.70218045670725
C           -5.83947197383702        1.91336388313689       -0.10244202833880
C           -2.75121729470689        0.69668761890796        0.28773817386964
N           -1.77337518094811       -0.16083002042335       -0.21377238057145
C           -0.51393998594002        0.17744831613159       -0.02565507130872
C            0.50338080799221       -0.82540071096894       -0.59046438333538
C            0.33495008207082       -0.90389102854017       -2.11629885437605
C            0.25748107474836       -2.20307046732620        0.04352715895808
N            1.83528037624440       -0.34220407548944       -0.25291030923918
C            2.99537666045117       -0.97116675448292       -0.54245609080979
O            3.08252036606214       -2.04013998332258       -1.16723375222899
C            4.15203753106748       -0.24106582904966       -0.02677211500588
N            4.12845298007073        0.89654524445590        0.63915399771991
N            5.42743170902234        1.20310793841214        0.93814085978252
C            6.16029286945416        0.25580434016780        0.44961088117174
C            7.63632598709647        0.13836848133166        0.52081777874576
O            5.43463920062722       -0.69382783866244       -0.17579319265706
N           -0.01846534228121        1.25035338721716        0.57213440172492
C           -0.92476298463242        2.17305961116661        1.07385371598798
O           -0.53716761065243        3.24192535061461        1.63911262724619
C           -2.29836394032161        1.87112301723912        0.92778518160800
O           -3.19908666680631        2.82654295855287        1.42199576053511
H           -4.86350810142189       -2.08659291839012        0.95626555413130
H           -3.22530628865981       -2.26295150181539        0.25992120760653
H           -4.65065587552038       -2.84060202524539       -0.64538001851859
H           -6.18301165693854        1.46938243033847       -1.04555326527245
H           -5.19231222949731        2.77172152609442       -0.32674302240522
H           -6.70727124942657        2.25855244331744        0.46369350672336
H            0.57367072583645        0.05882896639936       -2.56915923881969
H            0.98766515940926       -1.66544849961444       -2.54187872369892
H           -0.70141873302398       -1.15330950945399       -2.34557993184765
H            0.90054070023334       -2.96097979749625       -0.40221455090686
H            0.44929401783468       -2.16216388328860        1.11606293340183
H           -0.78428421411754       -2.48278831694413       -0.11593890184109
H            1.85124796839972        0.54110728611172        0.26163280267730
H            7.91758476047676       -0.79025923992982        1.01718554915503
H            8.06450579294536        0.12724501818100       -0.48144632614639
H            8.04106494919592        0.98103115313654        1.07593535783753
H           -2.63321443977027        3.53811358166468        1.77487268227406

          :  Hamiltonian                  GFN1-xTB          :
         :: total energy             -83.582884742617 Eh    ::
         :: gradient norm              0.000797220765 Eh/a0 ::
         :: HOMO-LUMO gap              0.083621009936 eV    ::
         :: SCC energy               -84.305687909051 Eh    ::
         :: -> Gsolv                  -0.270334214439 Eh    ::
         :: repulsion energy           0.748166715999 Eh    ::

    * Orbital Energies and Occupations

         #    Occupation            Energy/Eh            Energy/eV
      -------------------------------------------------------------
         1        2.0000           -0.8212285             -22.3468
       ...           ...                  ...                  ...
        56        2.0000           -0.4290818             -11.6759
        57        2.0000           -0.4216912             -11.4748
        58        2.0000           -0.4202356             -11.4352
        59        2.0000           -0.4186141             -11.3911
        60        2.0000           -0.4135102             -11.2522
        61        2.0000           -0.4066179             -11.0646
        62        2.0000           -0.3956096             -10.7651
        63        2.0000           -0.3896288             -10.6023
        64        2.0000           -0.3798419             -10.3360
        65        2.0000           -0.3544016              -9.6438
        66        2.0000           -0.3299469              -8.9783
        67        2.0000           -0.3253288              -8.8526
        68        1.6688           -0.2746620              -7.4739 (HOMO)
        69        0.3312           -0.2715890              -7.3903 (LUMO)
        70                         -0.2242386              -6.1018
        71                         -0.1800684              -4.8999
        72                         -0.1615249              -4.3953
        73                         -0.1520288              -4.1369
        74                         -0.1301311              -3.5410
        75                         -0.1077486              -2.9320
        76                         -0.1028337              -2.7982
        77                         -0.0915143              -2.4902
        78                         -0.0889139              -2.4195
        79                         -0.0628167              -1.7093
       ...                                ...                  ...
       134                          0.7071754              19.2432
      -------------------------------------------------------------
                  HL-Gap            0.0030730 Eh            0.0836 eV

Wiberg/Mayer (AO) data.
largest (>0.10) Wiberg bond orders for each atom

     #   Z sym  total        # sym  WBO       # sym  WBO       # sym  WBO
 ---------------------------------------------------------------------------
     1   6 C    3.918 --    28 H    0.986    26 H    0.982    27 H    0.978
                             2 O    0.941
     2   8 O    1.989 --     1 C    0.941     3 C    0.927
     3   6 C    3.499 --     6 C    1.403     4 O    0.938     2 O    0.927
     4   8 O    1.998 --     5 C    0.939     3 C    0.938
     5   6 C    3.918 --    31 H    0.986    29 H    0.983    30 H    0.980
                             4 O    0.939
     6   6 C    3.967 --     3 C    1.403    24 C    1.254     7 N    1.128
     7   7 N    2.948 --     8 C    1.453     6 C    1.128    21 N    0.123
     8   6 C    3.960 --     7 N    1.453    21 N    1.404     9 C    0.958
     9   6 C    3.931 --    11 C    0.986    10 C    0.984     8 C    0.958
                            12 N    0.932
    10   6 C    3.994 --    32 H    0.987    34 H    0.985    33 H    0.985
                             9 C    0.984
    11   6 C    3.994 --    36 H    0.987     9 C    0.986    35 H    0.984
                            37 H    0.983
    12   7 N    3.295 --    13 C    1.236     9 C    0.932    38 H    0.877
                            14 O    0.158
    13   6 C    3.841 --    14 O    1.481    12 N    1.236    15 C    1.053
    14   8 O    1.761 --    13 C    1.481    12 N    0.158
    15   6 C    3.737 --    16 N    1.498    13 C    1.053    20 O    1.009
    16   7 N    2.851 --    15 C    1.498    17 N    1.185
    17   7 N    2.980 --    18 C    1.626    16 N    1.185
    18   6 C    3.841 --    17 N    1.626    20 O    1.063    19 C    1.026
    19   6 C    3.992 --    18 C    1.026    41 H    0.985    39 H    0.969
                            40 H    0.969
    20   8 O    2.236 --    18 C    1.063    15 C    1.009
    21   7 N    2.945 --     8 C    1.404    22 C    1.136     7 N    0.123
    22   6 C    3.912 --    23 O    1.377    24 C    1.264    21 N    1.136
    23   8 O    1.679 --    22 C    1.377
    24   6 C    3.724 --    22 C    1.264     6 C    1.254    25 O    0.965
    25   8 O    1.928 --    24 C    0.965    42 H    0.850
    26   1 H    1.018 --     1 C    0.982
    27   1 H    1.040 --     1 C    0.978
    28   1 H    1.022 --     1 C    0.986
    29   1 H    1.021 --     5 C    0.983
    30   1 H    1.032 --     5 C    0.980
    31   1 H    1.023 --     5 C    0.986
    32   1 H    1.010 --    10 C    0.987
    33   1 H    1.016 --    10 C    0.985
    34   1 H    1.021 --    10 C    0.985
    35   1 H    1.017 --    11 C    0.984
    36   1 H    1.009 --    11 C    0.987
    37   1 H    1.026 --    11 C    0.983
    38   1 H    0.999 --    12 N    0.877
    39   1 H    1.000 --    19 C    0.969
    40   1 H    1.000 --    19 C    0.969
    41   1 H    1.003 --    19 C    0.985
    42   1 H    0.907 --    25 O    0.850
 ---------------------------------------------------------------------------

           -------------------------------------------------
          | TOTAL ENERGY              -83.582884742617 Eh   |
          | GRADIENT NORM               0.000797220765 Eh/α |
          | HOMO-LUMO GAP               0.083621009936 eV   |
           -------------------------------------------------

 * finished run on 2023/06/20 at 17:35:05.475
