   * xtb version 6.5.1 (579679a) compiled by 'ehlert@majestix' on 2022-07-11
          program call               : /lustre/hpc/kemi/ree/PhD/git/ReactivityQM/dep/xtb-6.5.1/bin/xtb --gfn 1 /lustre/hpc/kemi/ree/PhD/git/ReactivityQM/calculations/R01/reac02prodN10/conf10/R01_reac02prodN10_conf10_gfn1.xyz --opt --vfukui --chrg 1 --uhf 0 --alpb DMSO

   ID    Z sym.   atoms
    1    6 C      1, 3, 4, 6, 8-11, 14, 16
    2    8 O      2, 5, 15, 17
    3    7 N      7, 12, 13
    4    1 H      18-33

      * Solvation model:               ALPB
        Solvent                        DMSO
        Solvent mass                       7.8130E+01 g/mol
          :  Hamiltonian                  GFN1-xTB          :
 * total energy  :   -57.8016257 Eh     change       -0.1330136E-10 Eh
 * total energy  :   -57.8116278 Eh     change       -0.1000211E-01 Eh
 * total energy  :   -57.8141372 Eh     change       -0.2509452E-02 Eh
 * total energy  :   -57.8145767 Eh     change       -0.4394554E-03 Eh
 * total energy  :   -57.8150162 Eh     change       -0.4395022E-03 Eh
 * total energy  :   -57.8152269 Eh     change       -0.2107454E-03 Eh
 * total energy  :   -57.8154336 Eh     change       -0.2066446E-03 Eh
 * total energy  :   -57.8156109 Eh     change       -0.1773127E-03 Eh
 * total energy  :   -57.8157511 Eh     change       -0.1402270E-03 Eh
 * total energy  :   -57.8158512 Eh     change       -0.1000498E-03 Eh
 * total energy  :   -57.8159000 Eh     change       -0.4883351E-04 Eh
 * total energy  :   -57.8159250 Eh     change       -0.2502526E-04 Eh
 * total energy  :   -57.8159435 Eh     change       -0.1847646E-04 Eh
 * total energy  :   -57.8159556 Eh     change       -0.1207359E-04 Eh
 * total energy  :   -57.8159605 Eh     change       -0.4874377E-05 Eh
 * total energy  :   -57.8159639 Eh     change       -0.3443524E-05 Eh
   *** GEOMETRY OPTIMIZATION CONVERGED AFTER 16 ITERATIONS ***

 final structure:
================
33
 xtb: 6.5.1 (579679a)
C            3.95316583489899        1.10256549047943       -0.32141393304450
O            2.59867612661304        0.68451529354049        0.02697326136109
C            2.17279781660195        1.12496816148905        1.35365626622634
C            2.34742429720466       -0.74513756445980       -0.30627828496974
O            3.30834847540142       -1.41022587256359       -0.54176196810564
C            0.96081697970664       -1.10746167877704       -0.36463470660692
N            0.01388103061558       -0.13610698515650       -0.13995440084230
C           -1.23584046790963       -0.45918611308998       -0.23196721086322
C           -2.31887919559349        0.55827199909906        0.04290623450637
C           -2.46432046288179        0.67893161674448        1.56644120417600
C           -1.93177953250030        1.90943981593535       -0.57249419473857
N           -3.56364307975945        0.04556938857492       -0.51476763684039
N           -1.64301790155414       -1.71879570673346       -0.52706474082229
C           -0.81328641787471       -2.78490231571288       -0.77717103718860
O           -1.23387101255365       -3.89067236548775       -1.04151120252473
C            0.61720920286602       -2.41315337536755       -0.68329214012688
O            1.47435896779549       -3.38427689972621       -0.92245631276611
H            4.10846995279532        0.82202956239562       -1.36059449974692
H            3.98131698203498        2.18164750022593       -0.19818985797320
H            4.66825090924514        0.60508475868002        0.33293460815810
H            2.30480524334135        2.20379872233896        1.37447704157544
H            2.78103300443366        0.63360044225681        2.11247223002664
H            1.12065325331438        0.86626011594982        1.44551819451243
H           -3.21915486164852        1.42680662094382        1.80412878942605
H           -1.51483492058922        0.98117249248978        2.00575492429188
H           -2.76387542609055       -0.27864353385176        1.99044721600708
H           -2.70230297723550        2.64670577330095       -0.35449714400769
H           -1.82631322363412        1.81312584363791       -1.65207213248896
H           -0.98359976728129        2.24602167354679       -0.15566990299923
H           -4.34769698087339        0.49881899255847       -0.06609461559446
H           -3.60654104039272        0.26270967781923       -1.50171864360341
H           -2.65181424907745       -1.85556872217768       -0.58082229325743
H            2.40955944058063       -3.10791380890168       -0.86868111115577

          :  Hamiltonian                  GFN1-xTB          :
         :: total energy             -57.815963904520 Eh    ::
         :: gradient norm              0.000721405613 Eh/a0 ::
         :: HOMO-LUMO gap              1.382099802368 eV    ::
         :: SCC energy               -58.396872651020 Eh    ::
         :: -> Gsolv                  -0.106300634087 Eh    ::
         :: repulsion energy           0.600192982149 Eh    ::

    * Orbital Energies and Occupations

         #    Occupation            Energy/Eh            Energy/eV
      -------------------------------------------------------------
         1        2.0000           -0.9311842             -25.3388
       ...           ...                  ...                  ...
        35        2.0000           -0.5554914             -15.1157
        36        2.0000           -0.5523330             -15.0297
        37        2.0000           -0.5446051             -14.8195
        38        2.0000           -0.5276839             -14.3590
        39        2.0000           -0.5234228             -14.2431
        40        2.0000           -0.5169955             -14.0682
        41        2.0000           -0.5138013             -13.9812
        42        2.0000           -0.5104515             -13.8901
        43        2.0000           -0.4979804             -13.5507
        44        2.0000           -0.4832920             -13.1510
        45        2.0000           -0.4776651             -12.9979
        46        2.0000           -0.4575328             -12.4501
        47        2.0000           -0.4295696             -11.6892 (HOMO)
        48                         -0.3787783             -10.3071 (LUMO)
        49                         -0.3078203              -8.3762
        50                         -0.2849071              -7.7527
        51                         -0.1951567              -5.3105
        52                         -0.1802141              -4.9039
        53                         -0.1709267              -4.6512
        54                         -0.1361129              -3.7038
        55                         -0.1326000              -3.6082
        56                         -0.1300969              -3.5401
        57                         -0.1268890              -3.4528
        58                         -0.1149137              -3.1270
       ...                                ...                  ...
       100                          0.7223377              19.6558
      -------------------------------------------------------------
                  HL-Gap            0.0507912 Eh            1.3821 eV

Wiberg/Mayer (AO) data.
largest (>0.10) Wiberg bond orders for each atom

     #   Z sym  total        # sym  WBO       # sym  WBO       # sym  WBO
 ---------------------------------------------------------------------------
     1   6 C    3.782 --    20 H    0.979    19 H    0.977    18 H    0.975
                             2 O    0.811
     2   8 O    2.500 --     1 C    0.811     3 C    0.802     4 C    0.769
     3   6 C    3.776 --    22 H    0.981    21 H    0.976    23 H    0.965
                             2 O    0.802
     4   6 C    3.805 --     5 O    1.750     6 C    1.134     2 O    0.769
     5   8 O    2.070 --     4 C    1.750
     6   6 C    3.959 --    16 C    1.406     7 N    1.157     4 C    1.134
     7   7 N    3.033 --     8 C    1.560     6 C    1.157
     8   6 C    3.912 --     7 N    1.560    13 N    1.191     9 C    0.980
     9   6 C    3.964 --    12 N    0.991    11 C    0.983     8 C    0.980
                            10 C    0.974
    10   6 C    3.990 --    26 H    0.985    25 H    0.985    24 H    0.981
                             9 C    0.974
    11   6 C    3.992 --    28 H    0.984    27 H    0.984    29 H    0.983
                             9 C    0.983
    12   7 N    2.985 --     9 C    0.991    31 H    0.937    30 H    0.933
    13   7 N    3.484 --     8 C    1.191    14 C    1.140    32 H    0.855
                            15 O    0.141
    14   6 C    3.914 --    15 O    1.629    13 N    1.140    16 C    1.022
    15   8 O    1.930 --    14 C    1.629    13 N    0.141
    16   6 C    3.907 --     6 C    1.406    17 O    1.178    14 C    1.022
    17   8 O    2.153 --    16 C    1.178    33 H    0.780
    18   1 H    0.996 --     1 C    0.975
    19   1 H    0.994 --     1 C    0.977
    20   1 H    0.995 --     1 C    0.979
    21   1 H    0.994 --     3 C    0.976
    22   1 H    0.991 --     3 C    0.981
    23   1 H    1.020 --     3 C    0.965
    24   1 H    0.998 --    10 C    0.981
    25   1 H    1.003 --    10 C    0.985
    26   1 H    1.001 --    10 C    0.985
    27   1 H    1.000 --    11 C    0.984
    28   1 H    1.002 --    11 C    0.984
    29   1 H    1.007 --    11 C    0.983
    30   1 H    0.947 --    12 N    0.933
    31   1 H    0.950 --    12 N    0.937
    32   1 H    0.940 --    13 N    0.855
    33   1 H    0.831 --    17 O    0.780
 ---------------------------------------------------------------------------

           -------------------------------------------------
          | TOTAL ENERGY              -57.815963904520 Eh   |
          | GRADIENT NORM               0.000721405613 Eh/α |
          | HOMO-LUMO GAP               1.382099802368 eV   |
           -------------------------------------------------

 * finished run on 2023/06/20 at 15:10:16.172
