   * xtb version 6.5.1 (579679a) compiled by 'ehlert@majestix' on 2022-07-11
          program call               : /lustre/hpc/kemi/ree/PhD/git/ReactivityQM/dep/xtb-6.5.1/bin/xtb --gfn 1 /lustre/hpc/kemi/ree/PhD/git/ReactivityQM/calculations/R03/reac02prodN14/conf15/R03_reac02prodN14_conf15_gfn1.xyz --opt --vfukui --chrg 1 --uhf 0 --alpb DMSO

   ID    Z sym.   atoms
    1    6 C      1, 3, 5, 6, 8, 9, 12-16, 18, 20, 23, 24
    2    8 O      2, 4, 7, 10, 19, 25
    3    7 N      11, 17, 21, 22, 26
    4    1 H      27-46

      * Solvation model:               ALPB
        Solvent                        DMSO
        Solvent mass                       7.8130E+01 g/mol
          :  Hamiltonian                  GFN1-xTB          :
 * total energy  :   -86.2067153 Eh     change       -0.9564047E-09 Eh
 * total energy  :   -86.2306002 Eh     change       -0.2388492E-01 Eh
 * total energy  :   -86.2455966 Eh     change       -0.1499636E-01 Eh
 * total energy  :   -86.2507459 Eh     change       -0.5149354E-02 Eh
 * total energy  :   -86.2550194 Eh     change       -0.4273464E-02 Eh
 * total energy  :   -86.2575688 Eh     change       -0.2549404E-02 Eh
 * total energy  :   -86.2592951 Eh     change       -0.1726302E-02 Eh
 * total energy  :   -86.2604424 Eh     change       -0.1147299E-02 Eh
 * total energy  :   -86.2613200 Eh     change       -0.8775494E-03 Eh
 * total energy  :   -86.2620536 Eh     change       -0.7336337E-03 Eh
 * total energy  :   -86.3468412 Eh     change       -0.3914732E-04 Eh
 * total energy  :   -86.3468690 Eh     change       -0.2780465E-04 Eh
 * total energy  :   -86.3468461 Eh     change        0.2296367E-04 Eh
 * total energy  :   -86.3469028 Eh     change       -0.5671381E-04 Eh
 * total energy  :   -86.3469133 Eh     change       -0.1049913E-04 Eh
 * total energy  :   -86.3469284 Eh     change       -0.1511128E-04 Eh
 * total energy  :   -86.3469336 Eh     change       -0.5265854E-05 Eh
 * total energy  :   -86.3469394 Eh     change       -0.5800025E-05 Eh
 * total energy  :   -86.3469435 Eh     change       -0.4077581E-05 Eh
   *** GEOMETRY OPTIMIZATION CONVERGED AFTER 89 ITERATIONS ***

 final structure:
================
46
 xtb: 6.5.1 (579679a)
C           -3.25716351564208        1.61477121559365        3.71314335642410
O           -2.45688814238079        1.00070040169631        2.68953227513847
C           -3.09993131757993        0.40850821626255        1.70796567720269
O           -4.30127832204632        0.34106606740464        1.60864913006758
C           -2.17135079465688       -0.17498579722692        0.66394222228295
C           -2.75986956792131       -1.17325173620267       -0.31153064112012
O           -3.66923197292970       -2.03349097910665        0.31282312459445
C           -1.63680935349895       -2.04026553778600       -0.89512813353514
C           -3.44002619757087       -0.40274009702826       -1.46217404594214
O           -1.81477981110637       -3.17235375842454       -1.28202699060682
N           -0.41946905292247       -1.42268847718775       -1.02941050692486
C            0.67708215986867       -2.28263907618466       -1.50427750532442
C           -0.05735225533687       -0.18719773376851       -0.37761346210668
C            0.28125306338439        1.00507895309622       -1.35871679046476
C           -0.46985506200161        2.28704854367910       -0.99994846793312
C            0.13065693273611        0.66643899664218       -2.83853911926293
N            1.70214082022169        1.20262880416524       -1.04856885724621
C            2.11598806016985        0.39434735838233       -0.11222458942885
O            1.19352096164669       -0.42105828939579        0.32289025305777
C            3.44687829098497        0.36491759058162        0.40117503775188
N            4.44301750132431        1.13462027934547        0.03820693409222
N            5.50361768448937        0.75915004641336        0.76009877854882
C            5.11482842285741       -0.22613876567471        1.53617885883693
C            5.92413147846359       -0.97044762138074        2.51762423230245
O            3.82672344048947       -0.51136159318594        1.34994143425422
N           -0.97998410027239        0.25664017006751        0.62313971132404
H           -3.80486967878645        0.84575639125554        4.26151909811660
H           -3.96195949885284        2.31366938666508        3.25881175391401
H           -2.56529728402116        2.13664221533541        4.37032980948654
H           -4.43773904437270       -1.53690203822685        0.63450765552787
H           -4.25774685396496        0.19163047561471       -1.05913085145383
H           -3.83267469721584       -1.12023284199867       -2.18079519526030
H           -2.72822401087813        0.25344375421944       -1.95480070145868
H            1.50375183221777       -1.66553043173982       -1.83859050117392
H            0.29935040295045       -2.87678081850823       -2.33488346349552
H            1.00975371380884       -2.93939055445366       -0.69895665074726
H           -1.53270832180551        2.15623700297942       -1.19318301905716
H           -0.09841172852046        3.10587625313347       -1.61268533077198
H           -0.32275803918208        2.53039487463787        0.05079577414766
H           -0.87417723918995        0.29598596400170       -3.03138518590425
H            0.29556995540671        1.56308185154826       -3.43281241347114
H            0.85214045292563       -0.08815843389960       -3.14109445694610
H            2.27593015040041        1.88667419299314       -1.51311981486607
H            6.97778504799606       -0.73804888440405        2.38021557100481
H            5.75517677437057       -2.04070013505679        2.40143343198831
H            5.62125771594234       -0.69094640487863        3.52836757444101

          :  Hamiltonian                  GFN1-xTB          :
         :: total energy             -86.346943527494 Eh    ::
         :: gradient norm              0.000972102509 Eh/a0 ::
         :: HOMO-LUMO gap              1.912750390860 eV    ::
         :: SCC energy               -87.149726511898 Eh    ::
         :: -> Gsolv                  -0.111558915218 Eh    ::
         :: repulsion energy           0.833716713374 Eh    ::

    * Orbital Energies and Occupations

         #    Occupation            Energy/Eh            Energy/eV
      -------------------------------------------------------------
         1        2.0000           -0.9158223             -24.9208
       ...           ...                  ...                  ...
        58        2.0000           -0.5367011             -14.6044
        59        2.0000           -0.5300367             -14.4230
        60        2.0000           -0.5261793             -14.3181
        61        2.0000           -0.5233331             -14.2406
        62        2.0000           -0.5228130             -14.2265
        63        2.0000           -0.5151663             -14.0184
        64        2.0000           -0.5137646             -13.9802
        65        2.0000           -0.5055176             -13.7558
        66        2.0000           -0.4937322             -13.4351
        67        2.0000           -0.4927548             -13.4085
        68        2.0000           -0.4757013             -12.9445
        69        2.0000           -0.4690536             -12.7636
        70        2.0000           -0.4574893             -12.4489 (HOMO)
        71                         -0.3871970             -10.5362 (LUMO)
        72                         -0.3589388              -9.7672
        73                         -0.2949304              -8.0255
        74                         -0.2810636              -7.6481
        75                         -0.2607356              -7.0950
        76                         -0.2497838              -6.7970
        77                         -0.1655331              -4.5044
        78                         -0.1587527              -4.3199
        79                         -0.1559027              -4.2423
        80                         -0.1540759              -4.1926
        81                         -0.1477658              -4.0209
       ...                                ...                  ...
       144                          0.7227438              19.6669
      -------------------------------------------------------------
                  HL-Gap            0.0702923 Eh            1.9128 eV

Wiberg/Mayer (AO) data.
largest (>0.10) Wiberg bond orders for each atom

     #   Z sym  total        # sym  WBO       # sym  WBO       # sym  WBO
 ---------------------------------------------------------------------------
     1   6 C    3.851 --    29 H    0.985    28 H    0.978    27 H    0.977
                             2 O    0.877
     2   8 O    2.236 --     3 C    1.165     1 C    0.877     4 O    0.147
     3   6 C    3.852 --     4 O    1.667     2 O    1.165     5 C    0.947
     4   8 O    1.964 --     3 C    1.667     2 O    0.147
     5   6 C    3.935 --    26 N    1.829     6 C    0.964     3 C    0.947
     6   6 C    3.933 --     7 O    0.983     5 C    0.964     9 C    0.939
                             8 C    0.927
     7   8 O    1.907 --     6 C    0.983    30 H    0.830
     8   6 C    3.889 --    10 O    1.670    11 N    1.182     6 C    0.927
     9   6 C    3.984 --    33 H    0.980    31 H    0.979    32 H    0.977
                             6 C    0.939
    10   8 O    1.948 --     8 C    1.670    11 N    0.154
    11   7 N    3.314 --     8 C    1.182    13 C    0.959    12 C    0.920
                            10 O    0.154
    12   6 C    3.921 --    34 H    0.986    35 H    0.980    36 H    0.979
                            11 N    0.920
    13   6 C    3.853 --    26 N    0.995    11 N    0.959    14 C    0.914
                            19 O    0.855
    14   6 C    3.898 --    16 C    0.994    15 C    0.990    13 C    0.914
                            17 N    0.908
    15   6 C    3.979 --    14 C    0.990    39 H    0.980    38 H    0.979
                            37 H    0.978
    16   6 C    3.980 --    14 C    0.994    42 H    0.978    41 H    0.977
                            40 H    0.974
    17   7 N    3.474 --    18 C    1.451    14 C    0.908    43 H    0.860
                            19 O    0.107
    18   6 C    3.887 --    17 N    1.451    19 O    1.173    20 C    1.113
    19   8 O    2.256 --    18 C    1.173    13 C    0.855    17 N    0.107
    20   6 C    3.889 --    21 N    1.514    18 C    1.113    25 O    1.054
    21   7 N    3.020 --    20 C    1.514    22 N    1.289
    22   7 N    2.989 --    23 C    1.512    21 N    1.289
    23   6 C    3.848 --    22 N    1.512    25 O    1.110    24 C    1.042
    24   6 C    3.977 --    23 C    1.042    44 H    0.978    45 H    0.960
                            46 H    0.946
    25   8 O    2.350 --    23 C    1.110    20 C    1.054
    26   7 N    3.051 --     5 C    1.829    13 C    0.995
    27   1 H    1.002 --     1 C    0.977
    28   1 H    1.003 --     1 C    0.978
    29   1 H    1.008 --     1 C    0.985
    30   1 H    0.866 --     7 O    0.830
    31   1 H    1.002 --     9 C    0.979
    32   1 H    0.998 --     9 C    0.977
    33   1 H    1.005 --     9 C    0.980
    34   1 H    1.002 --    12 C    0.986
    35   1 H    1.005 --    12 C    0.980
    36   1 H    0.999 --    12 C    0.979
    37   1 H    0.999 --    15 C    0.978
    38   1 H    0.994 --    15 C    0.979
    39   1 H    1.005 --    15 C    0.980
    40   1 H    1.002 --    16 C    0.974
    41   1 H    0.993 --    16 C    0.977
    42   1 H    0.998 --    16 C    0.978
    43   1 H    0.895 --    17 N    0.860
    44   1 H    0.994 --    24 C    0.978
    45   1 H    0.991 --    24 C    0.960
    46   1 H    0.990 --    24 C    0.946
 ---------------------------------------------------------------------------

           -------------------------------------------------
          | TOTAL ENERGY              -86.346943527494 Eh   |
          | GRADIENT NORM               0.000972102509 Eh/α |
          | HOMO-LUMO GAP               1.912750390860 eV   |
           -------------------------------------------------

 * finished run on 2023/06/20 at 15:50:37.286
