   * xtb version 6.5.1 (579679a) compiled by 'ehlert@majestix' on 2022-07-11
          program call               : /lustre/hpc/kemi/ree/PhD/git/ReactivityQM/dep/xtb-6.5.1/bin/xtb --gfn 1 /lustre/hpc/kemi/ree/PhD/git/ReactivityQM/calculations/R02/reac01prodN16/conf14/R02_reac01prodN16_conf14_gfn1.xyz --opt --vfukui --chrg 1 --uhf 0 --alpb DMSO

   ID    Z sym.   atoms
    1    6 C      1, 2, 5, 6, 9-12, 14, 15, 18-20, 22
    2    7 N      3, 4, 8, 13, 24
    3    8 O      7, 16, 17, 21, 23, 25
    4    1 H      26-43

      * Solvation model:               ALPB
        Solvent                        DMSO
        Solvent mass                       7.8130E+01 g/mol
          :  Hamiltonian                  GFN1-xTB          :
 * total energy  :   -83.1032829 Eh     change       -0.2729905E-10 Eh
 * total energy  :   -83.1164884 Eh     change       -0.1320553E-01 Eh
 * total energy  :   -83.1211680 Eh     change       -0.4679644E-02 Eh
 * total energy  :   -83.1222092 Eh     change       -0.1041140E-02 Eh
 * total energy  :   -83.1229644 Eh     change       -0.7552181E-03 Eh
 * total energy  :   -83.1235740 Eh     change       -0.6095680E-03 Eh
 * total energy  :   -83.1241586 Eh     change       -0.5846900E-03 Eh
 * total energy  :   -83.1246187 Eh     change       -0.4600514E-03 Eh
 * total energy  :   -83.1249561 Eh     change       -0.3374360E-03 Eh
 * total energy  :   -83.1251756 Eh     change       -0.2194512E-03 Eh
 * total energy  :   -83.1277544 Eh     change       -0.2245441E-04 Eh
 * total energy  :   -83.1277734 Eh     change       -0.1896482E-04 Eh
 * total energy  :   -83.1277850 Eh     change       -0.1161576E-04 Eh
 * total energy  :   -83.1278066 Eh     change       -0.2162276E-04 Eh
 * total energy  :   -83.1278158 Eh     change       -0.9163302E-05 Eh
 * total energy  :   -83.1278411 Eh     change       -0.2528601E-04 Eh
 * total energy  :   -83.1278470 Eh     change       -0.5878935E-05 Eh
 * total energy  :   -83.1278577 Eh     change       -0.1074076E-04 Eh
 * total energy  :   -83.1278626 Eh     change       -0.4912834E-05 Eh
   *** GEOMETRY OPTIMIZATION CONVERGED AFTER 50 ITERATIONS ***

 final structure:
================
43
 xtb: 6.5.1 (579679a)
C           -5.60754262411634        2.47597948990664        1.90697705093804
C           -5.44232860629050        1.07485186912331        1.46462700032982
N           -6.34328349277608        0.14397039220184        1.41683955631992
N           -5.72621607946234       -0.97748399776078        0.95169362943417
C           -4.48642085032661       -0.66343987524403        0.74323871255449
C           -3.39940603594772       -1.53683762145829        0.24141523270860
O           -3.58205790210105       -2.70497284705927       -0.04697103549959
N           -2.21962992315370       -0.87502861403386        0.13262626313646
C           -0.96824763855289       -1.54774583052670       -0.22148043606077
C           -1.09751440135406       -2.22261789034142       -1.59761675063080
C           -0.59226155880984       -2.56217738352672        0.86339376722415
C            0.10215771524164       -0.48812368901628       -0.34813665876114
N            1.30889741155823       -0.75297309514758        0.01914179012326
C            2.30537969947960        0.18176096999398       -0.16213646319011
C            3.57369631357915       -0.27000844682786        0.36927730634355
O            3.83134853988971       -1.19188221946637        1.06114578247144
O            4.71571413165583        0.64649992395081        0.02570674637778
C            5.83293212352704        0.52449496424469        0.95539046165386
C            5.13002223995629        0.64891272178969       -1.37381465370547
C            2.02189557458097        1.40839001186745       -0.71508897317994
O            2.91047292205627        2.36835271382655       -0.90930147912078
C            0.64654548921395        1.72121865090879       -1.13571462693530
O            0.35305186208936        2.79052807812371       -1.63202374672957
N           -0.24377410894269        0.70276733933829       -0.92614277530740
O           -4.24323456401260        0.62950898388740        1.05250537609159
H           -6.66158809639941        2.68870609495119        2.07144924800861
H           -5.05518317025011        2.63873691057658        2.83310205170837
H           -5.20598080667984        3.15195076787416        1.15323369218123
H           -2.15991730976987        0.04053671063382        0.54456315142752
H           -0.12528298073897       -2.60788469546580       -1.89961072122646
H           -1.80769291722534       -3.04576153247914       -1.54744882169343
H           -1.43773275796422       -1.49773831776586       -2.33445651375737
H            0.36470213633460       -3.01860783639423        0.61699273065471
H           -0.50852171160005       -2.06121868473700        1.82617008589134
H           -1.35625953435884       -3.33546231840775        0.92381165006466
H            6.29996636290836       -0.45314239402464        0.83849146680064
H            6.52277407862356        1.32731193928983        0.71075324420552
H            5.42292924161858        0.64926368712514        1.95448900378172
H            4.23335459947257        0.57870086759780       -1.98093419962234
H            5.63571189928402        1.59623773614638       -1.54265466171060
H            5.79139951562702       -0.19840666868434       -1.55271201693839
H            2.46555754286283        3.15483460514883       -1.28943454660359
H           -1.19843232872375        0.86799752985908       -1.21554391976341

          :  Hamiltonian                  GFN1-xTB          :
         :: total energy             -83.127862609026 Eh    ::
         :: gradient norm              0.000727729139 Eh/a0 ::
         :: HOMO-LUMO gap              1.994053414862 eV    ::
         :: SCC energy               -83.934448384391 Eh    ::
         :: -> Gsolv                  -0.127335242053 Eh    ::
         :: repulsion energy           0.832848886353 Eh    ::

    * Orbital Energies and Occupations

         #    Occupation            Energy/Eh            Energy/eV
      -------------------------------------------------------------
         1        2.0000           -0.9306738             -25.3249
       ...           ...                  ...                  ...
        55        2.0000           -0.5253418             -14.2953
        56        2.0000           -0.5224640             -14.2170
        57        2.0000           -0.5165806             -14.0569
        58        2.0000           -0.5103228             -13.8866
        59        2.0000           -0.5081610             -13.8278
        60        2.0000           -0.4928999             -13.4125
        61        2.0000           -0.4840097             -13.1706
        62        2.0000           -0.4819524             -13.1146
        63        2.0000           -0.4709456             -12.8151
        64        2.0000           -0.4680377             -12.7360
        65        2.0000           -0.4632134             -12.6047
        66        2.0000           -0.4555374             -12.3958
        67        2.0000           -0.4536591             -12.3447 (HOMO)
        68                         -0.3803790             -10.3506 (LUMO)
        69                         -0.3166232              -8.6158
        70                         -0.3143084              -8.5528
        71                         -0.2910135              -7.9189
        72                         -0.2592629              -7.0549
        73                         -0.2039806              -5.5506
        74                         -0.1988610              -5.4113
        75                         -0.1813336              -4.9343
        76                         -0.1724348              -4.6922
        77                         -0.1429015              -3.8885
        78                         -0.1377854              -3.7493
       ...                                ...                  ...
       136                          0.7470266              20.3276
      -------------------------------------------------------------
                  HL-Gap            0.0732801 Eh            1.9941 eV

Wiberg/Mayer (AO) data.
largest (>0.10) Wiberg bond orders for each atom

     #   Z sym  total        # sym  WBO       # sym  WBO       # sym  WBO
 ---------------------------------------------------------------------------
     1   6 C    3.986 --     2 C    1.032    26 H    0.982    28 H    0.966
                            27 H    0.959
     2   6 C    3.867 --     3 N    1.609    25 O    1.071     1 C    1.032
     3   7 N    2.982 --     2 C    1.609     4 N    1.200
     4   7 N    3.002 --     5 C    1.622     3 N    1.200
     5   6 C    3.874 --     4 N    1.622    25 O    1.045     6 C    0.996
     6   6 C    3.913 --     7 O    1.602     8 N    1.229     5 C    0.996
     7   8 O    1.916 --     6 C    1.602     8 N    0.170
     8   7 N    3.322 --     6 C    1.229     9 C    0.930    29 H    0.892
                             7 O    0.170
     9   6 C    3.934 --    11 C    0.988    12 C    0.984    10 C    0.969
                             8 N    0.930
    10   6 C    3.984 --    30 H    0.985    32 H    0.985    31 H    0.975
                             9 C    0.969
    11   6 C    3.986 --     9 C    0.988    34 H    0.985    33 H    0.983
                            35 H    0.981
    12   6 C    3.921 --    13 N    1.597    24 N    1.161     9 C    0.984
    13   7 N    3.023 --    12 C    1.597    14 C    1.151
    14   6 C    3.960 --    20 C    1.447    13 N    1.151    15 C    1.097
    15   6 C    3.801 --    16 O    1.824    14 C    1.097    17 O    0.742
    16   8 O    2.085 --    15 C    1.824
    17   8 O    2.484 --    18 C    0.814    19 C    0.807    15 C    0.742
    18   6 C    3.785 --    36 H    0.979    37 H    0.977    38 H    0.976
                            17 O    0.814
    19   6 C    3.783 --    41 H    0.979    40 H    0.976    39 H    0.976
                            17 O    0.807
    20   6 C    3.912 --    14 C    1.447    21 O    1.154    22 C    1.030
    21   8 O    2.131 --    20 C    1.154    42 H    0.778
    22   6 C    3.915 --    23 O    1.612    24 N    1.151    20 C    1.030
    23   8 O    1.937 --    22 C    1.612    24 N    0.142
    24   7 N    3.477 --    12 C    1.161    22 C    1.151    43 H    0.871
                            23 O    0.142
    25   8 O    2.315 --     2 C    1.071     5 C    1.045
    26   1 H    0.998 --     1 C    0.982
    27   1 H    0.996 --     1 C    0.959
    28   1 H    0.996 --     1 C    0.966
    29   1 H    0.935 --     8 N    0.892
    30   1 H    1.000 --    10 C    0.985
    31   1 H    1.008 --    10 C    0.975
    32   1 H    1.000 --    10 C    0.985
    33   1 H    1.008 --    11 C    0.983
    34   1 H    1.002 --    11 C    0.985
    35   1 H    1.005 --    11 C    0.981
    36   1 H    0.996 --    18 C    0.979
    37   1 H    0.993 --    18 C    0.977
    38   1 H    0.995 --    18 C    0.976
    39   1 H    1.000 --    19 C    0.976
    40   1 H    0.996 --    19 C    0.976
    41   1 H    0.991 --    19 C    0.979
    42   1 H    0.819 --    21 O    0.778
    43   1 H    0.915 --    24 N    0.871
 ---------------------------------------------------------------------------

           -------------------------------------------------
          | TOTAL ENERGY              -83.127862609026 Eh   |
          | GRADIENT NORM               0.000727729139 Eh/α |
          | HOMO-LUMO GAP               1.994053414862 eV   |
           -------------------------------------------------

 * finished run on 2023/06/20 at 15:43:15.409
