   * xtb version 6.5.1 (579679a) compiled by 'ehlert@majestix' on 2022-07-11
          program call               : /lustre/hpc/kemi/ree/PhD/git/ReactivityQM/dep/xtb-6.5.1/bin/xtb --gfn 1 /lustre/hpc/kemi/ree/PhD/git/ReactivityQM/calculations/R01/reac01prodE04/conf04/R01_reac01prodE04_conf04_gfn1.xyz --opt --vfukui --chrg -1 --uhf 0 --alpb DMSO

   ID    Z sym.   atoms
    1    6 C      1, 3, 5, 7, 8, 11
    2    8 O      2, 4, 6
    3    7 N      9, 10
    4    1 H      12-20

      * Solvation model:               ALPB
        Solvent                        DMSO
        Solvent mass                       7.8130E+01 g/mol
          :  Hamiltonian                  GFN1-xTB          :
 * total energy  :   -38.2923699 Eh     change       -0.6764367E-11 Eh
 * total energy  :   -38.3051180 Eh     change       -0.1274803E-01 Eh
 * total energy  :   -38.3073467 Eh     change       -0.2228779E-02 Eh
 * total energy  :   -38.3079031 Eh     change       -0.5563517E-03 Eh
 * total energy  :   -38.3107245 Eh     change       -0.2821394E-02 Eh
 * total energy  :   -38.3116091 Eh     change       -0.8846298E-03 Eh
 * total energy  :   -38.3146835 Eh     change       -0.3074413E-02 Eh
 * total energy  :   -38.3177658 Eh     change       -0.3082282E-02 Eh
 * total energy  :   -38.3194624 Eh     change       -0.1696625E-02 Eh
 * total energy  :   -38.3202903 Eh     change       -0.8278804E-03 Eh
 * total energy  :   -38.3246937 Eh     change       -0.1802986E-04 Eh
 * total energy  :   -38.3247274 Eh     change       -0.3371837E-04 Eh
 * total energy  :   -38.3247534 Eh     change       -0.2602295E-04 Eh
 * total energy  :   -38.3247871 Eh     change       -0.3365562E-04 Eh
 * total energy  :   -38.3248103 Eh     change       -0.2322247E-04 Eh
 * total energy  :   -38.3248341 Eh     change       -0.2378172E-04 Eh
 * total energy  :   -38.3248420 Eh     change       -0.7908967E-05 Eh
 * total energy  :   -38.3248475 Eh     change       -0.5472533E-05 Eh
 * total energy  :   -38.3248503 Eh     change       -0.2811091E-05 Eh
   *** GEOMETRY OPTIMIZATION CONVERGED AFTER 56 ITERATIONS ***

 final structure:
================
20
 xtb: 6.5.1 (579679a)
C            3.53392371655777       -0.96773471301147       -0.53797407591068
O            2.12733867111736       -1.02275835656725       -0.44321638003011
C            1.49163107728936        0.25275276602413       -0.43802255279945
O            2.20190603978115        1.28676463262021       -0.57098918210139
C            0.16735955964134        0.21022736688954       -0.09132089215194
O           -0.63003068456010       -0.97567639535181       -0.12598358934159
C           -1.87344538179638       -0.53758425771556       -0.34213278045161
C           -2.96864401550430       -1.54359618617361       -0.44420209720246
N           -2.04358640087664        0.72508932425385       -0.44668371953528
N           -0.74663185049842        1.33859621185298       -0.29418027779792
C           -0.81239776063034        2.21471335947533        0.88699019611001
H            3.97418248138484       -0.41309754047215        0.30176389088512
H            3.85824046069939       -0.49045306435484       -1.47292715234230
H            3.90298952225958       -1.99544732098382       -0.51745302818194
H           -3.92999188486124       -1.03779036744934       -0.49642269257154
H           -2.94942990303070       -2.20143189456637        0.42399681448648
H           -2.83709056624151       -2.15695630788429       -1.33604176904317
H           -1.56847151017774        2.97910283780953        0.71252632874769
H            0.16402074074364        2.68353669975578        1.00382701117084
H           -1.06187131129792        1.65174320584953        1.79210094806119

          :  Hamiltonian                  GFN1-xTB          :
         :: total energy             -38.324850295109 Eh    ::
         :: gradient norm              0.000605633813 Eh/a0 ::
         :: HOMO-LUMO gap              2.395534584211 eV    ::
         :: SCC energy               -38.639374277802 Eh    ::
         :: -> Gsolv                  -0.102834741672 Eh    ::
         :: repulsion energy           0.322823204347 Eh    ::

    * Orbital Energies and Occupations

         #    Occupation            Energy/Eh            Energy/eV
      -------------------------------------------------------------
         1        2.0000           -0.7811644             -21.2566
       ...           ...                  ...                  ...
        19        2.0000           -0.5089343             -13.8488
        20        2.0000           -0.5052275             -13.7479
        21        2.0000           -0.4874512             -13.2642
        22        2.0000           -0.4824545             -13.1283
        23        2.0000           -0.4751738             -12.9301
        24        2.0000           -0.4631451             -12.6028
        25        2.0000           -0.4526576             -12.3174
        26        2.0000           -0.4239204             -11.5355
        27        2.0000           -0.4222824             -11.4909
        28        2.0000           -0.4151700             -11.2974
        29        2.0000           -0.3879594             -10.5569
        30        2.0000           -0.3849631             -10.4754
        31        2.0000           -0.2970922              -8.0843 (HOMO)
        32                         -0.2090579              -5.6888 (LUMO)
        33                         -0.1384339              -3.7670
        34                         -0.1237199              -3.3666
        35                         -0.1049559              -2.8560
        36                         -0.0928490              -2.5265
        37                         -0.0572970              -1.5591
        38                         -0.0563842              -1.5343
        39                         -0.0439401              -1.1957
        40                         -0.0418280              -1.1382
        41                         -0.0413908              -1.1263
        42                         -0.0379657              -1.0331
       ...                                ...                  ...
        62                          0.6795434              18.4913
      -------------------------------------------------------------
                  HL-Gap            0.0880343 Eh            2.3955 eV

Wiberg/Mayer (AO) data.
largest (>0.10) Wiberg bond orders for each atom

     #   Z sym  total        # sym  WBO       # sym  WBO       # sym  WBO
 ---------------------------------------------------------------------------
     1   6 C    3.923 --    14 H    0.987    12 H    0.981    13 H    0.981
                             2 O    0.957
     2   8 O    2.035 --     1 C    0.957     3 C    0.900
     3   6 C    3.882 --     5 C    1.494     4 O    1.372     2 O    0.900
     4   8 O    1.703 --     3 C    1.372     5 C    0.174
     5   6 C    3.640 --     3 C    1.494    10 N    0.949     6 O    0.876
                             4 O    0.174
     6   8 O    2.185 --     7 C    1.093     5 C    0.876     9 N    0.135
     7   6 C    3.908 --     9 N    1.709     6 O    1.093     8 C    1.014
     8   6 C    3.995 --     7 C    1.014    15 H    0.987    16 H    0.975
                            17 H    0.971
     9   7 N    2.946 --     7 C    1.709    10 N    0.985     6 O    0.135
    10   7 N    3.059 --     9 N    0.985    11 C    0.970     5 C    0.949
    11   6 C    3.981 --    18 H    0.989    19 H    0.987    20 H    0.984
                            10 N    0.970
    12   1 H    1.022 --     1 C    0.981
    13   1 H    1.024 --     1 C    0.981
    14   1 H    1.021 --     1 C    0.987
    15   1 H    1.006 --     8 C    0.987
    16   1 H    1.003 --     8 C    0.975
    17   1 H    1.004 --     8 C    0.971
    18   1 H    1.025 --    11 C    0.989
    19   1 H    1.030 --    11 C    0.987
    20   1 H    1.021 --    11 C    0.984
 ---------------------------------------------------------------------------

           -------------------------------------------------
          | TOTAL ENERGY              -38.324850295109 Eh   |
          | GRADIENT NORM               0.000605633813 Eh/α |
          | HOMO-LUMO GAP               2.395534584211 eV   |
           -------------------------------------------------

 * finished run on 2023/06/20 at 14:53:41.726
