   * xtb version 6.5.1 (579679a) compiled by 'ehlert@majestix' on 2022-07-11
          program call               : /lustre/hpc/kemi/ree/PhD/git/ReactivityQM/dep/xtb-6.5.1/bin/xtb --gfn 1 /lustre/hpc/kemi/ree/PhD/git/ReactivityQM/calculations/R02/reac01prodN17/conf11/R02_reac01prodN17_conf11_gfn1.xyz --opt --vfukui --chrg 1 --uhf 0 --alpb DMSO

   ID    Z sym.   atoms
    1    6 C      1, 3, 5, 7-10, 12, 13, 15, 18, 19, 22, 24
    2    8 O      2, 4, 14, 20, 23, 25
    3    7 N      6, 11, 16, 17, 21
    4    1 H      26-43

      * Solvation model:               ALPB
        Solvent                        DMSO
        Solvent mass                       7.8130E+01 g/mol
          :  Hamiltonian                  GFN1-xTB          :
 * total energy  :   -83.1299348 Eh     change       -0.3757350E-10 Eh
 * total energy  :   -83.1420711 Eh     change       -0.1213633E-01 Eh
 * total energy  :   -83.1462643 Eh     change       -0.4193183E-02 Eh
 * total energy  :   -83.1474045 Eh     change       -0.1140161E-02 Eh
 * total energy  :   -83.1482792 Eh     change       -0.8746734E-03 Eh
 * total energy  :   -83.1488574 Eh     change       -0.5782003E-03 Eh
 * total energy  :   -83.1493171 Eh     change       -0.4597339E-03 Eh
 * total energy  :   -83.1496740 Eh     change       -0.3568683E-03 Eh
 * total energy  :   -83.1498810 Eh     change       -0.2070360E-03 Eh
 * total energy  :   -83.1499846 Eh     change       -0.1036079E-03 Eh
 * total energy  :   -83.1518284 Eh     change       -0.6071598E-04 Eh
 * total energy  :   -83.1519032 Eh     change       -0.7471635E-04 Eh
 * total energy  :   -83.1519875 Eh     change       -0.8429414E-04 Eh
 * total energy  :   -83.1520503 Eh     change       -0.6286479E-04 Eh
 * total energy  :   -83.1521024 Eh     change       -0.5210816E-04 Eh
 * total energy  :   -83.1521470 Eh     change       -0.4458768E-04 Eh
 * total energy  :   -83.1521663 Eh     change       -0.1923729E-04 Eh
 * total energy  :   -83.1521744 Eh     change       -0.8094056E-05 Eh
 * total energy  :   -83.1521783 Eh     change       -0.3931387E-05 Eh
   *** GEOMETRY OPTIMIZATION CONVERGED AFTER 60 ITERATIONS ***

 final structure:
================
43
 xtb: 6.5.1 (579679a)
C            4.84036888395918        2.72359831454210        1.11023528308681
O            3.83435221233595        1.77165341494021        0.74236282594672
C            4.09178785193100        1.02076875499117       -0.32796825019136
O            5.10699369188422        1.10695316451051       -0.97505629544157
C            2.97358146268787        0.07426519297735       -0.62148518607512
N            1.92411216811499        0.09187051735224        0.26599119847705
C            0.90916134607552       -0.68277041863400        0.09465757568393
C           -0.21473703844780       -0.62452034309680        1.11369725988386
C           -1.09644060957225       -1.86905238648089        1.09226077551937
C            0.36649650719144       -0.38254481338760        2.50280133323465
N           -1.10439110030020        0.55690370543731        0.68635234919473
C           -0.45719080236276        1.89520422516938        0.78519793285237
C           -2.38760720849523        0.60568494836446        1.49448281073262
O           -2.35576456666648        0.97517309574176        2.62505489642432
C           -3.53318631556020        0.20906950273168        0.72107179018627
N           -4.78533765337138        0.18009587775074        1.09734834119179
N           -5.49857470426060       -0.24831530428778        0.05166380407334
C           -4.65889211854048       -0.46953840802167       -0.92914225200820
C           -4.96494803116644       -0.95564970369008       -2.28496101479115
O           -3.40253395937323       -0.19695556062700       -0.56406210211489
N            0.81978777469793       -1.54073816841348       -0.96288090600786
C            1.80906997014369       -1.65393483000710       -1.91894326696662
O            1.72472041413927       -2.42018437053311       -2.86083144184331
C            2.95666556000194       -0.77243426448782       -1.69721294672846
O            3.93119175260798       -0.85437828879687       -2.59799887576775
H            5.01100104597036        3.42263944909596        0.28792661725377
H            4.46137692436098        3.25062203257330        1.98312369041390
H            5.77382693002091        2.20859299855326        1.35079670093117
H           -0.47152934066962       -2.75466552081867        1.19744809963115
H           -1.65599502299985       -1.93606978039395        0.16143032526725
H           -1.80231468463486       -1.84307437263575        1.92122721943821
H            0.91581424846122       -1.27616105950625        2.79723545999191
H            1.05752475922322        0.45821302679218        2.49093163015682
H           -0.42161632322420       -0.20001465616471        3.22923437160033
H           -1.35897776051196        0.39173357423176       -0.28869375304543
H           -1.08117852633129        2.59632455726527        0.23787392242478
H            0.53292844105739        1.83031220276702        0.34149771045761
H           -0.39503992470839        2.17631287271650        1.83284917818912
H           -6.04040599195030       -1.06612426440783       -2.40580319107886
H           -4.57416684375039       -0.25612246298891       -3.02436257912282
H           -4.47555216410999       -1.91653463850460       -2.44758089642596
H            0.00631422611052       -2.11728812496748       -1.10115430182147
H            3.68930752003041       -1.50892068765189       -3.27876484282199

          :  Hamiltonian                  GFN1-xTB          :
         :: total energy             -83.152178281835 Eh    ::
         :: gradient norm              0.000648397951 Eh/a0 ::
         :: HOMO-LUMO gap              1.700001302096 eV    ::
         :: SCC energy               -83.949352431058 Eh    ::
         :: -> Gsolv                  -0.131877187617 Eh    ::
         :: repulsion energy           0.825555904738 Eh    ::

    * Orbital Energies and Occupations

         #    Occupation            Energy/Eh            Energy/eV
      -------------------------------------------------------------
         1        2.0000           -0.9085897             -24.7240
       ...           ...                  ...                  ...
        55        2.0000           -0.5406567             -14.7120
        56        2.0000           -0.5312905             -14.4571
        57        2.0000           -0.5251798             -14.2909
        58        2.0000           -0.5198467             -14.1457
        59        2.0000           -0.5186111             -14.1121
        60        2.0000           -0.5074162             -13.8075
        61        2.0000           -0.5008691             -13.6293
        62        2.0000           -0.4965456             -13.5117
        63        2.0000           -0.4948204             -13.4647
        64        2.0000           -0.4904352             -13.3454
        65        2.0000           -0.4796552             -13.0521
        66        2.0000           -0.4656733             -12.6716
        67        2.0000           -0.4491660             -12.2224 (HOMO)
        68                         -0.3866921             -10.5224 (LUMO)
        69                         -0.3385539              -9.2125
        70                         -0.3102422              -8.4421
        71                         -0.2942513              -8.0070
        72                         -0.2597349              -7.0677
        73                         -0.2521375              -6.8610
        74                         -0.1754657              -4.7747
        75                         -0.1685086              -4.5854
        76                         -0.1595031              -4.3403
        77                         -0.1561761              -4.2498
        78                         -0.1531404              -4.1672
       ...                                ...                  ...
       136                          0.7388147              20.1042
      -------------------------------------------------------------
                  HL-Gap            0.0624739 Eh            1.7000 eV

Wiberg/Mayer (AO) data.
largest (>0.10) Wiberg bond orders for each atom

     #   Z sym  total        # sym  WBO       # sym  WBO       # sym  WBO
 ---------------------------------------------------------------------------
     1   6 C    3.867 --    27 H    0.986    26 H    0.979    28 H    0.979
                             2 O    0.893
     2   8 O    2.201 --     3 C    1.115     1 C    0.893     4 O    0.137
     3   6 C    3.856 --     4 O    1.668     2 O    1.115     5 C    0.995
     4   8 O    1.934 --     3 C    1.668     2 O    0.137
     5   6 C    3.958 --    24 C    1.499     6 N    1.171     3 C    0.995
     6   7 N    3.047 --     7 C    1.594     5 C    1.171
     7   6 C    3.942 --     6 N    1.594    21 N    1.172     8 C    0.977
     8   6 C    3.885 --     9 C    1.004    10 C    1.001     7 C    0.977
                            11 N    0.829
     9   6 C    3.984 --     8 C    1.004    30 H    0.978    31 H    0.976
                            29 H    0.976
    10   6 C    3.978 --     8 C    1.001    34 H    0.977    33 H    0.977
                            32 H    0.976
    11   7 N    3.593 --    12 C    0.894    35 H    0.883    13 C    0.852
                             8 C    0.829
    12   6 C    3.875 --    36 H    0.980    38 H    0.980    37 H    0.970
                            11 N    0.894
    13   6 C    3.877 --    14 O    1.786    15 C    1.094    11 N    0.852
    14   8 O    2.067 --    13 C    1.786
    15   6 C    3.883 --    16 N    1.527    13 C    1.094    20 O    1.032
    16   7 N    3.021 --    15 C    1.527    17 N    1.287
    17   7 N    2.993 --    18 C    1.519    16 N    1.287
    18   6 C    3.847 --    17 N    1.519    20 O    1.094    19 C    1.044
    19   6 C    3.976 --    18 C    1.044    39 H    0.979    40 H    0.953
                            41 H    0.949
    20   8 O    2.335 --    18 C    1.094    15 C    1.032
    21   7 N    3.463 --     7 C    1.172    22 C    1.120    42 H    0.875
                            23 O    0.133
    22   6 C    3.906 --    23 O    1.603    21 N    1.120    24 C    1.053
    23   8 O    1.926 --    22 C    1.603    21 N    0.133
    24   6 C    3.920 --     5 C    1.499    25 O    1.131    22 C    1.053
    25   8 O    2.109 --    24 C    1.131    43 H    0.801
    26   1 H    1.006 --     1 C    0.979
    27   1 H    1.010 --     1 C    0.986
    28   1 H    1.006 --     1 C    0.979
    29   1 H    0.992 --     9 C    0.976
    30   1 H    0.996 --     9 C    0.978
    31   1 H    0.994 --     9 C    0.976
    32   1 H    0.996 --    10 C    0.976
    33   1 H    1.008 --    10 C    0.977
    34   1 H    1.000 --    10 C    0.977
    35   1 H    0.931 --    11 N    0.883
    36   1 H    0.989 --    12 C    0.980
    37   1 H    1.007 --    12 C    0.970
    38   1 H    0.996 --    12 C    0.980
    39   1 H    0.994 --    19 C    0.979
    40   1 H    0.990 --    19 C    0.953
    41   1 H    0.990 --    19 C    0.949
    42   1 H    0.919 --    21 N    0.875
    43   1 H    0.837 --    25 O    0.801
 ---------------------------------------------------------------------------

           -------------------------------------------------
          | TOTAL ENERGY              -83.152178281835 Eh   |
          | GRADIENT NORM               0.000648397951 Eh/α |
          | HOMO-LUMO GAP               1.700001302096 eV   |
           -------------------------------------------------

 * finished run on 2023/06/20 at 15:43:21.955
