   * xtb version 6.5.1 (579679a) compiled by 'ehlert@majestix' on 2022-07-11
          program call               : /lustre/hpc/kemi/ree/PhD/git/ReactivityQM/dep/xtb-6.5.1/bin/xtb --gfn 1 /lustre/hpc/kemi/ree/PhD/git/ReactivityQM/calculations/R02methylcation/reac01prodN19/conf10/R02methylcation_reac01prodN19_conf10_gfn1.xyz --opt --vfukui --chrg 0 --uhf 0 --alpb DMSO

   ID    Z sym.   atoms
    1    6 C      1, 3, 5, 7-10, 12, 14, 17, 18, 21, 23, 24
    2    8 O      2, 4, 13, 19, 22, 25
    3    7 N      6, 11, 15, 16, 20
    4    1 H      26-42

      * Solvation model:               ALPB
        Solvent                        DMSO
        Solvent mass                       7.8130E+01 g/mol
          :  Hamiltonian                  GFN1-xTB          :
 * total energy  :   -82.9755371 Eh     change       -0.2792433E-10 Eh
 * total energy  :   -82.9898773 Eh     change       -0.1434019E-01 Eh
 * total energy  :   -82.9957205 Eh     change       -0.5843248E-02 Eh
 * total energy  :   -82.9973459 Eh     change       -0.1625440E-02 Eh
 * total energy  :   -82.9982773 Eh     change       -0.9313270E-03 Eh
 * total energy  :   -82.9986620 Eh     change       -0.3847231E-03 Eh
 * total energy  :   -82.9989090 Eh     change       -0.2470448E-03 Eh
 * total energy  :   -82.9991171 Eh     change       -0.2080132E-03 Eh
 * total energy  :   -82.9992911 Eh     change       -0.1740929E-03 Eh
 * total energy  :   -82.9994391 Eh     change       -0.1479372E-03 Eh
 * total energy  :   -83.0006624 Eh     change       -0.1419326E-04 Eh
 * total energy  :   -83.0006771 Eh     change       -0.1473411E-04 Eh
 * total energy  :   -83.0006876 Eh     change       -0.1043232E-04 Eh
 * total energy  :   -83.0006983 Eh     change       -0.1078279E-04 Eh
 * total energy  :   -83.0007093 Eh     change       -0.1100019E-04 Eh
 * total energy  :   -83.0007218 Eh     change       -0.1245342E-04 Eh
 * total energy  :   -83.0007315 Eh     change       -0.9657648E-05 Eh
 * total energy  :   -83.0007399 Eh     change       -0.8483828E-05 Eh
 * total energy  :   -83.0007426 Eh     change       -0.2709653E-05 Eh
   *** GEOMETRY OPTIMIZATION CONVERGED AFTER 44 ITERATIONS ***

 final structure:
================
42
 xtb: 6.5.1 (579679a)
C           -2.50211265029053        4.24342451534300       -1.19108828303465
O           -2.64992090971119        2.84658831731871       -0.93380891240130
C           -1.53848919182899        2.18590977300770       -0.60335411525171
O           -0.45209712046046        2.72532056726861       -0.53300151483654
C           -1.74797243320602        0.74443607175357       -0.32372881794693
N           -0.59955727900004        0.09954695111414       -0.01833982501892
C           -0.58249406023265       -1.15804804264960        0.28117099214544
C            0.70766204723821       -1.86275910923815        0.64043712419853
C            0.69972524992441       -2.21547803602701        2.13608021717157
C            0.89890355401592       -3.11783557932569       -0.22266725309471
N            1.77437979398813       -0.90821378441421        0.35715110913504
C            3.07943813171239       -1.15985365965696        0.55765779168247
O            3.53956851302393       -2.18743513179073        1.03220363713229
C            3.95129657616371       -0.03592664940468        0.12730400700565
N            5.24289096177219        0.04161805900612        0.21751935747832
N            5.60358563650026        1.24204891134962       -0.31796216311868
C            4.50967203978500        1.82277382489140       -0.70345450743213
C            4.36834938963827        3.14320729867835       -1.35480039747442
O            3.42855860724484        1.06772265141361       -0.44967435865464
N           -1.75582623198827       -1.86985715798085        0.30536986716031
C           -2.93282417687677       -1.32429728197616        0.00662197618893
O           -3.93708284609186       -2.18054352199392        0.08110530080785
C           -5.29146934218074       -1.80717960730604       -0.20871383469455
C           -3.02327419807127        0.09674122111854       -0.35077563556179
O           -4.11184009886869        0.61966099772975       -0.63111578225786
H           -2.17363011915934        4.76015810419112       -0.28557248087116
H           -3.47894766479404        4.61080402541961       -1.50014226338835
H           -1.76740545692189        4.40690997540527       -1.98354173865708
H           -0.14598614669921       -2.86445057616029        2.35288993580853
H            1.61982708229118       -2.73411770421174        2.39998620552378
H            0.61409277077106       -1.30773104443635        2.73139955446440
H            1.84915170792733       -3.59013158923313        0.02088321951753
H            0.09815222927637       -3.82828892601119       -0.03018500107353
H            0.89156391457556       -2.84867788093278       -1.27755146753335
H            1.48327747566868       -0.01824416576966       -0.03286319608815
H            3.91928266027072        3.02490563367762       -2.34077383843008
H            3.71637630315025        3.78442977654048       -0.76203478188729
H            5.34617423980180        3.60782259758543       -1.45431759542465
H           -1.76133835196895       -2.85068478030183        0.54835647483673
H           -5.87658057994543       -2.71553952731454       -0.06654894599784
H           -5.63148853642678       -1.02951883788466        0.47727803809866
H           -5.38159049000349       -1.45921667879312       -1.23914009824331

          :  Hamiltonian                  GFN1-xTB          :
         :: total energy             -83.000742649087 Eh    ::
         :: gradient norm              0.000244604747 Eh/a0 ::
         :: HOMO-LUMO gap              2.198038948379 eV    ::
         :: SCC energy               -83.778656496732 Eh    ::
         :: -> Gsolv                  -0.058527446183 Eh    ::
         :: repulsion energy           0.802956139963 Eh    ::

    * Orbital Energies and Occupations

         #    Occupation            Energy/Eh            Energy/eV
      -------------------------------------------------------------
         1        2.0000           -0.8641991             -23.5161
       ...           ...                  ...                  ...
        55        2.0000           -0.5039277             -13.7126
        56        2.0000           -0.5031692             -13.6919
        57        2.0000           -0.4938100             -13.4373
        58        2.0000           -0.4869732             -13.2512
        59        2.0000           -0.4790872             -13.0366
        60        2.0000           -0.4710324             -12.8174
        61        2.0000           -0.4680039             -12.7350
        62        2.0000           -0.4637001             -12.6179
        63        2.0000           -0.4594560             -12.5024
        64        2.0000           -0.4509851             -12.2719
        65        2.0000           -0.4473299             -12.1725
        66        2.0000           -0.4247028             -11.5568
        67        2.0000           -0.4135755             -11.2540 (HOMO)
        68                         -0.3327991              -9.0559 (LUMO)
        69                         -0.3088863              -8.4052
        70                         -0.2834540              -7.7132
        71                         -0.2560572              -6.9677
        72                         -0.2413381              -6.5671
        73                         -0.1969931              -5.3605
        74                         -0.1544757              -4.2035
        75                         -0.1502794              -4.0893
        76                         -0.1420859              -3.8664
        77                         -0.1367106              -3.7201
        78                         -0.1313986              -3.5755
       ...                                ...                  ...
       134                          0.7252142              19.7341
      -------------------------------------------------------------
                  HL-Gap            0.0807764 Eh            2.1980 eV

Wiberg/Mayer (AO) data.
largest (>0.10) Wiberg bond orders for each atom

     #   Z sym  total        # sym  WBO       # sym  WBO       # sym  WBO
 ---------------------------------------------------------------------------
     1   6 C    3.878 --    27 H    0.986    26 H    0.980    28 H    0.980
                             2 O    0.904
     2   8 O    2.202 --     3 C    1.106     1 C    0.904     4 O    0.129
     3   6 C    3.854 --     4 O    1.630     2 O    1.106     5 C    1.029
     4   8 O    1.900 --     3 C    1.630     2 O    0.129
     5   6 C    3.947 --     6 N    1.276    24 C    1.218     3 C    1.029
                            25 O    0.130
     6   7 N    3.068 --     7 C    1.540     5 C    1.276
     7   6 C    3.914 --     6 N    1.540    20 N    1.124     8 C    0.984
     8   6 C    3.940 --     7 C    0.984    10 C    0.982     9 C    0.976
                            11 N    0.937
     9   6 C    3.985 --    31 H    0.985    29 H    0.985    30 H    0.978
                             8 C    0.976
    10   6 C    3.986 --    34 H    0.985    33 H    0.982     8 C    0.982
                            32 H    0.978
    11   7 N    3.361 --    12 C    1.271     8 C    0.937    35 H    0.875
                            13 O    0.179
    12   6 C    3.919 --    13 O    1.575    11 N    1.271    14 C    0.991
    13   8 O    1.895 --    12 C    1.575    11 N    0.179
    14   6 C    3.872 --    15 N    1.623    19 O    1.049    12 C    0.991
    15   7 N    2.998 --    14 C    1.623    16 N    1.198
    16   7 N    2.981 --    17 C    1.610    15 N    1.198
    17   6 C    3.869 --    16 N    1.610    19 O    1.074    18 C    1.031
    18   6 C    3.987 --    17 C    1.031    38 H    0.983    37 H    0.964
                            36 H    0.963
    19   8 O    2.319 --    17 C    1.074    14 C    1.049
    20   7 N    3.529 --    21 C    1.318     7 C    1.124    39 H    0.876
    21   6 C    3.857 --    20 N    1.318    22 O    1.144    24 C    1.070
    22   8 O    2.228 --    21 C    1.144    23 C    0.876
    23   6 C    3.846 --    40 H    0.984    42 H    0.977    41 H    0.977
                            22 O    0.876
    24   6 C    3.951 --    25 O    1.507     5 C    1.218    21 C    1.070
    25   8 O    1.857 --    24 C    1.507     5 C    0.130
    26   1 H    1.008 --     1 C    0.980
    27   1 H    1.012 --     1 C    0.986
    28   1 H    1.009 --     1 C    0.980
    29   1 H    1.000 --     9 C    0.985
    30   1 H    1.008 --     9 C    0.978
    31   1 H    1.002 --     9 C    0.985
    32   1 H    1.007 --    10 C    0.978
    33   1 H    0.999 --    10 C    0.982
    34   1 H    1.001 --    10 C    0.985
    35   1 H    0.956 --    11 N    0.875
    36   1 H    0.997 --    18 C    0.963
    37   1 H    0.997 --    18 C    0.964
    38   1 H    0.999 --    18 C    0.983
    39   1 H    0.926 --    20 N    0.876
    40   1 H    1.009 --    23 C    0.984
    41   1 H    1.015 --    23 C    0.977
    42   1 H    1.015 --    23 C    0.977
 ---------------------------------------------------------------------------

           -------------------------------------------------
          | TOTAL ENERGY              -83.000742649087 Eh   |
          | GRADIENT NORM               0.000244604747 Eh/α |
          | HOMO-LUMO GAP               2.198038948379 eV   |
           -------------------------------------------------

 * finished run on 2023/06/21 at 18:02:53.311
