   * xtb version 6.5.1 (579679a) compiled by 'ehlert@majestix' on 2022-07-11
          program call               : /lustre/hpc/kemi/ree/PhD/git/ReactivityQM/dep/xtb-6.5.1/bin/xtb --gfn 1 /lustre/hpc/kemi/ree/PhD/git/ReactivityQM/calculations/R02oxygendeprot/reac01prodN15/conf20/R02oxygendeprot_reac01prodN15_conf20_gfn1.xyz --opt --vfukui --chrg 0 --uhf 0 --alpb DMSO

   ID    Z sym.   atoms
    1    6 C      1, 3, 5, 7-10, 12, 14, 17, 18, 21, 23, 24
    2    8 O      2, 4, 13, 19, 22, 25
    3    7 N      6, 11, 15, 16, 20
    4    1 H      26-42

      * Solvation model:               ALPB
        Solvent                        DMSO
        Solvent mass                       7.8130E+01 g/mol
          :  Hamiltonian                  GFN1-xTB          :
 * total energy  :   -82.8944308 Eh     change       -0.3628031E-10 Eh
 * total energy  :   -82.9152948 Eh     change       -0.2086402E-01 Eh
 * total energy  :   -82.9354361 Eh     change       -0.2014126E-01 Eh
 * total energy  :   -82.9569718 Eh     change       -0.2153574E-01 Eh
 * total energy  :   -82.9814086 Eh     change       -0.2443671E-01 Eh
 * total energy  :   -82.9649138 Eh     change        0.1649477E-01 Eh
 * total energy  :   -82.9924856 Eh     change       -0.2757178E-01 Eh
 * total energy  :   -82.9923436 Eh     change        0.1419343E-03 Eh
 * total energy  :   -83.0007140 Eh     change       -0.8370337E-02 Eh
 * total energy  :   -83.0018044 Eh     change       -0.1090486E-02 Eh
 * total energy  :   -83.0060545 Eh     change       -0.1252544E-04 Eh
 * total energy  :   -83.0060754 Eh     change       -0.2084924E-04 Eh
 * total energy  :   -83.0060909 Eh     change       -0.1551157E-04 Eh
 * total energy  :   -83.0061082 Eh     change       -0.1731959E-04 Eh
 * total energy  :   -83.0061161 Eh     change       -0.7836368E-05 Eh
 * total energy  :   -83.0061269 Eh     change       -0.1082340E-04 Eh
 * total energy  :   -83.0061342 Eh     change       -0.7344880E-05 Eh
 * total energy  :   -83.0061423 Eh     change       -0.8112378E-05 Eh
 * total energy  :   -83.0061464 Eh     change       -0.4068758E-05 Eh
   *** GEOMETRY OPTIMIZATION CONVERGED AFTER 44 ITERATIONS ***

 final structure:
================
42
 xtb: 6.5.1 (579679a)
C           -5.51485020087487        2.35352728281373        1.37885065940346
O           -4.67678751995396        1.38109034313769        0.73849925847281
C           -3.40032743162403        1.37715493253946        1.08227033252828
O           -2.90300736458026        2.13433981564983        1.87662553323388
C           -2.59042063914989        0.31522565046048        0.35330654744066
N           -1.43837885583938       -0.06250564215849        1.08161973907574
C           -0.51702608365597       -0.71734142388997        0.49558942335534
C            0.64366262286678       -1.26941403697261        1.29684278327509
C            0.66334773414658       -0.65392980978344        2.69887472165761
C            0.47931713570809       -2.79558550878659        1.36087836304712
N            1.87708375752326       -0.92334094400545        0.58087455795005
C            3.10296152335147       -1.31675073408885        0.99524152557989
O            3.32842381370616       -2.06564820548565        1.92966762478005
C            4.18986143755498       -0.74445155461752        0.16236502656571
N            5.46696654215958       -0.93265094530853        0.28410327674753
N            6.06754561557880       -0.20612311223402       -0.69957437935935
C            5.12033234869021        0.38152082047187       -1.36209229346626
C            5.25063113399280        1.27677960413641       -2.53185948707343
O            3.90735084462595        0.08420536305040       -0.86687666934804
N           -0.50164428768843       -0.97479971300326       -0.86090803305531
C           -1.35606262766874       -0.37223299062985       -1.75391293190016
O           -1.09446489506585       -0.29678351793302       -2.93462232696416
C           -2.60676718462152        0.18791243041441       -1.14291661737149
C           -3.43395805112167        1.06214668807296       -2.05429641437074
O           -3.28370032880369       -0.70697363192266       -0.29501360327501
H           -6.49082592003767        2.28051863671959        0.90489476643023
H           -5.58997064070302        2.13131243643316        2.44512438621244
H           -5.09594402895647        3.35219428546044        1.24239309776120
H           -0.27864033588396       -0.86705417888036        3.20172052037270
H            1.48234350176143       -1.07647410852550        3.27777745924643
H            0.78978612171722        0.42512146692007        2.62887482240306
H            1.26219731360846       -3.23268521144127        1.97710531787596
H           -0.49000885132407       -3.03500788126932        1.79577826612261
H            0.53463566866119       -3.21899231727134        0.35985657733217
H            1.82874320252346       -0.21379716739500       -0.13104322665307
H            4.76734636708836        2.23140917460043       -2.32601889357310
H            4.75781671134641        0.83044049068184       -3.39575969444887
H            6.30260098520117        1.43765632577892       -2.75559380666995
H            0.33109422047621       -1.37498346247039       -1.26633426638803
H           -4.42576213259018        1.21453457169440       -1.63789859523156
H           -2.94303480697226        2.02400574901825       -2.19197357176282
H           -3.52246341517296        0.57642803002539       -3.02592177596332

          :  Hamiltonian                  GFN1-xTB          :
         :: total energy             -83.006146408567 Eh    ::
         :: gradient norm              0.000407099169 Eh/a0 ::
         :: HOMO-LUMO gap              3.668388827980 eV    ::
         :: SCC energy               -83.778461743452 Eh    ::
         :: -> Gsolv                  -0.054898419129 Eh    ::
         :: repulsion energy           0.797778994292 Eh    ::

    * Orbital Energies and Occupations

         #    Occupation            Energy/Eh            Energy/eV
      -------------------------------------------------------------
         1        2.0000           -0.8662429             -23.5717
       ...           ...                  ...                  ...
        55        2.0000           -0.5059349             -13.7672
        56        2.0000           -0.5052722             -13.7492
        57        2.0000           -0.5041045             -13.7174
        58        2.0000           -0.5014400             -13.6449
        59        2.0000           -0.4813552             -13.0983
        60        2.0000           -0.4776456             -12.9974
        61        2.0000           -0.4690008             -12.7622
        62        2.0000           -0.4660013             -12.6805
        63        2.0000           -0.4636373             -12.6162
        64        2.0000           -0.4621132             -12.5747
        65        2.0000           -0.4530920             -12.3293
        66        2.0000           -0.4519060             -12.2970
        67        2.0000           -0.4472891             -12.1714 (HOMO)
        68                         -0.3124783              -8.5030 (LUMO)
        69                         -0.3029925              -8.2448
        70                         -0.2884405              -7.8489
        71                         -0.2590201              -7.0483
        72                         -0.2571889              -6.9985
        73                         -0.2001703              -5.4469
        74                         -0.1424907              -3.8774
        75                         -0.1418490              -3.8599
        76                         -0.1321012              -3.5947
        77                         -0.1283393              -3.4923
        78                         -0.1248608              -3.3976
       ...                                ...                  ...
       134                          0.7293521              19.8467
      -------------------------------------------------------------
                  HL-Gap            0.1348108 Eh            3.6684 eV

Wiberg/Mayer (AO) data.
largest (>0.10) Wiberg bond orders for each atom

     #   Z sym  total        # sym  WBO       # sym  WBO       # sym  WBO
 ---------------------------------------------------------------------------
     1   6 C    3.859 --    26 H    0.985    28 H    0.980    27 H    0.979
                             2 O    0.883
     2   8 O    2.227 --     3 C    1.142     1 C    0.883     4 O    0.142
     3   6 C    3.851 --     4 O    1.688     2 O    1.142     5 C    0.936
     4   8 O    1.940 --     3 C    1.688     2 O    0.142
     5   6 C    3.870 --     6 N    1.025     3 C    0.936    25 O    0.908
                            23 C    0.835
     6   7 N    3.025 --     7 C    1.712     5 C    1.025
     7   6 C    3.928 --     6 N    1.712    20 N    1.108     8 C    0.979
     8   6 C    3.934 --     9 C    0.991     7 C    0.979    10 C    0.976
                            11 N    0.923
     9   6 C    3.988 --     8 C    0.991    31 H    0.985    29 H    0.984
                            30 H    0.982
    10   6 C    3.988 --    33 H    0.985    34 H    0.984    32 H    0.977
                             8 C    0.976
    11   7 N    3.336 --    12 C    1.244     8 C    0.923    35 H    0.893
                            13 O    0.173
    12   6 C    3.915 --    13 O    1.593    11 N    1.244    14 C    0.993
    13   8 O    1.909 --    12 C    1.593    11 N    0.173
    14   6 C    3.872 --    15 N    1.622    19 O    1.046    12 C    0.993
    15   7 N    3.000 --    14 C    1.622    16 N    1.199
    16   7 N    2.982 --    17 C    1.610    15 N    1.199
    17   6 C    3.868 --    16 N    1.610    19 O    1.072    18 C    1.032
    18   6 C    3.986 --    17 C    1.032    38 H    0.982    36 H    0.964
                            37 H    0.961
    19   8 O    2.316 --    17 C    1.072    14 C    1.046
    20   7 N    3.417 --    21 C    1.142     7 C    1.108    39 H    0.884
                            22 O    0.126
    21   6 C    3.893 --    22 O    1.658    20 N    1.142    23 C    0.978
    22   8 O    1.937 --    21 C    1.658    20 N    0.126
    23   6 C    3.861 --    24 C    1.002    21 C    0.978    25 O    0.894
                             5 C    0.835
    24   6 C    3.985 --    23 C    1.002    40 H    0.981    41 H    0.980
                            42 H    0.974
    25   8 O    1.967 --     5 C    0.908    23 C    0.894
    26   1 H    1.008 --     1 C    0.985
    27   1 H    1.004 --     1 C    0.979
    28   1 H    1.005 --     1 C    0.980
    29   1 H    1.008 --     9 C    0.984
    30   1 H    1.007 --     9 C    0.982
    31   1 H    1.004 --     9 C    0.985
    32   1 H    1.009 --    10 C    0.977
    33   1 H    1.001 --    10 C    0.985
    34   1 H    1.001 --    10 C    0.984
    35   1 H    0.937 --    11 N    0.893
    36   1 H    0.996 --    18 C    0.964
    37   1 H    0.996 --    18 C    0.961
    38   1 H    0.998 --    18 C    0.982
    39   1 H    0.929 --    20 N    0.884
    40   1 H    1.008 --    24 C    0.981
    41   1 H    0.999 --    24 C    0.980
    42   1 H    1.002 --    24 C    0.974
 ---------------------------------------------------------------------------

           -------------------------------------------------
          | TOTAL ENERGY              -83.006146408567 Eh   |
          | GRADIENT NORM               0.000407099169 Eh/α |
          | HOMO-LUMO GAP               3.668388827980 eV   |
           -------------------------------------------------

 * finished run on 2023/06/21 at 17:35:30.356
