   * xtb version 6.5.1 (579679a) compiled by 'ehlert@majestix' on 2022-07-11
          program call               : /lustre/hpc/kemi/ree/PhD/git/ReactivityQM/dep/xtb-6.5.1/bin/xtb --gfn 1 /lustre/hpc/kemi/ree/PhD/git/ReactivityQM/calculations/R01/reac01prodN04/conf06/R01_reac01prodN04_conf06_gfn1.xyz --opt --vfukui --chrg 1 --uhf 0 --alpb DMSO

   ID    Z sym.   atoms
    1    6 C      1, 3, 5, 8-10
    2    8 O      2, 4, 11
    3    7 N      6, 7
    4    1 H      12-20

      * Solvation model:               ALPB
        Solvent                        DMSO
        Solvent mass                       7.8130E+01 g/mol
          :  Hamiltonian                  GFN1-xTB          :
 * total energy  :   -37.6284505 Eh     change       -0.7609913E-11 Eh
 * total energy  :   -37.6405285 Eh     change       -0.1207795E-01 Eh
 * total energy  :   -37.6440721 Eh     change       -0.3543590E-02 Eh
 * total energy  :   -37.6447162 Eh     change       -0.6440679E-03 Eh
 * total energy  :   -37.6451701 Eh     change       -0.4538931E-03 Eh
 * total energy  :   -37.6453276 Eh     change       -0.1575701E-03 Eh
 * total energy  :   -37.6454791 Eh     change       -0.1515224E-03 Eh
 * total energy  :   -37.6456055 Eh     change       -0.1263250E-03 Eh
 * total energy  :   -37.6456677 Eh     change       -0.6225016E-04 Eh
 * total energy  :   -37.6457019 Eh     change       -0.3420802E-04 Eh
 * total energy  :   -37.6457121 Eh     change       -0.1015584E-04 Eh
 * total energy  :   -37.6457167 Eh     change       -0.4645702E-05 Eh
   *** GEOMETRY OPTIMIZATION CONVERGED AFTER 12 ITERATIONS ***

 final structure:
================
20
 xtb: 6.5.1 (579679a)
C            4.12830989648605       -0.15923870340303       -0.09610576764408
O            2.69501568561631       -0.22019649187872       -0.22655003569943
C            1.98482089089163        0.42012903081011        0.66748215320840
O            2.39547119326285        1.06042885881352        1.59461779220935
C            0.50903028931523        0.26666742979731        0.40054177485744
N           -0.46017815437359        0.77599123248151        1.09830982382544
N           -1.58073042220566        0.37447616683042        0.47773785393516
C           -2.87903981768971        0.75311428530692        0.99773562115151
C           -1.27536273522050       -0.36447646857368       -0.57183568780789
C           -2.17505431595028       -1.01361257363643       -1.53711022448478
O            0.03585134266531       -0.44457414828166       -0.63934745985770
H            4.45089340302190        0.88320616765492       -0.08860901438006
H            4.42950212087891       -0.64768456518871        0.83186408397554
H            4.53125227649092       -0.68484293722090       -0.95838219954210
H           -2.73139341430256        1.55695338723836        1.71467314245920
H           -3.32955500484003       -0.11175244024177        1.48330985099967
H           -3.50537764052043        1.08108248838246        0.17105814861946
H           -1.58841225652599       -1.48849447670307       -2.32113002889881
H           -2.85064114144065       -0.27471405734980       -1.97038421119717
H           -2.78440219555975       -1.76246218483781       -1.02787361572907

          :  Hamiltonian                  GFN1-xTB          :
         :: total energy             -37.645716730324 Eh    ::
         :: gradient norm              0.000375204577 Eh/a0 ::
         :: HOMO-LUMO gap              4.083557651789 eV    ::
         :: SCC energy               -38.000685904815 Eh    ::
         :: -> Gsolv                  -0.086272672942 Eh    ::
         :: repulsion energy           0.363003253107 Eh    ::

    * Orbital Energies and Occupations

         #    Occupation            Energy/Eh            Energy/eV
      -------------------------------------------------------------
         1        2.0000           -0.9451599             -25.7191
       ...           ...                  ...                  ...
        18        2.0000           -0.6257351             -17.0271
        19        2.0000           -0.6139193             -16.7056
        20        2.0000           -0.6010342             -16.3550
        21        2.0000           -0.5945740             -16.1792
        22        2.0000           -0.5928155             -16.1313
        23        2.0000           -0.5809397             -15.8082
        24        2.0000           -0.5748131             -15.6415
        25        2.0000           -0.5673011             -15.4370
        26        2.0000           -0.5529391             -15.0462
        27        2.0000           -0.5396470             -14.6845
        28        2.0000           -0.5292171             -14.4007
        29        2.0000           -0.5251532             -14.2901
        30        2.0000           -0.5226339             -14.2216 (HOMO)
        31                         -0.3725659             -10.1380 (LUMO)
        32                         -0.3504807              -9.5371
        33                         -0.2566249              -6.9831
        34                         -0.1876019              -5.1049
        35                         -0.1748598              -4.7582
        36                         -0.1532840              -4.1711
        37                         -0.1270025              -3.4559
        38                         -0.1149565              -3.1281
        39                         -0.1019323              -2.7737
        40                         -0.0951341              -2.5887
        41                         -0.0891723              -2.4265
       ...                                ...                  ...
        62                          0.7344860              19.9864
      -------------------------------------------------------------
                  HL-Gap            0.1500680 Eh            4.0836 eV

Wiberg/Mayer (AO) data.
largest (>0.10) Wiberg bond orders for each atom

     #   Z sym  total        # sym  WBO       # sym  WBO       # sym  WBO
 ---------------------------------------------------------------------------
     1   6 C    3.837 --    14 H    0.984    12 H    0.977    13 H    0.976
                             2 O    0.865
     2   8 O    2.245 --     3 C    1.175     1 C    0.865     4 O    0.158
     3   6 C    3.878 --     4 O    1.691     2 O    1.175     5 C    0.946
     4   8 O    1.970 --     3 C    1.691     2 O    0.158
     5   6 C    3.854 --     6 N    1.617    11 O    1.063     3 C    0.946
     6   7 N    2.993 --     5 C    1.617     7 N    1.163
     7   7 N    3.630 --     9 C    1.413     6 N    1.163     8 C    0.907
     8   6 C    3.881 --    15 H    0.977    17 H    0.972    16 H    0.964
                             7 N    0.907
     9   6 C    3.839 --     7 N    1.413    11 O    1.158    10 C    1.043
    10   6 C    3.959 --     9 C    1.043    18 H    0.972    19 H    0.945
                            20 H    0.941
    11   8 O    2.390 --     9 C    1.158     5 C    1.063
    12   1 H    1.000 --     1 C    0.977
    13   1 H    1.000 --     1 C    0.976
    14   1 H    1.005 --     1 C    0.984
    15   1 H    0.991 --     8 C    0.977
    16   1 H    0.988 --     8 C    0.964
    17   1 H    0.989 --     8 C    0.972
    18   1 H    0.985 --    10 C    0.972
    19   1 H    0.985 --    10 C    0.945
    20   1 H    0.984 --    10 C    0.941
 ---------------------------------------------------------------------------

           -------------------------------------------------
          | TOTAL ENERGY              -37.645716730324 Eh   |
          | GRADIENT NORM               0.000375204577 Eh/α |
          | HOMO-LUMO GAP               4.083557651789 eV   |
           -------------------------------------------------

 * finished run on 2023/06/20 at 14:55:33.961
