   * xtb version 6.5.1 (579679a) compiled by 'ehlert@majestix' on 2022-07-11
          program call               : /lustre/hpc/kemi/ree/PhD/git/ReactivityQM/dep/xtb-6.5.1/bin/xtb --gfn 1 /lustre/hpc/kemi/ree/PhD/git/ReactivityQM/calculations/R01/reac02prodE04/conf04/R01_reac02prodE04_conf04_gfn1.xyz --opt --vfukui --chrg -1 --uhf 0 --alpb DMSO

   ID    Z sym.   atoms
    1    6 C      1, 3, 5, 6, 8, 11-14, 17
    2    8 O      2, 4, 7, 9
    3    7 N      10, 15, 16
    4    1 H      18-33

      * Solvation model:               ALPB
        Solvent                        DMSO
        Solvent mass                       7.8130E+01 g/mol
          :  Hamiltonian                  GFN1-xTB          :
 * total energy  :   -58.4762812 Eh     change       -0.1198686E-10 Eh
 * total energy  :   -58.4889991 Eh     change       -0.1271787E-01 Eh
 * total energy  :   -58.4961871 Eh     change       -0.7188004E-02 Eh
 * total energy  :   -58.4978434 Eh     change       -0.1656318E-02 Eh
 * total energy  :   -58.4994254 Eh     change       -0.1581977E-02 Eh
 * total energy  :   -58.4999879 Eh     change       -0.5624556E-03 Eh
 * total energy  :   -58.5004973 Eh     change       -0.5094605E-03 Eh
 * total energy  :   -58.5009232 Eh     change       -0.4258367E-03 Eh
 * total energy  :   -58.5012455 Eh     change       -0.3223518E-03 Eh
 * total energy  :   -58.5015266 Eh     change       -0.2810842E-03 Eh
 * total energy  :   -58.5024836 Eh     change       -0.6096285E-04 Eh
 * total energy  :   -58.5025410 Eh     change       -0.5744208E-04 Eh
 * total energy  :   -58.5025742 Eh     change       -0.3317053E-04 Eh
 * total energy  :   -58.5025980 Eh     change       -0.2376926E-04 Eh
 * total energy  :   -58.5026177 Eh     change       -0.1976148E-04 Eh
 * total energy  :   -58.5026310 Eh     change       -0.1329409E-04 Eh
 * total energy  :   -58.5026390 Eh     change       -0.7987623E-05 Eh
 * total energy  :   -58.5026442 Eh     change       -0.5125973E-05 Eh
 * total energy  :   -58.5026467 Eh     change       -0.2582547E-05 Eh
   *** GEOMETRY OPTIMIZATION CONVERGED AFTER 24 ITERATIONS ***

 final structure:
================
33
 xtb: 6.5.1 (579679a)
C            4.19655538100850        1.31255550394275        0.08698527068526
O            2.84283521297270        0.91578718103174        0.18377609143495
C            2.64717563276126       -0.49043840467698        0.24943383829853
O            3.66448511209909       -1.23478839677663        0.19185953597988
C            1.34825770614175       -0.91964233675747        0.39482564268083
C            1.00121933431284       -2.35798758055262        0.40250927272235
O            1.90593295998431       -3.23132249948904        1.04154263988473
C           -0.16475799688612       -2.78845044085471       -0.12310301457696
O           -0.76953889070159       -3.89271444640554       -0.21853946450792
N           -0.95426221737831       -1.61244244482773       -0.69232004670187
C           -0.91921194717569       -0.40104823916786       -0.13450838445620
C           -2.18523428540647        0.46371413609927       -0.25957639469518
C           -3.00133655883674        0.40119973243093        1.03920504417066
C           -1.87373881481704        1.91659720982348       -0.65710881927568
N           -3.04727825995919       -0.05785063705864       -1.31519958013500
N            0.21207129493578       -0.02963222791782        0.43360489407687
C            0.36035474311334        1.17967096214501        1.23697229139510
H            4.21482116053571        2.40397597620278        0.07118827776245
H            4.78152690833689        0.95554626710636        0.94468625560617
H            4.66106934510344        0.93205655706830       -0.83247540294263
H            2.79858220016214       -2.85985931256871        0.88108467062769
H           -1.84410732949477       -1.91544460675122       -1.05867839500907
H           -2.46823159850838        0.85269136032293        1.87315177582859
H           -3.93814712034949        0.93814247377942        0.89552203559569
H           -3.22683691840044       -0.63567095581454        1.28794081935440
H           -1.05782627930309        1.95094937392754       -1.37823898078006
H           -1.61830107730897        2.53243578552511        0.20137106908030
H           -2.76294276099388        2.34173434339565       -1.12201236290748
H           -2.53688334929390       -0.19053379095586       -2.17680642815822
H           -3.49428973919541       -0.92238321909093       -1.04671857295879
H            0.65685753025939        2.02226196158107        0.61206074505433
H            1.13659147970123        1.00596514828185        1.98132414896630
H           -0.56540985741508        1.41492756699958        1.75528352789951

          :  Hamiltonian                  GFN1-xTB          :
         :: total energy             -58.502646738604 Eh    ::
         :: gradient norm              0.000580794516 Eh/a0 ::
         :: HOMO-LUMO gap              0.881594490794 eV    ::
         :: SCC energy               -59.046540200335 Eh    ::
         :: -> Gsolv                  -0.119383166050 Eh    ::
         :: repulsion energy           0.563691587461 Eh    ::

    * Orbital Energies and Occupations

         #    Occupation            Energy/Eh            Energy/eV
      -------------------------------------------------------------
         1        2.0000           -0.7842582             -21.3408
       ...           ...                  ...                  ...
        36        2.0000           -0.4805108             -13.0754
        37        2.0000           -0.4768465             -12.9757
        38        2.0000           -0.4714566             -12.8290
        39        2.0000           -0.4623422             -12.5810
        40        2.0000           -0.4556394             -12.3986
        41        2.0000           -0.4354760             -11.8499
        42        2.0000           -0.4305240             -11.7152
        43        2.0000           -0.4146600             -11.2835
        44        2.0000           -0.4046757             -11.0118
        45        2.0000           -0.3944169             -10.7326
        46        2.0000           -0.3739222             -10.1749
        47        2.0000           -0.3504987              -9.5376
        48        2.0000           -0.2824465              -7.6858 (HOMO)
        49                         -0.2500485              -6.8042 (LUMO)
        50                         -0.1535044              -4.1771
        51                         -0.1329769              -3.6185
        52                         -0.1215472              -3.3075
        53                         -0.1103703              -3.0033
        54                         -0.1063615              -2.8942
        55                         -0.1000887              -2.7236
        56                         -0.0955697              -2.6006
        57                         -0.0740386              -2.0147
        58                         -0.0664689              -1.8087
        59                         -0.0595866              -1.6214
       ...                                ...                  ...
       100                          0.7842712              21.3411
      -------------------------------------------------------------
                  HL-Gap            0.0323980 Eh            0.8816 eV

Wiberg/Mayer (AO) data.
largest (>0.10) Wiberg bond orders for each atom

     #   Z sym  total        # sym  WBO       # sym  WBO       # sym  WBO
 ---------------------------------------------------------------------------
     1   6 C    3.917 --    18 H    0.987    20 H    0.981    19 H    0.981
                             2 O    0.948
     2   8 O    2.053 --     1 C    0.948     3 C    0.902
     3   6 C    3.881 --     5 C    1.456     4 O    1.372     2 O    0.902
     4   8 O    1.757 --     3 C    1.372     5 C    0.148
     5   6 C    3.760 --     3 C    1.456     6 C    1.025    16 N    0.929
                             4 O    0.148
     6   6 C    3.834 --     8 C    1.578     5 C    1.025     7 O    0.954
                             9 O    0.188
     7   8 O    1.910 --     6 C    0.954    21 H    0.840
     8   6 C    3.887 --     6 C    1.578     9 O    1.363    10 N    0.782
     9   8 O    1.707 --     8 C    1.363     6 C    0.188
    10   7 N    3.338 --    11 C    1.321    22 H    0.907     8 C    0.782
                            16 N    0.146
    11   6 C    3.932 --    16 N    1.415    10 N    1.321    12 C    0.957
    12   6 C    3.966 --    15 N    0.991    14 C    0.991    13 C    0.987
                            11 C    0.957
    13   6 C    3.994 --    12 C    0.987    25 H    0.984    24 H    0.984
                            23 H    0.979
    14   6 C    3.995 --    12 C    0.991    26 H    0.986    28 H    0.984
                            27 H    0.983
    15   7 N    2.964 --    12 C    0.991    29 H    0.942    30 H    0.939
    16   7 N    3.524 --    11 C    1.415    17 C    0.945     5 C    0.929
                            10 N    0.146
    17   6 C    3.952 --    32 H    0.981    33 H    0.977    31 H    0.977
                            16 N    0.945
    18   1 H    1.019 --     1 C    0.987
    19   1 H    1.022 --     1 C    0.981
    20   1 H    1.022 --     1 C    0.981
    21   1 H    0.913 --     7 O    0.840
    22   1 H    0.963 --    10 N    0.907
    23   1 H    1.006 --    13 C    0.979
    24   1 H    1.004 --    13 C    0.984
    25   1 H    1.002 --    13 C    0.984
    26   1 H    1.003 --    14 C    0.986
    27   1 H    1.006 --    14 C    0.983
    28   1 H    1.012 --    14 C    0.984
    29   1 H    0.958 --    15 N    0.942
    30   1 H    0.957 --    15 N    0.939
    31   1 H    1.021 --    17 C    0.977
    32   1 H    1.020 --    17 C    0.981
    33   1 H    1.010 --    17 C    0.977
 ---------------------------------------------------------------------------

           -------------------------------------------------
          | TOTAL ENERGY              -58.502646738604 Eh   |
          | GRADIENT NORM               0.000580794516 Eh/α |
          | HOMO-LUMO GAP               0.881594490794 eV   |
           -------------------------------------------------

 * finished run on 2023/06/20 at 14:59:07.014
