   * xtb version 6.5.1 (579679a) compiled by 'ehlert@majestix' on 2022-07-11
          program call               : /lustre/hpc/kemi/ree/PhD/git/ReactivityQM/dep/xtb-6.5.1/bin/xtb --gfn 1 /lustre/hpc/kemi/ree/PhD/git/ReactivityQM/calculations/R02methylcation/reac01prodN16/conf16/R02methylcation_reac01prodN16_conf16_gfn1.xyz --opt --vfukui --chrg 0 --uhf 0 --alpb DMSO

   ID    Z sym.   atoms
    1    6 C      1, 2, 5, 6, 9-12, 14, 15, 18-20, 22
    2    7 N      3, 4, 8, 13, 24
    3    8 O      7, 16, 17, 21, 23, 25
    4    1 H      26-42

      * Solvation model:               ALPB
        Solvent                        DMSO
        Solvent mass                       7.8130E+01 g/mol
          :  Hamiltonian                  GFN1-xTB          :
 * total energy  :   -82.9251582 Eh     change       -0.2671641E-11 Eh
 * total energy  :   -82.9406794 Eh     change       -0.1552116E-01 Eh
 * total energy  :   -82.9476110 Eh     change       -0.6931639E-02 Eh
 * total energy  :   -82.9491217 Eh     change       -0.1510708E-02 Eh
 * total energy  :   -82.9506219 Eh     change       -0.1500233E-02 Eh
 * total energy  :   -82.9516149 Eh     change       -0.9929509E-03 Eh
 * total energy  :   -82.9523815 Eh     change       -0.7666415E-03 Eh
 * total energy  :   -82.9529448 Eh     change       -0.5632902E-03 Eh
 * total energy  :   -82.9533442 Eh     change       -0.3993322E-03 Eh
 * total energy  :   -82.9537146 Eh     change       -0.3704158E-03 Eh
 * total energy  :   -82.9566752 Eh     change       -0.1618812E-04 Eh
 * total energy  :   -82.9566875 Eh     change       -0.1233156E-04 Eh
 * total energy  :   -82.9566981 Eh     change       -0.1052874E-04 Eh
 * total energy  :   -82.9567124 Eh     change       -0.1428581E-04 Eh
 * total energy  :   -82.9567242 Eh     change       -0.1180379E-04 Eh
 * total energy  :   -82.9567298 Eh     change       -0.5676907E-05 Eh
 * total energy  :   -82.9567371 Eh     change       -0.7265387E-05 Eh
 * total energy  :   -82.9567431 Eh     change       -0.5958195E-05 Eh
 * total energy  :   -82.9567452 Eh     change       -0.2162431E-05 Eh
   *** GEOMETRY OPTIMIZATION CONVERGED AFTER 57 ITERATIONS ***

 final structure:
================
42
 xtb: 6.5.1 (579679a)
C            5.26849026939322       -2.70616310456438        1.84860701697300
C            5.22292281546280       -1.61491085921334        0.85153281729036
N            6.22148682923200       -0.99987867062123        0.29909125720147
N            5.69181143107145       -0.08083058882174       -0.55680046219632
C            4.40262624401688       -0.19065855329077       -0.47363531879112
C            3.37770586631254        0.59565884722845       -1.20690683142061
O            3.68406422499180        1.45221728256586       -2.01956549351214
N            2.11852581866054        0.24150442037606       -0.87543723686773
C            0.92870956713896        0.92680544829674       -1.39741491105449
C            0.94298866429920        2.39601037706578       -0.96518035181232
C            0.88085496640819        0.79772035432312       -2.92752283140913
C           -0.28400042016742        0.22930900749159       -0.81707966848450
N           -1.25051452549131        0.91106763935476       -0.33712688379690
C           -2.38391512612121        0.26942430496867        0.16435222193292
C           -3.32927924327278        1.19715613061522        0.60344646984309
O           -3.39551737558254        2.38762258291800        0.64497054386838
O           -4.66440625382530        0.48240471821071        1.13417411017553
C           -5.82002938286554        1.29434648248770        0.84337383601936
C           -4.55588278996320        0.12032868533736        2.52865364764766
C           -2.50431722951509       -1.15857238957692        0.18743028763451
O           -3.44320328991689       -1.79235928557650        0.67001215976167
C           -1.34668575725980       -1.92106716745251       -0.43729925981682
O           -1.31448725610541       -3.13368693652226       -0.54121237157439
N           -0.30944967393335       -1.14865058630158       -0.89054755315418
O            4.04302570684428       -1.14969269454984        0.40738989106753
H            4.84510495930158       -3.61592846492597        1.42189570615979
H            4.67512471390139       -2.43709675150833        2.72208790364207
H            6.29875670234458       -2.88976221752685        2.14532676454223
H            1.99299055369834       -0.41934905316982       -0.12683059901617
H            1.00432659386293        2.46139899072842        0.12001982972532
H            1.79501386518480        2.90977520789718       -1.40635229260472
H            0.02355954058547        2.87736569087408       -1.29504594428143
H           -0.05094463116016        1.22501022387354       -3.29467655868862
H            1.71699671832828        1.32863214186102       -3.37853782274048
H            0.92791583633800       -0.25099248951361       -3.21526265475817
H           -5.84339102301346        1.43981984246942       -0.23469497088464
H           -6.69668250163456        0.74296681081441        1.17540232657510
H           -5.74743021222232        2.25214216836796        1.36123615793279
H           -3.66730822884739       -0.49801536367265        2.63143631853066
H           -4.48559816263115        1.01806606568501        3.14404657146215
H           -5.44358203558351       -0.45543696989388        2.78374812242321
H            0.47362323172517       -1.64138327708945       -1.29110394352433

          :  Hamiltonian                  GFN1-xTB          :
         :: total energy             -82.956745229906 Eh    ::
         :: gradient norm              0.000778550714 Eh/a0 ::
         :: HOMO-LUMO gap              2.429844700609 eV    ::
         :: SCC energy               -83.750070421465 Eh    ::
         :: -> Gsolv                  -0.066513658774 Eh    ::
         :: repulsion energy           0.818977838075 Eh    ::

    * Orbital Energies and Occupations

         #    Occupation            Energy/Eh            Energy/eV
      -------------------------------------------------------------
         1        2.0000           -0.8812052             -23.9788
       ...           ...                  ...                  ...
        55        2.0000           -0.5037806             -13.7086
        56        2.0000           -0.5015646             -13.6483
        57        2.0000           -0.4978161             -13.5463
        58        2.0000           -0.4918437             -13.3837
        59        2.0000           -0.4784716             -13.0199
        60        2.0000           -0.4735985             -12.8873
        61        2.0000           -0.4637607             -12.6196
        62        2.0000           -0.4587921             -12.4844
        63        2.0000           -0.4513298             -12.2813
        64        2.0000           -0.4476822             -12.1821
        65        2.0000           -0.4454603             -12.1216
        66        2.0000           -0.4191628             -11.4060
        67        2.0000           -0.4108839             -11.1807 (HOMO)
        68                         -0.3215887              -8.7509 (LUMO)
        69                         -0.3091840              -8.4133
        70                         -0.2693173              -7.3285
        71                         -0.2555046              -6.9526
        72                         -0.2419647              -6.5842
        73                         -0.1970417              -5.3618
        74                         -0.1668292              -4.5397
        75                         -0.1529594              -4.1622
        76                         -0.1473667              -4.0101
        77                         -0.1424515              -3.8763
        78                         -0.1411243              -3.8402
       ...                                ...                  ...
       134                          0.7869166              21.4131
      -------------------------------------------------------------
                  HL-Gap            0.0892951 Eh            2.4298 eV

Wiberg/Mayer (AO) data.
largest (>0.10) Wiberg bond orders for each atom

     #   Z sym  total        # sym  WBO       # sym  WBO       # sym  WBO
 ---------------------------------------------------------------------------
     1   6 C    3.986 --     2 C    1.032    28 H    0.982    27 H    0.965
                            26 H    0.961
     2   6 C    3.869 --     3 N    1.612    25 O    1.072     1 C    1.032
     3   7 N    2.981 --     2 C    1.612     4 N    1.197
     4   7 N    2.999 --     5 C    1.624     3 N    1.197
     5   6 C    3.872 --     4 N    1.624    25 O    1.047     6 C    0.991
     6   6 C    3.917 --     7 O    1.586     8 N    1.256     5 C    0.991
     7   8 O    1.903 --     6 C    1.586     8 N    0.176
     8   7 N    3.344 --     6 C    1.256     9 C    0.919    29 H    0.894
                             7 O    0.176
     9   6 C    3.933 --    10 C    0.992    11 C    0.979    12 C    0.979
                             8 N    0.919
    10   6 C    3.989 --     9 C    0.992    30 H    0.985    32 H    0.984
                            31 H    0.982
    11   6 C    3.987 --    33 H    0.985    35 H    0.984     9 C    0.979
                            34 H    0.979
    12   6 C    3.933 --    13 N    1.668    24 N    1.098     9 C    0.979
    13   7 N    3.026 --    12 C    1.668    14 C    1.097
    14   6 C    3.919 --    15 C    1.298    20 C    1.194    13 N    1.097
                            16 O    0.110    21 O    0.101
    15   6 C    3.809 --    16 O    1.720    14 C    1.298    17 O    0.605
    16   8 O    2.044 --    15 C    1.720    14 C    0.110
    17   8 O    2.444 --    18 C    0.859    19 C    0.851    15 C    0.605
    18   6 C    3.831 --    36 H    0.979    38 H    0.979    37 H    0.979
                            17 O    0.859
    19   6 C    3.825 --    40 H    0.983    41 H    0.978    39 H    0.973
                            17 O    0.851
    20   6 C    3.923 --    21 O    1.596    14 C    1.194    22 C    0.944
    21   8 O    1.910 --    20 C    1.596    14 C    0.101
    22   6 C    3.885 --    23 O    1.633    24 N    1.161    20 C    0.944
    23   8 O    1.909 --    22 C    1.633    24 N    0.139
    24   7 N    3.432 --    22 C    1.161    12 C    1.098    42 H    0.887
                            23 O    0.139
    25   8 O    2.315 --     2 C    1.072     5 C    1.047
    26   1 H    0.997 --     1 C    0.961
    27   1 H    0.997 --     1 C    0.965
    28   1 H    0.998 --     1 C    0.982
    29   1 H    0.939 --     8 N    0.894
    30   1 H    1.006 --    10 C    0.985
    31   1 H    1.008 --    10 C    0.982
    32   1 H    1.011 --    10 C    0.984
    33   1 H    1.002 --    11 C    0.985
    34   1 H    1.009 --    11 C    0.979
    35   1 H    1.002 --    11 C    0.984
    36   1 H    1.001 --    18 C    0.979
    37   1 H    1.000 --    18 C    0.979
    38   1 H    1.004 --    18 C    0.979
    39   1 H    1.013 --    19 C    0.973
    40   1 H    0.998 --    19 C    0.983
    41   1 H    1.001 --    19 C    0.978
    42   1 H    0.933 --    24 N    0.887
 ---------------------------------------------------------------------------

           -------------------------------------------------
          | TOTAL ENERGY              -82.956745229906 Eh   |
          | GRADIENT NORM               0.000778550714 Eh/α |
          | HOMO-LUMO GAP               2.429844700609 eV   |
           -------------------------------------------------

 * finished run on 2023/06/21 at 17:58:28.676
