   * xtb version 6.5.1 (579679a) compiled by 'ehlert@majestix' on 2022-07-11
          program call               : /lustre/hpc/kemi/ree/PhD/git/ReactivityQM/dep/xtb-6.5.1/bin/xtb --gfn 1 /lustre/hpc/kemi/ree/PhD/git/ReactivityQM/calculations/R02/reac01prodE04/conf03/R02_reac01prodE04_conf03_gfn1.xyz --opt --vfukui --chrg -1 --uhf 0 --alpb DMSO

   ID    Z sym.   atoms
    1    6 C      1, 3, 5, 6, 8-11, 13, 15, 18, 19, 22, 24
    2    8 O      2, 4, 14, 20, 23, 25
    3    7 N      7, 12, 16, 17, 21
    4    1 H      26-43

      * Solvation model:               ALPB
        Solvent                        DMSO
        Solvent mass                       7.8130E+01 g/mol
          :  Hamiltonian                  GFN1-xTB          :
 * total energy  :   -83.8489883 Eh     change       -0.1319393E-08 Eh
 * total energy  :   -83.8644251 Eh     change       -0.1543685E-01 Eh
 * total energy  :   -83.8714515 Eh     change       -0.7026397E-02 Eh
 * total energy  :   -83.8730245 Eh     change       -0.1573010E-02 Eh
 * total energy  :   -83.8738720 Eh     change       -0.8474837E-03 Eh
 * total energy  :   -83.8741695 Eh     change       -0.2974950E-03 Eh
 * total energy  :   -83.8743673 Eh     change       -0.1977840E-03 Eh
 * total energy  :   -83.8745165 Eh     change       -0.1491777E-03 Eh
 * total energy  :   -83.8746361 Eh     change       -0.1196701E-03 Eh
 * total energy  :   -83.8747528 Eh     change       -0.1166726E-03 Eh
 * total energy  :   -83.8764383 Eh     change       -0.1932788E-04 Eh
 * total energy  :   -83.8764562 Eh     change       -0.1790252E-04 Eh
 * total energy  :   -83.8764652 Eh     change       -0.8986718E-05 Eh
 * total energy  :   -83.8764757 Eh     change       -0.1045822E-04 Eh
 * total energy  :   -83.8764888 Eh     change       -0.1311394E-04 Eh
 * total energy  :   -83.8765013 Eh     change       -0.1253849E-04 Eh
 * total energy  :   -83.8765122 Eh     change       -0.1090811E-04 Eh
 * total energy  :   -83.8765213 Eh     change       -0.9083978E-05 Eh
 * total energy  :   -83.8765259 Eh     change       -0.4579765E-05 Eh
   *** GEOMETRY OPTIMIZATION CONVERGED AFTER 50 ITERATIONS ***

 final structure:
================
43
 xtb: 6.5.1 (579679a)
C           -2.94804839815856       -3.17316756247523       -0.22945710536228
O           -2.43091624685613       -1.84483763668236       -0.20596281721628
C           -2.72602189103315       -1.07382176896449       -1.26954752719389
O           -3.38591670487502       -1.49170069479531       -2.20337183005389
C           -2.27530756664327        0.38466476676556       -1.10719636913562
C           -2.06635439685137        1.00732367001903       -2.49366416234310
N           -1.01891224789592        0.44327008133986       -0.36397688647479
C           -1.05390471791010        0.60124775281999        0.90754643769480
C            0.26730406842621        0.58571841572261        1.67268802623254
C            0.51942552893663        1.95048021794049        2.32678887205972
C            0.25558208100167       -0.53603438912981        2.71901727076834
N            1.30854867611195        0.31784042978353        0.68256107766464
C            2.61525506470651        0.21248815501715        0.94395173021082
O            3.14350001489333        0.32532812409990        2.04142740868370
C            3.38662906382159       -0.07351080539011       -0.30030782359878
N            2.89340991554013       -0.23853857213100       -1.49014091232618
N            3.94640755462073       -0.48554850801972       -2.32274178250614
C            5.01337952388580       -0.45445639896176       -1.58622603005653
C            6.41451767601508       -0.65881660475943       -2.01547969490463
O            4.72765768387391       -0.19968557792547       -0.30009084812305
N           -2.18018791002353        0.75595427868045        1.64164646009786
C           -3.41410465151513        1.19606936624083        0.99767097845646
O           -4.29835265957864        1.70708457183833        1.74001748987239
C           -3.40909041166164        1.02595201937843       -0.35012677347590
O           -4.51841892220853        1.43348898809613       -1.13300541348551
H           -4.04084185553232       -3.15981147131885       -0.27544312279612
H           -2.62007699805745       -3.65914595777648        0.68790410850212
H           -2.56267151027479       -3.71692786716149       -1.09680545662634
H           -2.97140400564908        0.89899465348330       -3.09030633349080
H           -1.24050972631437        0.51223495565517       -3.00369183254566
H           -1.83269753176444        2.06550256584730       -2.38783873344085
H           -0.27129115873959        2.17082219327904        3.04131560270162
H            1.47231235129370        1.94323363386300        2.85309890217102
H            0.53905697278271        2.73063749244026        1.56693701849634
H            0.11438830771830       -1.49888910485114        2.22911139069079
H           -0.55616060644369       -0.37604415940825        3.42570793317090
H            1.19667138654844       -0.54943017262108        3.26588691167702
H            0.97323118519787        0.21172277196746       -0.27527364838567
H            6.85853107529918       -1.48443905091069       -1.46007552304329
H            6.44296619228566       -0.87829667449401       -3.07978054022114
H            7.00057914148906        0.23729297281922       -1.81266824097719
H           -2.10534854775849        1.02555299524969        2.60864301922381
H           -5.16281379870810        1.81019790542969       -0.51749423059639

          :  Hamiltonian                  GFN1-xTB          :
         :: total energy             -83.876525897855 Eh    ::
         :: gradient norm              0.000541507919 Eh/a0 ::
         :: HOMO-LUMO gap              0.323531257725 eV    ::
         :: SCC energy               -84.641466799960 Eh    ::
         :: -> Gsolv                  -0.114834707543 Eh    ::
         :: repulsion energy           0.792201727549 Eh    ::

    * Orbital Energies and Occupations

         #    Occupation            Energy/Eh            Energy/eV
      -------------------------------------------------------------
         1        2.0000           -0.8575821             -23.3360
       ...           ...                  ...                  ...
        56        2.0000           -0.4762375             -12.9591
        57        2.0000           -0.4697659             -12.7830
        58        2.0000           -0.4671962             -12.7131
        59        2.0000           -0.4597923             -12.5116
        60        2.0000           -0.4542667             -12.3612
        61        2.0000           -0.4525224             -12.3138
        62        2.0000           -0.4432089             -12.0603
        63        2.0000           -0.4404265             -11.9846
        64        2.0000           -0.4321996             -11.7608
        65        2.0000           -0.4025531             -10.9540
        66        2.0000           -0.3910670             -10.6415
        67        2.0000           -0.3794663             -10.3258
        68        1.9962           -0.3117448              -8.4830 (HOMO)
        69        0.0038           -0.2998552              -8.1595 (LUMO)
        70                         -0.2518477              -6.8531
        71                         -0.2391385              -6.5073
        72                         -0.2219846              -6.0405
        73                         -0.1881012              -5.1185
        74                         -0.1410261              -3.8375
        75                         -0.1311861              -3.5698
        76                         -0.1302078              -3.5431
        77                         -0.1176955              -3.2027
        78                         -0.1119509              -3.0463
        79                         -0.0994825              -2.7071
       ...                                ...                  ...
       136                          0.7283221              19.8187
      -------------------------------------------------------------
                  HL-Gap            0.0118896 Eh            0.3235 eV

Wiberg/Mayer (AO) data.
largest (>0.10) Wiberg bond orders for each atom

     #   Z sym  total        # sym  WBO       # sym  WBO       # sym  WBO
 ---------------------------------------------------------------------------
     1   6 C    3.890 --    27 H    0.987    28 H    0.981    26 H    0.981
                             2 O    0.912
     2   8 O    2.174 --     3 C    1.080     1 C    0.912     4 O    0.118
     3   6 C    3.811 --     4 O    1.635     2 O    1.080     5 C    0.920
     4   8 O    1.901 --     3 C    1.635     2 O    0.118
     5   6 C    3.963 --     6 C    0.988     7 N    0.967    24 C    0.956
                             3 C    0.920
     6   6 C    3.996 --    30 H    0.988     5 C    0.988    31 H    0.987
                            29 H    0.985
     7   7 N    3.002 --     8 C    1.660     5 C    0.967    21 N    0.167
     8   6 C    3.952 --     7 N    1.660    21 N    1.207     9 C    0.967
     9   6 C    3.933 --    11 C    0.985    10 C    0.984     8 C    0.967
                            12 N    0.926
    10   6 C    3.992 --    34 H    0.986     9 C    0.984    32 H    0.984
                            33 H    0.981
    11   6 C    3.993 --    35 H    0.986     9 C    0.985    36 H    0.984
                            37 H    0.981
    12   7 N    3.381 --    13 C    1.295     9 C    0.926    38 H    0.871
                            14 O    0.187
    13   6 C    3.922 --    14 O    1.565    12 N    1.295    15 C    0.981
    14   8 O    1.887 --    13 C    1.565    12 N    0.187
    15   6 C    3.868 --    16 N    1.617    20 O    1.061    13 C    0.981
    16   7 N    3.008 --    15 C    1.617    17 N    1.192
    17   7 N    2.980 --    18 C    1.614    16 N    1.192
    18   6 C    3.873 --    17 N    1.614    20 O    1.080    19 C    1.030
    19   6 C    3.988 --    18 C    1.030    40 H    0.983    39 H    0.965
                            41 H    0.964
    20   8 O    2.324 --    18 C    1.080    15 C    1.061
    21   7 N    3.319 --     8 C    1.207    42 H    0.910    22 C    0.897
                             7 N    0.167
    22   6 C    3.915 --    24 C    1.520    23 O    1.365    21 N    0.897
    23   8 O    1.710 --    22 C    1.365    24 C    0.173
    24   6 C    3.792 --    22 C    1.520     5 C    0.956    25 O    0.945
                            23 O    0.173
    25   8 O    1.917 --    24 C    0.945    43 H    0.857
    26   1 H    1.011 --     1 C    0.981
    27   1 H    1.014 --     1 C    0.987
    28   1 H    1.012 --     1 C    0.981
    29   1 H    1.016 --     6 C    0.985
    30   1 H    1.010 --     6 C    0.988
    31   1 H    1.011 --     6 C    0.987
    32   1 H    1.003 --    10 C    0.984
    33   1 H    1.010 --    10 C    0.981
    34   1 H    1.004 --    10 C    0.986
    35   1 H    1.005 --    11 C    0.986
    36   1 H    1.004 --    11 C    0.984
    37   1 H    1.010 --    11 C    0.981
    38   1 H    0.983 --    12 N    0.871
    39   1 H    0.997 --    19 C    0.965
    40   1 H    0.999 --    19 C    0.983
    41   1 H    0.997 --    19 C    0.964
    42   1 H    0.962 --    21 N    0.910
    43   1 H    0.890 --    25 O    0.857
 ---------------------------------------------------------------------------

           -------------------------------------------------
          | TOTAL ENERGY              -83.876525897855 Eh   |
          | GRADIENT NORM               0.000541507919 Eh/α |
          | HOMO-LUMO GAP               0.323531257725 eV   |
           -------------------------------------------------

 * finished run on 2023/06/20 at 14:57:28.711
