   * xtb version 6.5.1 (579679a) compiled by 'ehlert@majestix' on 2022-07-11
          program call               : /lustre/hpc/kemi/ree/PhD/git/ReactivityQM/dep/xtb-6.5.1/bin/xtb --gfn 1 /lustre/hpc/kemi/ree/PhD/git/ReactivityQM/calculations/R03/reac02prodE07/conf10/R03_reac02prodE07_conf10_gfn1.xyz --opt --vfukui --chrg -1 --uhf 0 --alpb DMSO

   ID    Z sym.   atoms
    1    6 C      1, 3, 5, 7-10, 12, 14, 15, 18, 19, 22, 23, 25
    2    8 O      2, 4, 13, 20, 24, 26
    3    7 N      6, 11, 16, 17, 21
    4    1 H      27-46

      * Solvation model:               ALPB
        Solvent                        DMSO
        Solvent mass                       7.8130E+01 g/mol
          :  Hamiltonian                  GFN1-xTB          :
 * total energy  :   -86.9976781 Eh     change       -0.8377299E-10 Eh
 * total energy  :   -87.0093541 Eh     change       -0.1167591E-01 Eh
 * total energy  :   -87.0142912 Eh     change       -0.4937118E-02 Eh
 * total energy  :   -87.0153255 Eh     change       -0.1034314E-02 Eh
 * total energy  :   -87.0162081 Eh     change       -0.8825884E-03 Eh
 * total energy  :   -87.0166548 Eh     change       -0.4467259E-03 Eh
 * total energy  :   -87.0170092 Eh     change       -0.3543949E-03 Eh
 * total energy  :   -87.0172525 Eh     change       -0.2433144E-03 Eh
 * total energy  :   -87.0174066 Eh     change       -0.1541234E-03 Eh
 * total energy  :   -87.0175168 Eh     change       -0.1101922E-03 Eh
 * total energy  :   -87.0224039 Eh     change       -0.3091654E-04 Eh
 * total energy  :   -87.0224342 Eh     change       -0.3029327E-04 Eh
 * total energy  :   -87.0224461 Eh     change       -0.1191419E-04 Eh
 * total energy  :   -87.0224740 Eh     change       -0.2786105E-04 Eh
 * total energy  :   -87.0224828 Eh     change       -0.8788735E-05 Eh
 * total energy  :   -87.0225071 Eh     change       -0.2434079E-04 Eh
 * total energy  :   -87.0225144 Eh     change       -0.7282410E-05 Eh
 * total energy  :   -87.0225240 Eh     change       -0.9591450E-05 Eh
 * total energy  :   -87.0225282 Eh     change       -0.4218023E-05 Eh
   *** GEOMETRY OPTIMIZATION CONVERGED AFTER 76 ITERATIONS ***

 final structure:
================
46
 xtb: 6.5.1 (579679a)
C            4.56086032951305        1.97435865599397        2.75104507415038
O            3.72684425064868        1.26763662730728        1.84012420743903
C            4.26026512207174        1.03006417298867        0.61510564119160
O            5.38668398475807        1.40169607873675        0.32584880644647
C            3.34078750158102        0.30436694346942       -0.26393792619374
N            2.11106157866701       -0.01515842868215        0.25200122532140
C            1.22032648413274       -0.65293403744288       -0.43708484698631
C           -0.07830312151667       -0.98513422985733        0.28610101131093
C           -0.14143073713755       -2.49817374740089        0.54662756660309
C           -0.10626878828949       -0.23815342488845        1.63116467396245
N           -1.21430356672091       -0.55067930506077       -0.55830477727887
C           -2.51194540597064       -0.64284703756951        0.05135032400205
O           -3.02348175839574       -1.92223101411126        0.23617095789618
C           -3.95500831848436       -2.36757839964951       -0.74830464764266
C           -3.33979599947344        0.45593724110919        0.08635749528653
N           -4.64522923728174        0.50544150826627        0.41316112493774
N           -5.00238240078028        1.83356769987752        0.34327172534842
C           -3.96016818602419        2.50615742796459        0.00128742823690
C           -3.85947647680963        3.97265979489842       -0.21476742610808
O           -2.85326936303654        1.72170711880561       -0.17900502446021
N            1.45547952416904       -1.04209258192238       -1.73808134979282
C            0.52101712459933       -1.77302905716686       -2.59315655103968
C            2.68455390130364       -0.79245116321590       -2.34772426312576
O            2.91437425759352       -1.17096597385239       -3.50602358303884
C            3.64482504873695       -0.08001238193472       -1.56055880171993
O            4.83620255243618        0.16880212376581       -2.15771938719951
H            5.47135698042263        1.40444624182621        2.96014666779560
H            4.83909127268730        2.94979898909006        2.34016246359289
H            3.98833737082472        2.10739104545711        3.66790903122059
H           -0.96199574063658       -2.72802533732446        1.22401831622605
H            0.79059270372672       -2.83103580812595        1.00308096184940
H           -0.29600605476181       -3.04953199289479       -0.37812752110780
H           -0.00592222481364        0.83453009243272        1.46896637337856
H           -1.05244233238119       -0.43392277797301        2.13543919983489
H            0.71273591972176       -0.57452957666549        2.26511326354539
H           -1.06379823812061        0.42298180973233       -0.81791614150379
H           -4.23461291297082       -3.38976791141113       -0.48704439605155
H           -4.85161151183375       -1.73346770460171       -0.74964267083873
H           -3.50721220290523       -2.35893590305169       -1.74945226236861
H           -3.57909205766364        4.18789206691058       -1.24716572640359
H           -4.82113216777584        4.43525397489191       -0.00259065966319
H           -3.10007401469042        4.40610903124958        0.43726088263608
H            0.86305600314221       -2.80378829579947       -2.70168852312335
H            0.51653318503068       -1.30058117510635       -3.57643391315385
H           -0.48171148659602       -1.74841089843050       -2.17760465123879
H            4.80168820933126       -0.20736348061037       -3.05489037214128

          :  Hamiltonian                  GFN1-xTB          :
         :: total energy             -87.022528205189 Eh    ::
         :: gradient norm              0.000605608431 Eh/a0 ::
         :: HOMO-LUMO gap              0.094505943239 eV    ::
         :: SCC energy               -87.807517426534 Eh    ::
         :: -> Gsolv                  -0.104384456256 Eh    ::
         :: repulsion energy           0.814038242813 Eh    ::

    * Orbital Energies and Occupations

         #    Occupation            Energy/Eh            Energy/eV
      -------------------------------------------------------------
         1        2.0000           -0.8113317             -22.0775
       ...           ...                  ...                  ...
        59        2.0000           -0.4730262             -12.8717
        60        2.0000           -0.4550319             -12.3820
        61        2.0000           -0.4449465             -12.1076
        62        2.0000           -0.4417208             -12.0198
        63        2.0000           -0.4371378             -11.8951
        64        2.0000           -0.4301075             -11.7038
        65        2.0000           -0.4246312             -11.5548
        66        2.0000           -0.4178902             -11.3714
        67        2.0000           -0.4146621             -11.2835
        68        2.0000           -0.3999991             -10.8845
        69        2.0000           -0.3960235             -10.7763
        70        2.0000           -0.3907573             -10.6330
        71        1.7230           -0.3038479              -8.2681 (HOMO)
        72        0.2770           -0.3003748              -8.1736 (LUMO)
        73                         -0.2542528              -6.9186
        74                         -0.2119950              -5.7687
        75                         -0.2040034              -5.5512
        76                         -0.1629104              -4.4330
        77                         -0.1279804              -3.4825
        78                         -0.1275800              -3.4716
        79                         -0.1235520              -3.3620
        80                         -0.1220626              -3.3215
        81                         -0.1124040              -3.0587
        82                         -0.1066015              -2.9008
       ...                                ...                  ...
       144                          0.7277203              19.8023
      -------------------------------------------------------------
                  HL-Gap            0.0034730 Eh            0.0945 eV

Wiberg/Mayer (AO) data.
largest (>0.10) Wiberg bond orders for each atom

     #   Z sym  total        # sym  WBO       # sym  WBO       # sym  WBO
 ---------------------------------------------------------------------------
     1   6 C    3.890 --    29 H    0.987    27 H    0.980    28 H    0.980
                             2 O    0.918
     2   8 O    2.143 --     3 C    1.051     1 C    0.918     4 O    0.115
     3   6 C    3.780 --     4 O    1.594     5 C    1.066     2 O    1.051
     4   8 O    1.831 --     3 C    1.594     2 O    0.115
     5   6 C    3.872 --    25 C    1.386     6 N    1.178     3 C    1.066
     6   7 N    3.017 --     7 C    1.575     5 C    1.178
     7   6 C    3.905 --     6 N    1.575    21 N    1.148     8 C    0.980
     8   6 C    3.956 --    10 C    0.991     9 C    0.985     7 C    0.980
                            11 N    0.942
     9   6 C    3.993 --    31 H    0.987     8 C    0.985    32 H    0.982
                            30 H    0.981
    10   6 C    3.992 --     8 C    0.991    35 H    0.985    33 H    0.985
                            34 H    0.983
    11   7 N    3.058 --    12 C    0.986     8 C    0.942    36 H    0.934
    12   6 C    3.574 --    15 C    1.411    11 N    0.986    13 O    0.957
    13   8 O    2.014 --    12 C    0.957    14 C    0.927
    14   6 C    3.909 --    37 H    0.986    39 H    0.983    38 H    0.981
                            13 O    0.927
    15   6 C    3.860 --    12 C    1.411    16 N    1.321    20 O    0.972
    16   7 N    2.727 --    15 C    1.321    17 N    1.160
    17   7 N    2.981 --    18 C    1.662    16 N    1.160
    18   6 C    3.835 --    17 N    1.662    19 C    1.022    20 O    1.009
    19   6 C    3.994 --    18 C    1.022    41 H    0.986    42 H    0.973
                            40 H    0.972
    20   8 O    2.190 --    18 C    1.009    15 C    0.972
    21   7 N    3.426 --     7 C    1.148    23 C    1.092    22 C    0.935
                            24 O    0.115
    22   6 C    3.930 --    43 H    0.979    44 H    0.978    45 H    0.972
                            21 N    0.935
    23   6 C    3.868 --    24 O    1.491    25 C    1.151    21 N    1.092
    24   8 O    1.813 --    23 C    1.491    21 N    0.115
    25   6 C    3.802 --     5 C    1.386    23 C    1.151    26 O    1.062
    26   8 O    2.021 --    25 C    1.062    46 H    0.823
    27   1 H    1.011 --     1 C    0.980
    28   1 H    1.011 --     1 C    0.980
    29   1 H    1.014 --     1 C    0.987
    30   1 H    1.014 --     9 C    0.981
    31   1 H    1.005 --     9 C    0.987
    32   1 H    1.009 --     9 C    0.982
    33   1 H    1.012 --    10 C    0.985
    34   1 H    1.013 --    10 C    0.983
    35   1 H    1.015 --    10 C    0.985
    36   1 H    0.971 --    11 N    0.934
    37   1 H    1.018 --    14 C    0.986
    38   1 H    1.031 --    14 C    0.981
    39   1 H    1.013 --    14 C    0.983
    40   1 H    1.002 --    19 C    0.972
    41   1 H    1.005 --    19 C    0.986
    42   1 H    1.002 --    19 C    0.973
    43   1 H    1.005 --    22 C    0.979
    44   1 H    1.010 --    22 C    0.978
    45   1 H    1.029 --    22 C    0.972
    46   1 H    0.866 --    26 O    0.823
 ---------------------------------------------------------------------------

           -------------------------------------------------
          | TOTAL ENERGY              -87.022528205189 Eh   |
          | GRADIENT NORM               0.000605608431 Eh/α |
          | HOMO-LUMO GAP               0.094505943239 eV   |
           -------------------------------------------------

 * finished run on 2023/06/20 at 15:22:56.055
