   * xtb version 6.5.1 (579679a) compiled by 'ehlert@majestix' on 2022-07-11
          program call               : /lustre/hpc/kemi/ree/PhD/git/ReactivityQM/dep/xtb-6.5.1/bin/xtb --gfn 1 /lustre/hpc/kemi/ree/PhD/git/ReactivityQM/calculations/RaltegravirCLI/reac02prodE06/conf11/RaltegravirCLI_reac02prodE06_conf11_gfn1.xyz --opt --vfukui --chrg -1 --uhf 0 --alpb DMSO

   ID    Z sym.   atoms
    1    6 C      1, 3-6, 9, 10, 13-18, 20-22, 24
    2    7 N      2, 7, 8, 12
    3    8 O      11, 23, 25
    4    9 F      19
    5    1 H      26-47

      * Solvation model:               ALPB
        Solvent                        DMSO
        Solvent mass                       7.8130E+01 g/mol
          :  Hamiltonian                  GFN1-xTB          :
 * total energy  :   -80.1740624 Eh     change       -0.5712764E-11 Eh
 * total energy  :   -80.1807292 Eh     change       -0.6666750E-02 Eh
 * total energy  :   -80.1824041 Eh     change       -0.1674939E-02 Eh
 * total energy  :   -80.1827750 Eh     change       -0.3708676E-03 Eh
 * total energy  :   -80.1831121 Eh     change       -0.3370485E-03 Eh
 * total energy  :   -80.1833179 Eh     change       -0.2058558E-03 Eh
 * total energy  :   -80.1835198 Eh     change       -0.2019307E-03 Eh
 * total energy  :   -80.1837178 Eh     change       -0.1979889E-03 Eh
 * total energy  :   -80.1839628 Eh     change       -0.2449725E-03 Eh
 * total energy  :   -80.1842447 Eh     change       -0.2818541E-03 Eh
 * total energy  :   -80.1879554 Eh     change       -0.4037500E-04 Eh
 * total energy  :   -80.1879730 Eh     change       -0.1757340E-04 Eh
 * total energy  :   -80.1880033 Eh     change       -0.3033561E-04 Eh
 * total energy  :   -80.1880137 Eh     change       -0.1044825E-04 Eh
 * total energy  :   -80.1880229 Eh     change       -0.9124792E-05 Eh
 * total energy  :   -80.1880326 Eh     change       -0.9739730E-05 Eh
 * total energy  :   -80.1880390 Eh     change       -0.6357453E-05 Eh
 * total energy  :   -80.1880447 Eh     change       -0.5705958E-05 Eh
 * total energy  :   -80.1880495 Eh     change       -0.4873035E-05 Eh
   *** GEOMETRY OPTIMIZATION CONVERGED AFTER 77 ITERATIONS ***

 final structure:
================
47
 xtb: 6.5.1 (579679a)
C           -4.31099061248423       -0.75459252980748       -2.15576737550374
N           -3.06011227957471       -0.58755565535541       -1.42090407315702
C           -2.98893092844030       -0.13739456360601       -0.12102335212569
C           -4.23859463448410        0.18627199212330        0.69232896594951
C           -4.82072129113857       -1.12232127607799        1.24822664864108
C           -3.85178766202294        1.10330986174718        1.86549642559514
N           -5.24595105406434        0.84774354243164       -0.13359789022387
N           -1.86436781136792       -0.02076796075888        0.50319439115489
C           -0.66117012752066       -0.32839232043692       -0.08439622136967
C            0.50675979925629       -0.16415960982184        0.81228930216530
O            0.41185328858884        0.40347921846966        1.90945446067277
N            1.66973805676649       -0.71361626638101        0.38871104885818
C            2.89808044884702       -0.58050811183971        1.13478283796849
C            3.86597652238169        0.54482970879746        0.56655373173015
C            3.06796530230473        1.86882761919758        0.51328871464323
C            4.34206270247684        0.15667741775451       -0.81001181632292
C            5.62945710943373       -0.21663995140910       -1.07299073248421
C            6.59285556763105       -0.18002261941207       -0.06272519893569
F            7.88692438612818       -0.55189543945997       -0.35616351401572
C            6.29306269684312        0.28195711232126        1.21855275050198
C            5.01889173710093        0.66706805773872        1.53163368987436
C           -0.66981008866112       -0.74412307648069       -1.40114228568696
O            0.45950737430244       -1.04195659345720       -2.10934262089253
C           -1.89307123575509       -0.87759511390408       -2.13096900356673
O           -1.92352303131300       -1.24196752939384       -3.31677521172739
H           -4.68446633702427        0.21356206989521       -2.48873242801598
H           -4.11425771296787       -1.38534381323466       -3.02339023874108
H           -5.06133544694407       -1.22624254973581       -1.52795456044422
H           -5.66830012089180       -0.90178588827389        1.89556030184052
H           -5.16178863041857       -1.77355728856188        0.44531751276950
H           -4.06287396241646       -1.64897786465486        1.82814013141467
H           -4.74404530095727        1.35667149671789        2.43480209869802
H           -3.39974743054322        2.02095331422889        1.49065426855159
H           -3.13896887002776        0.60354779462817        2.52144301160538
H           -6.12759658281012        0.85308374601753        0.35799572085777
H           -4.98121896476928        1.81175289036165       -0.29102122326777
H            1.72599692006739       -1.14157426867380       -0.52092029091723
H            2.65520347686396       -0.34705335093682        2.17699406160962
H            3.43843213092023       -1.53085715679918        1.10184227375443
H            2.26748463300809        1.80379342353352       -0.22462541298327
H            3.73748166802547        2.68007907613946        0.22698533595234
H            2.63281576748371        2.09817136451988        1.48724112551698
H            3.59693958721136        0.14715905351414       -1.59917420870457
H            5.92106537299043       -0.52329133800234       -2.07279284708506
H            7.08678372933156        0.35663305637339        1.95559411169815
H            4.79000285183000        1.04919634939816        2.52145203829517
H            0.17828998680455       -1.31257402942068       -3.00231445413922

          :  Hamiltonian                  GFN1-xTB          :
         :: total energy             -80.188049536010 Eh    ::
         :: gradient norm              0.000258916180 Eh/a0 ::
         :: HOMO-LUMO gap              0.261283431510 eV    ::
         :: SCC energy               -81.044341208835 Eh    ::
         :: -> Gsolv                  -0.102565861686 Eh    ::
         :: repulsion energy           0.886919578110 Eh    ::

    * Orbital Energies and Occupations

         #    Occupation            Energy/Eh            Energy/eV
      -------------------------------------------------------------
         1        2.0000           -0.8011848             -21.8013
       ...           ...                  ...                  ...
        56        2.0000           -0.4560832             -12.4107
        57        2.0000           -0.4415326             -12.0147
        58        2.0000           -0.4406428             -11.9905
        59        2.0000           -0.4390517             -11.9472
        60        2.0000           -0.4308352             -11.7236
        61        2.0000           -0.4225660             -11.4986
        62        2.0000           -0.4162185             -11.3259
        63        2.0000           -0.4092797             -11.1371
        64        2.0000           -0.4044489             -11.0056
        65        2.0000           -0.4029052             -10.9636
        66        2.0000           -0.3950642             -10.7502
        67        2.0000           -0.3948120             -10.7434
        68        1.9873           -0.2978350              -8.1045 (HOMO)
        69        0.0127           -0.2882330              -7.8432 (LUMO)
        70                         -0.2500806              -6.8050
        71                         -0.2098549              -5.7104
        72                         -0.1996653              -5.4332
        73                         -0.1279458              -3.4816
        74                         -0.1260773              -3.4307
        75                         -0.1212955              -3.3006
        76                         -0.1159104              -3.1541
        77                         -0.1100358              -2.9942
        78                         -0.0929437              -2.5291
        79                         -0.0898539              -2.4450
       ...                                ...                  ...
       144                          0.7038790              19.1535
      -------------------------------------------------------------
                  HL-Gap            0.0096020 Eh            0.2613 eV

Wiberg/Mayer (AO) data.
largest (>0.10) Wiberg bond orders for each atom

     #   Z sym  total        # sym  WBO       # sym  WBO       # sym  WBO
 ---------------------------------------------------------------------------
     1   6 C    3.935 --    28 H    0.979    26 H    0.978    27 H    0.976
                             2 N    0.938
     2   7 N    3.425 --     3 C    1.151    24 C    1.087     1 C    0.938
                            25 O    0.113
     3   6 C    3.905 --     8 N    1.584     2 N    1.151     4 C    0.975
     4   6 C    3.966 --     6 C    0.990     5 C    0.984     7 N    0.982
                             3 C    0.975
     5   6 C    3.993 --    31 H    0.986     4 C    0.984    29 H    0.984
                            30 H    0.980
     6   6 C    3.995 --     4 C    0.990    32 H    0.987    33 H    0.985
                            34 H    0.983
     7   7 N    2.977 --     4 C    0.982    36 H    0.943    35 H    0.942
     8   7 N    3.024 --     3 C    1.584     9 C    1.177
     9   6 C    3.899 --    22 C    1.417     8 N    1.177    10 C    1.039
    10   6 C    3.899 --    11 O    1.505    12 N    1.235     9 C    1.039
    11   8 O    1.810 --    10 C    1.505    12 N    0.159
    12   7 N    3.359 --    10 C    1.235    13 C    0.966    37 H    0.899
                            11 O    0.159
    13   6 C    3.926 --    39 H    0.979    38 H    0.975    12 N    0.966
                            14 C    0.899
    14   6 C    3.983 --    16 C    1.023    21 C    1.021    15 C    0.978
                            13 C    0.899
    15   6 C    3.990 --    41 H    0.988    40 H    0.986    42 H    0.985
                            14 C    0.978
    16   6 C    3.911 --    17 C    1.600    14 C    1.023    43 H    0.974
    17   6 C    3.994 --    16 C    1.600    18 C    1.308    44 H    0.971
    18   6 C    3.653 --    20 C    1.318    17 C    1.308    19 F    0.858
    19   9 F    0.948 --    18 C    0.858
    20   6 C    3.993 --    21 C    1.589    18 C    1.318    45 H    0.971
    21   6 C    3.855 --    20 C    1.589    14 C    1.021    46 H    0.976
    22   6 C    3.854 --     9 C    1.417    24 C    1.161    23 O    1.035
    23   8 O    2.024 --    22 C    1.035    47 H    0.816
    24   6 C    3.870 --    25 O    1.485    22 C    1.161     2 N    1.087
    25   8 O    1.817 --    24 C    1.485     2 N    0.113
    26   1 H    1.020 --     1 C    0.978
    27   1 H    1.013 --     1 C    0.976
    28   1 H    1.022 --     1 C    0.979
    29   1 H    1.001 --     5 C    0.984
    30   1 H    1.006 --     5 C    0.980
    31   1 H    1.005 --     5 C    0.986
    32   1 H    1.005 --     6 C    0.987
    33   1 H    1.009 --     6 C    0.985
    34   1 H    1.018 --     6 C    0.983
    35   1 H    0.957 --     7 N    0.942
    36   1 H    0.960 --     7 N    0.943
    37   1 H    0.960 --    12 N    0.899
    38   1 H    1.021 --    13 C    0.975
    39   1 H    1.024 --    13 C    0.979
    40   1 H    1.010 --    15 C    0.986
    41   1 H    1.020 --    15 C    0.988
    42   1 H    1.013 --    15 C    0.985
    43   1 H    1.004 --    16 C    0.974
    44   1 H    1.006 --    17 C    0.971
    45   1 H    1.006 --    20 C    0.971
    46   1 H    1.003 --    21 C    0.976
    47   1 H    0.862 --    23 O    0.816
 ---------------------------------------------------------------------------

           -------------------------------------------------
          | TOTAL ENERGY              -80.188049536010 Eh   |
          | GRADIENT NORM               0.000258916180 Eh/α |
          | HOMO-LUMO GAP               0.261283431510 eV   |
           -------------------------------------------------

 * finished run on 2023/06/20 at 15:03:22.357
