   * xtb version 6.5.1 (579679a) compiled by 'ehlert@majestix' on 2022-07-11
          program call               : /lustre/hpc/kemi/ree/PhD/git/ReactivityQM/dep/xtb-6.5.1/bin/xtb --gfn 1 /lustre/hpc/kemi/ree/PhD/git/ReactivityQM/calculations/R02/reac01prodE05/conf02/R02_reac01prodE05_conf02_gfn1.xyz --opt --vfukui --chrg -1 --uhf 0 --alpb DMSO

   ID    Z sym.   atoms
    1    6 C      1, 3, 5, 6, 8, 11-14, 16, 18, 21, 22, 25
    2    8 O      2, 4, 7, 9, 17, 23
    3    7 N      10, 15, 19, 20, 24
    4    1 H      26-43

      * Solvation model:               ALPB
        Solvent                        DMSO
        Solvent mass                       7.8130E+01 g/mol
          :  Hamiltonian                  GFN1-xTB          :
 * total energy  :   -83.7955537 Eh     change       -0.5493064E-09 Eh
 * total energy  :   -83.8088920 Eh     change       -0.1333827E-01 Eh
 * total energy  :   -83.8165581 Eh     change       -0.7666144E-02 Eh
 * total energy  :   -83.8184006 Eh     change       -0.1842531E-02 Eh
 * total energy  :   -83.8204201 Eh     change       -0.2019482E-02 Eh
 * total energy  :   -83.8212526 Eh     change       -0.8324367E-03 Eh
 * total energy  :   -83.8219615 Eh     change       -0.7089388E-03 Eh
 * total energy  :   -83.8225673 Eh     change       -0.6057766E-03 Eh
 * total energy  :   -83.8230127 Eh     change       -0.4454228E-03 Eh
 * total energy  :   -83.8233589 Eh     change       -0.3462214E-03 Eh
 * total energy  :   -83.8242604 Eh     change       -0.4377757E-04 Eh
 * total energy  :   -83.8242729 Eh     change       -0.1253921E-04 Eh
 * total energy  :   -83.8243021 Eh     change       -0.2918270E-04 Eh
 * total energy  :   -83.8243110 Eh     change       -0.8947821E-05 Eh
 * total energy  :   -83.8243216 Eh     change       -0.1056290E-04 Eh
 * total energy  :   -83.8243305 Eh     change       -0.8887794E-05 Eh
 * total energy  :   -83.8243361 Eh     change       -0.5628595E-05 Eh
 * total energy  :   -83.8243431 Eh     change       -0.7009864E-05 Eh
 * total energy  :   -83.8243469 Eh     change       -0.3739728E-05 Eh
   *** GEOMETRY OPTIMIZATION CONVERGED AFTER 38 ITERATIONS ***

 final structure:
================
43
 xtb: 6.5.1 (579679a)
C           -5.74794545687386       -0.85677029830446        1.27434558129333
O           -4.36298815824697       -0.63701087742363        1.06305404597677
C           -4.02616240301005        0.68279804991144        0.72894042077812
O           -4.94868919894690        1.53026840432627        0.61002111970130
C           -2.67517030912435        0.95934161223441        0.57022806991364
C           -2.22421094156358        2.25092674043624        0.05896472533474
O           -3.01571762228342        3.36059142628027        0.30645319994770
C           -1.06840384982094        2.36060670249589       -0.66828458190784
O           -0.47511622862716        3.32493320414408       -1.21220223428686
N           -0.40762760791146        1.04245302961332       -0.83003582251041
C           -0.56188579930672       -0.00157379357315       -0.02805081058282
C            0.43689207145340       -1.14331611598015       -0.27171884921791
C           -0.21719837683886       -1.99490992470449       -1.37342007232687
C            0.83281598623160       -2.03233453385706        0.91245396404959
N            1.66551095539676       -0.49146187874350       -0.74219707105165
C            2.65127312505824       -1.16229441603593       -1.45202822860646
O            2.47388480880647       -2.20573686276803       -2.08497403932450
C            3.92047490952738       -0.45860738363885       -1.43708317259116
N            5.02643079682217       -0.77509558757545       -2.07858383605964
N            5.95275619971780        0.17235163463510       -1.75052025685005
C            5.37936106891535        1.00300615349024       -0.94011705118694
C            5.97713147217133        2.19961750253748       -0.30290896192225
O            4.09428432291015        0.67577284123820       -0.69233528848360
N           -1.64769274847521       -0.04813378971311        0.72485661154483
C           -1.79653545915408       -0.95046030361662        1.86359937631000
H           -6.32212148522169       -0.67115956137356        0.35839396450135
H           -6.13393613037668       -0.20656906659667        2.06818497956597
H           -5.86580867402639       -1.89970507882961        1.57073924873516
H           -3.91932269299671        3.01602303571428        0.50582127911200
H            0.42643715017995        1.07506506474058       -1.40136143839217
H           -1.23915072443240       -2.23197994141718       -1.07880238794698
H            0.32733469396011       -2.92588031526701       -1.51194414202497
H           -0.23513769887428       -1.44817458951566       -2.31503496435281
H            0.02076392485481       -2.68869340008615        1.21326121903782
H            1.66638940182355       -2.65846553909749        0.59347373423393
H            1.16168870495467       -1.43530536808019        1.76022286627201
H            2.03237197019407        0.16841878749001       -0.06945167881938
H            5.93725243967703        2.10468514487292        0.78252484662379
H            7.01266486219142        2.30168190124601       -0.61952721431356
H            5.42076301341601        3.09474656790098       -0.58374539747276
H           -2.11363351756876       -1.93952385507523        1.53411685338336
H           -2.55046092400248       -0.53985768769299        2.53120735583610
H           -0.86156487057937       -1.01516663434115        2.41346603808247

          :  Hamiltonian                  GFN1-xTB          :
         :: total energy             -83.824346863985 Eh    ::
         :: gradient norm              0.000680958257 Eh/a0 ::
         :: HOMO-LUMO gap              0.077712149537 eV    ::
         :: SCC energy               -84.577182989501 Eh    ::
         :: -> Gsolv                  -0.118735450929 Eh    ::
         :: repulsion energy           0.780135068606 Eh    ::

    * Orbital Energies and Occupations

         #    Occupation            Energy/Eh            Energy/eV
      -------------------------------------------------------------
         1        2.0000           -0.8352354             -22.7279
       ...           ...                  ...                  ...
        56        2.0000           -0.4700788             -12.7915
        57        2.0000           -0.4621704             -12.5763
        58        2.0000           -0.4547145             -12.3734
        59        2.0000           -0.4454422             -12.1211
        60        2.0000           -0.4415805             -12.0160
        61        2.0000           -0.4351002             -11.8397
        62        2.0000           -0.4337875             -11.8040
        63        2.0000           -0.4278496             -11.6424
        64        2.0000           -0.4229404             -11.5088
        65        2.0000           -0.4144997             -11.2791
        66        2.0000           -0.3952007             -10.7540
        67        2.0000           -0.3744360             -10.1889
        68        1.6360           -0.2959238              -8.0525 (HOMO)
        69        0.3640           -0.2930679              -7.9748 (LUMO)
        70                         -0.2697885              -7.3413
        71                         -0.2343711              -6.3776
        72                         -0.1757845              -4.7833
        73                         -0.1733735              -4.7177
        74                         -0.1373168              -3.7366
        75                         -0.1331738              -3.6238
        76                         -0.1190085              -3.2384
        77                         -0.1166894              -3.1753
        78                         -0.1128969              -3.0721
        79                         -0.1056969              -2.8762
       ...                                ...                  ...
       136                          0.7339334              19.9713
      -------------------------------------------------------------
                  HL-Gap            0.0028559 Eh            0.0777 eV

Wiberg/Mayer (AO) data.
largest (>0.10) Wiberg bond orders for each atom

     #   Z sym  total        # sym  WBO       # sym  WBO       # sym  WBO
 ---------------------------------------------------------------------------
     1   6 C    3.907 --    28 H    0.987    26 H    0.981    27 H    0.981
                             2 O    0.936
     2   8 O    2.068 --     3 C    0.939     1 C    0.936
     3   6 C    3.824 --     4 O    1.389     5 C    1.384     2 O    0.939
     4   8 O    1.750 --     3 C    1.389     5 C    0.124
     5   6 C    3.690 --     3 C    1.384     6 C    1.088    24 N    0.928
                             4 O    0.124
     6   6 C    3.754 --     8 C    1.432     5 C    1.088     7 O    1.005
                             9 O    0.138
     7   8 O    1.936 --     6 C    1.005    29 H    0.804
     8   6 C    3.813 --     6 C    1.432     9 O    1.395    10 N    0.849
     9   8 O    1.663 --     8 C    1.395     6 C    0.138
    10   7 N    3.399 --    11 C    1.353    30 H    0.890     8 C    0.849
                            24 N    0.146
    11   6 C    3.928 --    24 N    1.396    10 N    1.353    12 C    0.967
    12   6 C    3.944 --    14 C    0.991    13 C    0.977    11 C    0.967
                            15 N    0.943
    13   6 C    3.989 --    31 H    0.985    33 H    0.984    12 C    0.977
                            32 H    0.977
    14   6 C    3.989 --    12 C    0.991    34 H    0.981    36 H    0.981
                            35 H    0.979
    15   7 N    3.210 --    16 C    1.124    12 C    0.943    37 H    0.907
                            17 O    0.129
    16   6 C    3.794 --    17 O    1.523    15 N    1.124    18 C    1.077
    17   8 O    1.784 --    16 C    1.523    15 N    0.129
    18   6 C    3.766 --    19 N    1.501    16 C    1.077    23 O    1.004
    19   7 N    2.835 --    18 C    1.501    20 N    1.193
    20   7 N    2.980 --    21 C    1.620    19 N    1.193
    21   6 C    3.834 --    20 N    1.620    23 O    1.058    22 C    1.028
    22   6 C    3.991 --    21 C    1.028    39 H    0.984    40 H    0.967
                            38 H    0.967
    23   8 O    2.242 --    21 C    1.058    18 C    1.004
    24   7 N    3.493 --    11 C    1.396    25 C    0.937     5 C    0.928
                            10 N    0.146
    25   6 C    3.940 --    43 H    0.980    42 H    0.979    41 H    0.978
                            24 N    0.937
    26   1 H    1.018 --     1 C    0.981
    27   1 H    1.018 --     1 C    0.981
    28   1 H    1.017 --     1 C    0.987
    29   1 H    0.893 --     7 O    0.804
    30   1 H    0.959 --    10 N    0.890
    31   1 H    1.004 --    13 C    0.985
    32   1 H    1.017 --    13 C    0.977
    33   1 H    1.006 --    13 C    0.984
    34   1 H    1.004 --    14 C    0.981
    35   1 H    1.002 --    14 C    0.979
    36   1 H    1.003 --    14 C    0.981
    37   1 H    0.950 --    15 N    0.907
    38   1 H    0.998 --    22 C    0.967
    39   1 H    1.001 --    22 C    0.984
    40   1 H    0.998 --    22 C    0.967
    41   1 H    1.014 --    25 C    0.978
    42   1 H    1.017 --    25 C    0.979
    43   1 H    1.007 --    25 C    0.980
 ---------------------------------------------------------------------------

           -------------------------------------------------
          | TOTAL ENERGY              -83.824346863985 Eh   |
          | GRADIENT NORM               0.000680958257 Eh/α |
          | HOMO-LUMO GAP               0.077712149537 eV   |
           -------------------------------------------------

 * finished run on 2023/06/20 at 14:58:12.870
