   * xtb version 6.5.1 (579679a) compiled by 'ehlert@majestix' on 2022-07-11
          program call               : /lustre/hpc/kemi/ree/PhD/git/ReactivityQM/dep/xtb-6.5.1/bin/xtb --gfn 1 /lustre/hpc/kemi/ree/PhD/git/ReactivityQM/calculations/R02deprot/reac01prodE11/conf10/R02deprot_reac01prodE11_conf10_gfn1.xyz --opt --vfukui --chrg -2 --uhf 0 --alpb DMSO

   ID    Z sym.   atoms
    1    6 C      1, 3, 5, 7-10, 12, 14, 17-19, 22, 24
    2    8 O      2, 4, 13, 20, 23, 25
    3    7 N      6, 11, 15, 16, 21
    4    1 H      26-42

      * Solvation model:               ALPB
        Solvent                        DMSO
        Solvent mass                       7.8130E+01 g/mol
          :  Hamiltonian                  GFN1-xTB          :
 * total energy  :   -83.6352624 Eh     change       -0.5030643E-11 Eh
 * total energy  :   -83.6471546 Eh     change       -0.1189222E-01 Eh
 * total energy  :   -83.6508240 Eh     change       -0.3669419E-02 Eh
 * total energy  :   -83.6513123 Eh     change       -0.4882529E-03 Eh
 * total energy  :   -83.6516143 Eh     change       -0.3020105E-03 Eh
 * total energy  :   -83.6517450 Eh     change       -0.1306994E-03 Eh
 * total energy  :   -83.6518636 Eh     change       -0.1186304E-03 Eh
 * total energy  :   -83.6519583 Eh     change       -0.9466988E-04 Eh
 * total energy  :   -83.6520326 Eh     change       -0.7429303E-04 Eh
 * total energy  :   -83.6520889 Eh     change       -0.5626921E-04 Eh
 * total energy  :   -83.6522282 Eh     change       -0.3643814E-04 Eh
 * total energy  :   -83.6522578 Eh     change       -0.2964747E-04 Eh
 * total energy  :   -83.6522815 Eh     change       -0.2373633E-04 Eh
 * total energy  :   -83.6523020 Eh     change       -0.2046390E-04 Eh
 * total energy  :   -83.6523204 Eh     change       -0.1844021E-04 Eh
 * total energy  :   -83.6523365 Eh     change       -0.1607673E-04 Eh
 * total energy  :   -83.6523503 Eh     change       -0.1380061E-04 Eh
 * total energy  :   -83.6523622 Eh     change       -0.1185446E-04 Eh
 * total energy  :   -83.6523668 Eh     change       -0.4635715E-05 Eh
   *** GEOMETRY OPTIMIZATION CONVERGED AFTER 22 ITERATIONS ***

 final structure:
================
42
 xtb: 6.5.1 (579679a)
C           -6.78596080331281       -0.94125044246839       -1.34566392970784
O           -5.53450451317133       -1.19148630096927       -0.70572042717101
C           -4.62857002054370       -0.18554578916941       -0.77797731226176
O           -4.89345456861779        0.85365658078593       -1.34867953626411
C           -3.33993748382249       -0.48380255303503       -0.12312628741602
N           -2.43991286219486        0.54228431363559       -0.22125115602329
C           -1.24999585143248        0.36166827848840        0.31089128656569
C           -0.26817070767195        1.53106634811337        0.24902317017072
C           -0.70567131132416        2.53915623318948       -0.82034608523088
C           -0.26455706070901        2.18725887907134        1.64502151197619
N            1.04322559780437        0.98289585705392       -0.07821986312254
C            2.19658328821827        1.75594321334750       -0.06560263451108
O            2.16013107284244        3.00748068445446       -0.01977595796795
C            3.40212896357061        1.01453921889060       -0.17278446897868
N            4.63027018590996        1.50226857140296       -0.22880609883122
N            5.51477032621299        0.54980331184868       -0.33974699717819
C            4.78513848370487       -0.72829464019378       -0.36065983524433
C            5.23104134580858       -1.59912135593303        0.82735985025748
C            5.05005512648616       -1.45552725401727       -1.69159929723775
O            3.40877280070692       -0.39662631793716       -0.24513667718028
N           -0.81894460161306       -0.72377883856958        0.94673271655346
C           -1.64885762292919       -1.78793600104858        1.10802723776963
O           -1.29710026080449       -2.81971372432846        1.70662475706575
C           -2.99893505372226       -1.64602797907648        0.53052366090573
O           -3.81266509312754       -2.72048161226088        0.70002538645843
H           -7.40441983100412       -1.82192475990871       -1.18984800168862
H           -7.26648196360394       -0.06278723432362       -0.90732900139794
H           -6.63635585379172       -0.77227829820891       -2.41533461280385
H           -1.72427530984303        2.86884766766169       -0.61750195521027
H           -0.04789043173900        3.40708991904551       -0.82512857124232
H           -0.68214699243955        2.06915431234256       -1.80403454129159
H           -1.27122554898541        2.52361332839924        1.89219983917548
H            0.40790277434271        3.04395332380502        1.66869100333540
H            0.05508367832614        1.45954796933922        2.39139781586013
H            1.15748473095348        0.00430168812358        0.16828199270458
H            6.29896452386205       -1.79368768669146        0.75409670492767
H            5.03049005837757       -1.07023918842822        1.75795135392350
H            4.69225773957551       -2.54525298506725        0.83033907119340
H            4.71441078644722       -0.83078338329480       -2.51783699337699
H            6.11666063078924       -1.64096318690971       -1.79938886136977
H            4.51463833035561       -2.40311109295312       -1.72207805803738
H           -4.68997769789131       -2.58391207420555        0.31464980190256

          :  Hamiltonian                  GFN1-xTB          :
         :: total energy             -83.652366811361 Eh    ::
         :: gradient norm              0.000368007278 Eh/a0 ::
         :: HOMO-LUMO gap              0.891434760598 eV    ::
         :: SCC energy               -84.383627023657 Eh    ::
         :: -> Gsolv                  -0.268008049677 Eh    ::
         :: repulsion energy           0.756547141122 Eh    ::

    * Orbital Energies and Occupations

         #    Occupation            Energy/Eh            Energy/eV
      -------------------------------------------------------------
         1        2.0000           -0.8151041             -22.1801
       ...           ...                  ...                  ...
        56        2.0000           -0.4453394             -12.1183
        57        2.0000           -0.4391975             -11.9512
        58        2.0000           -0.4230491             -11.5118
        59        2.0000           -0.4202638             -11.4360
        60        2.0000           -0.4089739             -11.1287
        61        2.0000           -0.4022209             -10.9450
        62        2.0000           -0.3904981             -10.6260
        63        2.0000           -0.3862069             -10.5092
        64        2.0000           -0.3781966             -10.2913
        65        2.0000           -0.3606194              -9.8130
        66        2.0000           -0.3591382              -9.7726
        67        2.0000           -0.3586202              -9.7586
        68        2.0000           -0.3041423              -8.2761 (HOMO)
        69                         -0.2713827              -7.3847 (LUMO)
        70                         -0.2257203              -6.1422
        71                         -0.2137839              -5.8174
        72                         -0.1817968              -4.9469
        73                         -0.1248631              -3.3977
        74                         -0.1148573              -3.1254
        75                         -0.1001207              -2.7244
        76                         -0.0962554              -2.6192
        77                         -0.0940193              -2.5584
        78                         -0.0907870              -2.4704
        79                         -0.0862966              -2.3483
       ...                                ...                  ...
       134                          0.7426491              20.2085
      -------------------------------------------------------------
                  HL-Gap            0.0327596 Eh            0.8914 eV

Wiberg/Mayer (AO) data.
largest (>0.10) Wiberg bond orders for each atom

     #   Z sym  total        # sym  WBO       # sym  WBO       # sym  WBO
 ---------------------------------------------------------------------------
     1   6 C    3.881 --    26 H    0.987    28 H    0.981    27 H    0.981
                             2 O    0.904
     2   8 O    2.180 --     3 C    1.051     1 C    0.904     4 O    0.117
     3   6 C    3.830 --     4 O    1.641     2 O    1.051     5 C    1.039
     4   8 O    1.903 --     3 C    1.641     2 O    0.117
     5   6 C    3.962 --    24 C    1.469     6 N    1.204     3 C    1.039
     6   7 N    2.993 --     7 C    1.456     5 C    1.204
     7   6 C    3.953 --     6 N    1.456    21 N    1.371     8 C    0.970
     8   6 C    3.955 --     9 C    0.997    10 C    0.975     7 C    0.970
                            11 N    0.949
     9   6 C    3.995 --     8 C    0.997    31 H    0.987    29 H    0.986
                            30 H    0.983
    10   6 C    3.994 --    32 H    0.988    34 H    0.986    33 H    0.982
                             8 C    0.975
    11   7 N    3.231 --    12 C    1.118     8 C    0.949    35 H    0.906
                            13 O    0.111
    12   6 C    3.926 --    13 O    1.436    14 C    1.203    11 N    1.118
    13   8 O    1.772 --    12 C    1.436    11 N    0.111
    14   6 C    3.843 --    15 N    1.421    12 C    1.203    20 O    0.921
                            16 N    0.167
    15   7 N    3.022 --    16 N    1.442    14 C    1.421
    16   7 N    2.857 --    15 N    1.442    17 C    0.983    14 C    0.167
    17   6 C    3.901 --    16 N    0.983    18 C    0.977    19 C    0.976
                            20 O    0.926
    18   6 C    3.994 --    36 H    0.988    38 H    0.987    37 H    0.986
                            17 C    0.977
    19   6 C    3.994 --    40 H    0.988    41 H    0.987    39 H    0.986
                            17 C    0.976
    20   8 O    2.051 --    17 C    0.926    14 C    0.921
    21   7 N    2.991 --     7 C    1.371    22 C    1.238    23 O    0.126
    22   6 C    3.931 --    23 O    1.492    21 N    1.238    24 C    1.069
    23   8 O    1.778 --    22 C    1.492    21 N    0.126
    24   6 C    3.899 --     5 C    1.469    22 C    1.069    25 O    1.055
    25   8 O    2.043 --    24 C    1.055    42 H    0.827
    26   1 H    1.012 --     1 C    0.987
    27   1 H    1.011 --     1 C    0.981
    28   1 H    1.011 --     1 C    0.981
    29   1 H    1.023 --     9 C    0.986
    30   1 H    1.024 --     9 C    0.983
    31   1 H    1.014 --     9 C    0.987
    32   1 H    1.008 --    10 C    0.988
    33   1 H    1.019 --    10 C    0.982
    34   1 H    1.013 --    10 C    0.986
    35   1 H    0.984 --    11 N    0.906
    36   1 H    1.012 --    18 C    0.988
    37   1 H    1.016 --    18 C    0.986
    38   1 H    1.009 --    18 C    0.987
    39   1 H    1.016 --    19 C    0.986
    40   1 H    1.012 --    19 C    0.988
    41   1 H    1.009 --    19 C    0.987
    42   1 H    0.878 --    25 O    0.827
 ---------------------------------------------------------------------------

           -------------------------------------------------
          | TOTAL ENERGY              -83.652366811361 Eh   |
          | GRADIENT NORM               0.000368007278 Eh/α |
          | HOMO-LUMO GAP               0.891434760598 eV   |
           -------------------------------------------------

 * finished run on 2023/06/20 at 17:55:17.125
