   * xtb version 6.5.1 (579679a) compiled by 'ehlert@majestix' on 2022-07-11
          program call               : /lustre/hpc/kemi/ree/PhD/git/ReactivityQM/dep/xtb-6.5.1/bin/xtb --gfn 1 /lustre/hpc/kemi/ree/PhD/git/ReactivityQM/calculations/R02deprot/reac01prodE10/conf03/R02deprot_reac01prodE10_conf03_gfn1.xyz --opt --vfukui --chrg -2 --uhf 0 --alpb DMSO

   ID    Z sym.   atoms
    1    6 C      1, 3, 5, 7-10, 12, 14, 17-19, 22, 24
    2    8 O      2, 4, 13, 20, 23, 25
    3    7 N      6, 11, 15, 16, 21
    4    1 H      26-42

      * Solvation model:               ALPB
        Solvent                        DMSO
        Solvent mass                       7.8130E+01 g/mol
          :  Hamiltonian                  GFN1-xTB          :
 * total energy  :   -83.5484646 Eh     change       -0.1110720E-09 Eh
 * total energy  :   -83.5632782 Eh     change       -0.1481357E-01 Eh
 * total energy  :   -83.5691259 Eh     change       -0.5847705E-02 Eh
 * total energy  :   -83.5698526 Eh     change       -0.7267339E-03 Eh
 * total energy  :   -83.5703309 Eh     change       -0.4782748E-03 Eh
 * total energy  :   -83.5704833 Eh     change       -0.1523758E-03 Eh
 * total energy  :   -83.5706189 Eh     change       -0.1356494E-03 Eh
 * total energy  :   -83.5706991 Eh     change       -0.8016975E-04 Eh
 * total energy  :   -83.5707629 Eh     change       -0.6378507E-04 Eh
 * total energy  :   -83.5708199 Eh     change       -0.5701738E-04 Eh
 * total energy  :   -83.5710247 Eh     change       -0.5372405E-04 Eh
 * total energy  :   -83.5710759 Eh     change       -0.5117202E-04 Eh
 * total energy  :   -83.5711190 Eh     change       -0.4312844E-04 Eh
 * total energy  :   -83.5711687 Eh     change       -0.4964846E-04 Eh
 * total energy  :   -83.5712031 Eh     change       -0.3445523E-04 Eh
 * total energy  :   -83.5712351 Eh     change       -0.3200414E-04 Eh
 * total energy  :   -83.5712607 Eh     change       -0.2562323E-04 Eh
 * total energy  :   -83.5712766 Eh     change       -0.1586687E-04 Eh
 * total energy  :   -83.5712810 Eh     change       -0.4377901E-05 Eh
   *** GEOMETRY OPTIMIZATION CONVERGED AFTER 22 ITERATIONS ***

 final structure:
================
42
 xtb: 6.5.1 (579679a)
C            7.13522482826093        0.87448039498770       -1.05959614217812
O            5.85013697660427        1.19568324072126       -0.54303591706882
C            4.89200162021498        0.21573981821801       -0.69643101729335
O            5.18364351497374       -0.84279008786955       -1.24826004630624
C            3.58284773751084        0.56426350760365       -0.16022330240824
N            2.65072843301864       -0.43917346117686       -0.29031417650365
C            1.43738218089095       -0.21129284574518        0.16351154540312
C            0.41914359478290       -1.35227643090054        0.06327191957894
C            0.31078177346307       -1.96728909095820        1.47653408974180
C            0.90061875396589       -2.40364579745963       -0.94486453533432
N           -0.84739230520919       -0.76863702090744       -0.38196901609148
C           -2.04824203838979       -1.55701540094433       -0.27315406778834
O           -2.00336800938956       -2.83472760949772       -0.31157922582895
C           -3.21153644138135       -0.82461115106191       -0.22029794590214
N           -4.53037113292912       -1.30147735386835       -0.14682388277317
N           -5.26140942051125       -0.20077410631109       -0.06952881516292
C           -6.69591740106609       -0.31839221617496        0.01681399006804
C           -4.56691663746409        0.92064123876555       -0.07400432932028
C           -5.08400672617079        2.31134307913853       -0.05074923902851
O           -3.23301801925479        0.63663558903600       -0.18314589005609
N            1.00034689308365        0.89946255284845        0.75389984070175
C            1.85377528365517        1.95030019142855        0.92787602251631
O            1.48279803288135        3.01051617521482        1.48018263830698
C            3.21685659238521        1.76240977096989        0.43748145692550
O            4.05524139302140        2.83330779654388        0.61362876658615
H            7.08703321459194        0.70761301477125       -2.14046697644111
H            7.78701013142721        1.72008844403424       -0.84742809992338
H            7.53131470753979       -0.02626081230868       -0.57987432347792
H            1.29427676998190       -2.30611276761366        1.80442488621335
H           -0.05043145771804       -1.21419650445662        2.17826281544271
H           -0.37140668301519       -2.81712885338541        1.48269592224203
H            0.94526316363836       -1.96424060404240       -1.94277563613067
H            0.22480143471190       -3.25796054629829       -0.96647135694498
H            1.89825997406638       -2.74998531532267       -0.67268593214104
H           -0.97404906781050        0.14984053130319        0.04683407211632
H           -6.94970891355651       -1.37493022998405       -0.02762113997033
H           -7.16128024670659        0.21024588124308       -0.81402467391020
H           -7.04875371929030        0.10817737633092        0.95500258260309
H           -4.25888574723346        2.99864052174717        0.12810112745636
H           -5.55891250401500        2.57762347389944       -0.99880163368896
H           -5.82784766353147        2.43593810618013        0.73678257137031
H            4.94396712996483        2.64996750130744        0.27613207440579

          :  Hamiltonian                  GFN1-xTB          :
         :: total energy             -83.571280989048 Eh    ::
         :: gradient norm              0.000418042755 Eh/a0 ::
         :: HOMO-LUMO gap              0.095819770036 eV    ::
         :: SCC energy               -84.298433965747 Eh    ::
         :: -> Gsolv                  -0.297171142483 Eh    ::
         :: repulsion energy           0.752061195963 Eh    ::

    * Orbital Energies and Occupations

         #    Occupation            Energy/Eh            Energy/eV
      -------------------------------------------------------------
         1        2.0000           -0.8082118             -21.9926
       ...           ...                  ...                  ...
        56        2.0000           -0.4379488             -11.9172
        57        2.0000           -0.4322337             -11.7617
        58        2.0000           -0.4244340             -11.5494
        59        2.0000           -0.4126214             -11.2280
        60        2.0000           -0.4026083             -10.9555
        61        2.0000           -0.3903245             -10.6213
        62        2.0000           -0.3795654             -10.3285
        63        2.0000           -0.3704525             -10.0805
        64        2.0000           -0.3653387              -9.9414
        65        2.0000           -0.3498538              -9.5200
        66        2.0000           -0.3426155              -9.3230
        67        2.0000           -0.3419399              -9.3047
        68        1.7290           -0.2597132              -7.0672 (HOMO)
        69        0.2710           -0.2561919              -6.9713 (LUMO)
        70                         -0.2299549              -6.2574
        71                         -0.1959315              -5.3316
        72                         -0.1635895              -4.4515
        73                         -0.1420415              -3.8651
        74                         -0.1260219              -3.4292
        75                         -0.1170001              -3.1837
        76                         -0.1094099              -2.9772
        77                         -0.0842881              -2.2936
        78                         -0.0839117              -2.2834
        79                         -0.0773580              -2.1050
       ...                                ...                  ...
       134                          0.7245255              19.7153
      -------------------------------------------------------------
                  HL-Gap            0.0035213 Eh            0.0958 eV

Wiberg/Mayer (AO) data.
largest (>0.10) Wiberg bond orders for each atom

     #   Z sym  total        # sym  WBO       # sym  WBO       # sym  WBO
 ---------------------------------------------------------------------------
     1   6 C    3.896 --    27 H    0.987    26 H    0.981    28 H    0.981
                             2 O    0.921
     2   8 O    2.125 --     3 C    0.993     1 C    0.921     4 O    0.100
     3   6 C    3.721 --     4 O    1.562     5 C    1.094     2 O    0.993
     4   8 O    1.794 --     3 C    1.562     2 O    0.100
     5   6 C    3.921 --    24 C    1.409     6 N    1.184     3 C    1.094
     6   7 N    2.961 --     7 C    1.464     5 C    1.184
     7   6 C    3.952 --     6 N    1.464    21 N    1.366     8 C    0.967
     8   6 C    3.962 --    10 C    0.998     9 C    0.974     7 C    0.967
                            11 N    0.963
     9   6 C    3.994 --    29 H    0.988    30 H    0.987    31 H    0.982
                             8 C    0.974
    10   6 C    3.996 --     8 C    0.998    32 H    0.987    34 H    0.986
                            33 H    0.982
    11   7 N    3.074 --    12 C    0.987     8 C    0.963    35 H    0.926
    12   6 C    3.872 --    14 C    1.427    13 O    1.319    11 N    0.987
    13   8 O    1.625 --    12 C    1.319    14 C    0.122
    14   6 C    3.616 --    12 C    1.427    15 N    1.116    20 O    0.843
                            13 O    0.122
    15   7 N    2.736 --    16 N    1.190    14 C    1.116    18 C    0.284
    16   7 N    3.632 --    18 C    1.362    15 N    1.190    17 C    0.950
    17   6 C    3.952 --    36 H    0.985    37 H    0.982    38 H    0.980
                            16 N    0.950
    18   6 C    3.804 --    16 N    1.362    20 O    1.031    19 C    1.026
                            15 N    0.284
    19   6 C    3.993 --    18 C    1.026    39 H    0.982    41 H    0.976
                            40 H    0.968
    20   8 O    2.070 --    18 C    1.031    14 C    0.843
    21   7 N    2.942 --     7 C    1.366    22 C    1.219    23 O    0.117
    22   6 C    3.916 --    23 O    1.458    21 N    1.219    24 C    1.113
    23   8 O    1.731 --    22 C    1.458    21 N    0.117
    24   6 C    3.800 --     5 C    1.409    22 C    1.113    25 O    1.027
    25   8 O    1.998 --    24 C    1.027    42 H    0.833
    26   1 H    1.014 --     1 C    0.981
    27   1 H    1.015 --     1 C    0.987
    28   1 H    1.014 --     1 C    0.981
    29   1 H    1.010 --     9 C    0.988
    30   1 H    1.015 --     9 C    0.987
    31   1 H    1.025 --     9 C    0.982
    32   1 H    1.018 --    10 C    0.987
    33   1 H    1.033 --    10 C    0.982
    34   1 H    1.026 --    10 C    0.986
    35   1 H    0.999 --    11 N    0.926
    36   1 H    1.013 --    17 C    0.985
    37   1 H    1.002 --    17 C    0.982
    38   1 H    1.002 --    17 C    0.980
    39   1 H    1.002 --    19 C    0.982
    40   1 H    1.001 --    19 C    0.968
    41   1 H    1.002 --    19 C    0.976
    42   1 H    0.888 --    25 O    0.833
 ---------------------------------------------------------------------------

           -------------------------------------------------
          | TOTAL ENERGY              -83.571280989048 Eh   |
          | GRADIENT NORM               0.000418042755 Eh/α |
          | HOMO-LUMO GAP               0.095819770036 eV   |
           -------------------------------------------------

 * finished run on 2023/06/20 at 17:54:54.986
