   * xtb version 6.5.1 (579679a) compiled by 'ehlert@majestix' on 2022-07-11
          program call               : /lustre/hpc/kemi/ree/PhD/git/ReactivityQM/dep/xtb-6.5.1/bin/xtb --gfn 1 /lustre/hpc/kemi/ree/PhD/git/ReactivityQM/calculations/R02methylcation/reac01prodE08/conf11/R02methylcation_reac01prodE08_conf11_gfn1.xyz --opt --vfukui --chrg -2 --uhf 0 --alpb DMSO

   ID    Z sym.   atoms
    1    6 C      1, 3, 5, 7-10, 12, 14, 15, 18, 19, 22, 24
    2    8 O      2, 4, 13, 20, 23, 25
    3    7 N      6, 11, 16, 17, 21
    4    1 H      26-42

      * Solvation model:               ALPB
        Solvent                        DMSO
        Solvent mass                       7.8130E+01 g/mol
          :  Hamiltonian                  GFN1-xTB          :
 * total energy  :   -83.6219671 Eh     change       -0.2226187E-08 Eh
 * total energy  :   -83.6355941 Eh     change       -0.1362698E-01 Eh
 * total energy  :   -83.6405603 Eh     change       -0.4966240E-02 Eh
 * total energy  :   -83.6416359 Eh     change       -0.1075533E-02 Eh
 * total energy  :   -83.6425998 Eh     change       -0.9638826E-03 Eh
 * total energy  :   -83.6431338 Eh     change       -0.5340184E-03 Eh
 * total energy  :   -83.6435974 Eh     change       -0.4636698E-03 Eh
 * total energy  :   -83.6440349 Eh     change       -0.4374407E-03 Eh
 * total energy  :   -83.6446183 Eh     change       -0.5834379E-03 Eh
 * total energy  :   -83.6458491 Eh     change       -0.1230761E-02 Eh
 * total energy  :   -83.6735994 Eh     change       -0.9753086E-05 Eh
 * total energy  :   -83.6736085 Eh     change       -0.9170657E-05 Eh
 * total energy  :   -83.6736170 Eh     change       -0.8402647E-05 Eh
 * total energy  :   -83.6736247 Eh     change       -0.7797411E-05 Eh
 * total energy  :   -83.6736320 Eh     change       -0.7289000E-05 Eh
 * total energy  :   -83.6736392 Eh     change       -0.7173982E-05 Eh
 * total energy  :   -83.6736465 Eh     change       -0.7297808E-05 Eh
 * total energy  :   -83.6736541 Eh     change       -0.7579053E-05 Eh
 * total energy  :   -83.6736578 Eh     change       -0.3710012E-05 Eh
   *** GEOMETRY OPTIMIZATION CONVERGED AFTER 68 ITERATIONS ***

 final structure:
================
42
 xtb: 6.5.1 (579679a)
C            6.42237817666981       -0.49151794564266       -0.21286602250112
O            5.04002806178134       -0.30435826342103        0.03717127152156
C            4.66421419351173       -0.35710623607085        1.35903304325482
O            5.51140988445844       -0.54166537818163        2.22370560640472
C            3.23745367932317       -0.18642564670876        1.53912661449770
N            2.51417096531525        0.01719364657755        0.37242280805619
C            1.23755118758770        0.13836365105176        0.41989724287601
C            0.40644169852539        0.41472459249752       -0.82441467720472
C            0.41472931691824        1.94407436805542       -1.03778286768479
C            1.06449103828447       -0.28898713957382       -2.02323459083932
N           -0.93893205863840       -0.08827226339859       -0.55861277932623
C           -1.84300534628792        0.05550755558549       -1.48838430509608
O           -1.77360922815432        0.58772950046519       -2.62173092004353
C           -3.21678404591698       -0.59668868276993       -1.08585391431287
C           -3.90020696689870       -1.20810616959047       -2.30996913410252
N           -3.04816590972247       -1.61422358977727       -0.03274493304390
N           -3.82561469589527       -1.17417783369745        1.08133494442586
C           -4.38450842351424       -0.08577258384867        0.73882116492582
C           -5.32563077401322        0.70048129854687        1.58154652229521
O           -4.10124677363997        0.37741111659448       -0.49771223788341
N            0.54929196083336        0.08197154343297        1.60950530276163
C            1.12597644584663       -0.09739095764793        2.83002979281024
O            0.42918961441227       -0.14336570985308        3.84818871886166
C            2.63149416327910       -0.23952273336148        2.82230931392019
O            3.22537229259221       -0.39992379504957        3.90935528242546
H            7.01926601932636        0.28256781446437        0.28115732312531
H            6.56543585265679       -0.42923542454735       -1.29112880813831
H            6.75590410423542       -1.47177008240428        0.14481266827240
H           -0.11355411162727        2.20302040088043       -1.95429386645342
H           -0.07082975688764        2.43948861878132       -0.19669236546242
H            1.44280005109711        2.30087045653619       -1.11028325972533
H            2.11193318193066        0.00798816335936       -2.09240220072291
H            1.01557489395820       -1.37063356697815       -1.89278707049506
H            0.55853859029692       -0.02021015359114       -2.94927167804077
H           -2.06689454796049       -1.58850075780103        0.28807324616757
H           -3.99805825809219       -0.45213035958097       -3.08789716344431
H           -4.88664396110377       -1.58183733144827       -2.04143493534232
H           -3.29518439205059       -2.03156954877926       -2.68514201195775
H           -6.30453874009353        0.74129074644693        1.10470867020990
H           -4.96531818775699        1.72230898625075        1.69581564422344
H           -5.42197626210656        0.23525056702869        2.55961171015625
H           -0.46294193245847        0.13662112716762        1.54801185063354

          :  Hamiltonian                  GFN1-xTB          :
         :: total energy             -83.673657797616 Eh    ::
         :: gradient norm              0.000190188104 Eh/a0 ::
         :: HOMO-LUMO gap              2.444554653156 eV    ::
         :: SCC energy               -84.413312788785 Eh    ::
         :: -> Gsolv                  -0.260919038878 Eh    ::
         :: repulsion energy           0.765983593409 Eh    ::

    * Orbital Energies and Occupations

         #    Occupation            Energy/Eh            Energy/eV
      -------------------------------------------------------------
         1        2.0000           -0.7894166             -21.4811
       ...           ...                  ...                  ...
        56        2.0000           -0.4474699             -12.1763
        57        2.0000           -0.4399775             -11.9724
        58        2.0000           -0.4372543             -11.8983
        59        2.0000           -0.4250841             -11.5671
        60        2.0000           -0.4219630             -11.4822
        61        2.0000           -0.4187279             -11.3942
        62        2.0000           -0.3956537             -10.7663
        63        2.0000           -0.3911373             -10.6434
        64        2.0000           -0.3670536              -9.9880
        65        2.0000           -0.3597085              -9.7882
        66        2.0000           -0.3508979              -9.5484
        67        2.0000           -0.3483266              -9.4784
        68        2.0000           -0.3454370              -9.3998 (HOMO)
        69                         -0.2556013              -6.9553 (LUMO)
        70                         -0.2142728              -5.8307
        71                         -0.2134145              -5.8073
        72                         -0.1818813              -4.9492
        73                         -0.1676119              -4.5610
        74                         -0.1243203              -3.3829
        75                         -0.1175097              -3.1976
        76                         -0.0959746              -2.6116
        77                         -0.0929889              -2.5304
        78                         -0.0873525              -2.3770
        79                         -0.0840128              -2.2861
       ...                                ...                  ...
       134                          0.7708035              20.9746
      -------------------------------------------------------------
                  HL-Gap            0.0898357 Eh            2.4446 eV

Wiberg/Mayer (AO) data.
largest (>0.10) Wiberg bond orders for each atom

     #   Z sym  total        # sym  WBO       # sym  WBO       # sym  WBO
 ---------------------------------------------------------------------------
     1   6 C    3.905 --    27 H    0.987    28 H    0.980    26 H    0.980
                             2 O    0.933
     2   8 O    2.130 --     3 C    1.011     1 C    0.933     4 O    0.105
     3   6 C    3.848 --     4 O    1.577     5 C    1.137     2 O    1.011
     4   8 O    1.856 --     3 C    1.577     2 O    0.105
     5   6 C    3.920 --    24 C    1.275     6 N    1.142     3 C    1.137
                            25 O    0.129
     6   7 N    3.017 --     7 C    1.629     5 C    1.142
     7   6 C    3.922 --     6 N    1.629    21 N    1.105     8 C    0.973
     8   6 C    3.973 --    10 C    0.985    11 N    0.982     7 C    0.973
                             9 C    0.969
     9   6 C    3.994 --    31 H    0.988    30 H    0.987    29 H    0.981
                             8 C    0.969
    10   6 C    3.996 --    33 H    0.987    32 H    0.986     8 C    0.985
                            34 H    0.983
    11   7 N    2.938 --    12 C    1.528     8 C    0.982    13 O    0.212
    12   6 C    3.935 --    11 N    1.528    13 O    1.434    14 C    0.887
    13   8 O    1.795 --    12 C    1.434    11 N    0.212
    14   6 C    3.840 --    15 C    0.992    16 N    0.960    12 C    0.887
                            20 O    0.881
    15   6 C    3.996 --    14 C    0.992    37 H    0.987    38 H    0.986
                            36 H    0.983
    16   7 N    3.029 --    17 N    1.004    14 C    0.960    35 H    0.911
    17   7 N    2.969 --    18 C    1.750    16 N    1.004    20 O    0.124
    18   6 C    3.904 --    17 N    1.750    20 O    1.049    19 C    1.017
    19   6 C    3.994 --    18 C    1.017    41 H    0.986    40 H    0.972
                            39 H    0.971
    20   8 O    2.142 --    18 C    1.049    14 C    0.881    17 N    0.124
    21   7 N    3.451 --    22 C    1.188     7 C    1.105    42 H    0.884
                            23 O    0.136
    22   6 C    3.886 --    23 O    1.550    21 N    1.188    24 C    0.973
    23   8 O    1.829 --    22 C    1.550    21 N    0.136
    24   6 C    3.944 --    25 O    1.503     5 C    1.275    22 C    0.973
    25   8 O    1.806 --    24 C    1.503     5 C    0.129
    26   1 H    1.015 --     1 C    0.980
    27   1 H    1.017 --     1 C    0.987
    28   1 H    1.016 --     1 C    0.980
    29   1 H    1.021 --     9 C    0.981
    30   1 H    1.010 --     9 C    0.987
    31   1 H    1.010 --     9 C    0.988
    32   1 H    1.020 --    10 C    0.986
    33   1 H    1.011 --    10 C    0.987
    34   1 H    1.021 --    10 C    0.983
    35   1 H    1.012 --    16 N    0.911
    36   1 H    1.020 --    15 C    0.983
    37   1 H    1.011 --    15 C    0.987
    38   1 H    1.011 --    15 C    0.986
    39   1 H    1.003 --    19 C    0.971
    40   1 H    1.002 --    19 C    0.972
    41   1 H    1.004 --    19 C    0.986
    42   1 H    0.981 --    21 N    0.884
 ---------------------------------------------------------------------------

           -------------------------------------------------
          | TOTAL ENERGY              -83.673657797616 Eh   |
          | GRADIENT NORM               0.000190188104 Eh/α |
          | HOMO-LUMO GAP               2.444554653156 eV   |
           -------------------------------------------------

 * finished run on 2023/06/21 at 17:19:11.763
