   * xtb version 6.5.1 (579679a) compiled by 'ehlert@majestix' on 2022-07-11
          program call               : /lustre/hpc/kemi/ree/PhD/git/ReactivityQM/dep/xtb-6.5.1/bin/xtb --gfn 1 /lustre/hpc/kemi/ree/PhD/git/ReactivityQM/calculations/R03/reac02prodN09/conf07/R03_reac02prodN09_conf07_gfn1.xyz --opt --vfukui --chrg 1 --uhf 0 --alpb DMSO

   ID    Z sym.   atoms
    1    6 C      1, 3, 5, 6, 8-11, 13, 15, 18, 19, 22, 23, 25
    2    8 O      2, 4, 14, 20, 24, 26
    3    7 N      7, 12, 16, 17, 21
    4    1 H      27-46

      * Solvation model:               ALPB
        Solvent                        DMSO
        Solvent mass                       7.8130E+01 g/mol
          :  Hamiltonian                  GFN1-xTB          :
 * total energy  :   -86.2778518 Eh     change       -0.8694201E-09 Eh
 * total energy  :   -86.2978527 Eh     change       -0.2000092E-01 Eh
 * total energy  :   -86.3061358 Eh     change       -0.8283115E-02 Eh
 * total energy  :   -86.3079818 Eh     change       -0.1845940E-02 Eh
 * total energy  :   -86.3090556 Eh     change       -0.1073780E-02 Eh
 * total energy  :   -86.3094631 Eh     change       -0.4075497E-03 Eh
 * total energy  :   -86.3097999 Eh     change       -0.3367852E-03 Eh
 * total energy  :   -86.3100024 Eh     change       -0.2025035E-03 Eh
 * total energy  :   -86.3101239 Eh     change       -0.1215472E-03 Eh
 * total energy  :   -86.3102157 Eh     change       -0.9179513E-04 Eh
 * total energy  :   -86.3109462 Eh     change       -0.4426937E-04 Eh
 * total energy  :   -86.3109558 Eh     change       -0.9671655E-05 Eh
 * total energy  :   -86.3109773 Eh     change       -0.2145095E-04 Eh
 * total energy  :   -86.3109895 Eh     change       -0.1218618E-04 Eh
 * total energy  :   -86.3110069 Eh     change       -0.1744502E-04 Eh
 * total energy  :   -86.3110266 Eh     change       -0.1967812E-04 Eh
 * total energy  :   -86.3110344 Eh     change       -0.7827233E-05 Eh
 * total energy  :   -86.3110430 Eh     change       -0.8612396E-05 Eh
 * total energy  :   -86.3110470 Eh     change       -0.3935998E-05 Eh
   *** GEOMETRY OPTIMIZATION CONVERGED AFTER 41 ITERATIONS ***

 final structure:
================
46
 xtb: 6.5.1 (579679a)
C           -4.54217356629156        0.90213275914881        1.84965878514363
O           -3.62958523222063        0.49425698134683        0.80016366058939
C           -3.99078010782458        0.66250395728459       -0.42752284880991
O           -5.00906179909641        1.07483564899451       -0.87631764031936
C           -2.79632548373883        0.20093425792450       -1.43723025414151
C           -3.13105866781738        0.77013718083487       -2.81650259911429
N           -1.62079784369531        0.77829097143598       -0.89534262045561
C           -0.81671556193465        0.14753750037954       -0.12470107543910
C            0.34559321226119        0.96177049745382        0.42769617236809
C            0.43420032136942        2.30028552586696       -0.31902364669376
C            0.10629097337171        1.21559306882782        1.92409678633109
N            1.58047050502892        0.21563915351959        0.18351026756397
C            2.78321361304564        0.59825662382417        0.69734329561975
O            2.94733845145300        1.43515118954768        1.56003115912435
C            3.87753773039293       -0.18031119065221        0.07161852130221
N            3.75430120392293       -1.00382220088910       -0.92685399504939
N            4.99863796840278       -1.48332252773182       -1.19513236132826
C            5.80453021552448       -0.92136741449344       -0.34296066585355
C            7.26437833068835       -1.12209880588748       -0.21332025021015
O            5.15467585130403       -0.08637334196964        0.47999300834432
N           -0.99586875802163       -1.19039364944562        0.22535396354757
C           -0.18676117049496       -1.90729736001851        1.21659778319197
C           -1.98688460517916       -1.94477342232751       -0.33421883784369
O           -2.17678115189450       -3.12591758828496       -0.11537074585733
C           -2.86296646646645       -1.23715399811267       -1.29814380563661
O           -3.73571589502905       -1.93898398752853       -1.91278879262041
H           -5.56780072325346        0.69742655197171        1.54297348768565
H           -4.40310491802249        1.96658198707764        2.03850544276263
H           -4.26677896883756        0.31815176933681        2.72428165832976
H           -4.07577013240816        0.35712884345835       -3.16322657676351
H           -3.20507162836724        1.85292777697982       -2.74668147761087
H           -2.33560163522487        0.50451841699850       -3.50881012298482
H           -0.46471372760983        2.88618153904099       -0.13942664856479
H            1.30099208048012        2.85196795003747        0.04158845083049
H            0.53750314458752        2.12698702851121       -1.38833464614392
H            0.73714506741960        2.03353525563318        2.26706197265430
H           -0.93749582621016        1.48831883128142        2.07256731603880
H            0.32994185531492        0.33305997584931        2.51694025229662
H            1.60693824108983       -0.35424421137136       -0.64929733176821
H            7.77249003050143       -0.15848684000729       -0.18482995736580
H            7.48424345394782       -1.64815519660991        0.71685614634312
H            7.62915952246226       -1.70864105325899       -1.05347924559497
H           -0.68469928094102       -1.84347690479467        2.18367862115687
H           -0.13113773061481       -2.95032364867101        0.90723243518038
H            0.80773580290837       -1.47992700034849        1.27198262841134
H           -3.70366669427963       -2.88903890016468       -1.65021966864147

          :  Hamiltonian                  GFN1-xTB          :
         :: total energy             -86.311046969056 Eh    ::
         :: gradient norm              0.000740770004 Eh/a0 ::
         :: HOMO-LUMO gap              0.889851731291 eV    ::
         :: SCC energy               -87.145186613745 Eh    ::
         :: -> Gsolv                  -0.106227381621 Eh    ::
         :: repulsion energy           0.864719396220 Eh    ::

    * Orbital Energies and Occupations

         #    Occupation            Energy/Eh            Energy/eV
      -------------------------------------------------------------
         1        2.0000           -0.9152312             -24.9047
       ...           ...                  ...                  ...
        58        2.0000           -0.5322751             -14.4839
        59        2.0000           -0.5278601             -14.3638
        60        2.0000           -0.5260477             -14.3145
        61        2.0000           -0.5157832             -14.0352
        62        2.0000           -0.5129239             -13.9574
        63        2.0000           -0.5082354             -13.8298
        64        2.0000           -0.4944874             -13.4557
        65        2.0000           -0.4903005             -13.3418
        66        2.0000           -0.4895732             -13.3220
        67        2.0000           -0.4765683             -12.9681
        68        2.0000           -0.4695896             -12.7782
        69        2.0000           -0.4603290             -12.5262
        70        2.0000           -0.4569088             -12.4331 (HOMO)
        71                         -0.4242073             -11.5433 (LUMO)
        72                         -0.3380774              -9.1996
        73                         -0.3215972              -8.7511
        74                         -0.3099148              -8.4332
        75                         -0.2688289              -7.3152
        76                         -0.2628834              -7.1534
        77                         -0.2097281              -5.7070
        78                         -0.1673494              -4.5538
        79                         -0.1603560              -4.3635
        80                         -0.1525748              -4.1518
        81                         -0.1512983              -4.1170
       ...                                ...                  ...
       144                          0.7472347              20.3333
      -------------------------------------------------------------
                  HL-Gap            0.0327014 Eh            0.8899 eV

Wiberg/Mayer (AO) data.
largest (>0.10) Wiberg bond orders for each atom

     #   Z sym  total        # sym  WBO       # sym  WBO       # sym  WBO
 ---------------------------------------------------------------------------
     1   6 C    3.816 --    29 H    0.980    27 H    0.980    28 H    0.976
                             2 O    0.836
     2   8 O    2.253 --     3 C    1.219     1 C    0.836     4 O    0.148
     3   6 C    3.857 --     4 O    1.750     2 O    1.219     5 C    0.704
     4   8 O    2.091 --     3 C    1.750     2 O    0.148
     5   6 C    3.956 --    25 C    1.102     7 N    1.024     6 C    0.953
                             3 C    0.704
     6   6 C    3.965 --    31 H    0.980    30 H    0.980    32 H    0.977
                             5 C    0.953
     7   7 N    3.036 --     8 C    1.684     5 C    1.024
     8   6 C    3.912 --     7 N    1.684    21 N    1.094     9 C    0.974
     9   6 C    3.932 --    10 C    0.987    11 C    0.976     8 C    0.974
                            12 N    0.930
    10   6 C    3.987 --     9 C    0.987    35 H    0.984    33 H    0.984
                            34 H    0.981
    11   6 C    3.984 --    37 H    0.984    38 H    0.980     9 C    0.976
                            36 H    0.975
    12   7 N    3.315 --    13 C    1.203     9 C    0.930    39 H    0.893
                            14 O    0.165
    13   6 C    3.911 --    14 O    1.623    12 N    1.203    15 C    0.995
    14   8 O    1.933 --    13 C    1.623    12 N    0.165
    15   6 C    3.878 --    16 N    1.603    20 O    1.066    13 C    0.995
    16   7 N    3.021 --    15 C    1.603    17 N    1.207
    17   7 N    2.981 --    18 C    1.597    16 N    1.207
    18   6 C    3.868 --    17 N    1.597    20 O    1.085    19 C    1.032
    19   6 C    3.985 --    18 C    1.032    42 H    0.982    40 H    0.966
                            41 H    0.959
    20   8 O    2.335 --    18 C    1.085    15 C    1.066
    21   7 N    3.532 --    23 C    1.193     8 C    1.094    22 C    0.913
                            24 O    0.169
    22   6 C    3.894 --    45 H    0.971    44 H    0.969    43 H    0.965
                            21 N    0.913
    23   6 C    3.926 --    24 O    1.606    21 N    1.193    25 C    0.995
    24   8 O    1.967 --    23 C    1.606    21 N    0.169
    25   6 C    3.818 --    26 O    1.351     5 C    1.102    23 C    0.995
    26   8 O    2.276 --    25 C    1.351    46 H    0.742
    27   1 H    0.998 --     1 C    0.980
    28   1 H    0.998 --     1 C    0.976
    29   1 H    1.003 --     1 C    0.980
    30   1 H    0.998 --     6 C    0.980
    31   1 H    0.997 --     6 C    0.980
    32   1 H    0.994 --     6 C    0.977
    33   1 H    1.006 --    10 C    0.984
    34   1 H    1.001 --    10 C    0.981
    35   1 H    1.004 --    10 C    0.984
    36   1 H    1.009 --    11 C    0.975
    37   1 H    1.001 --    11 C    0.984
    38   1 H    1.000 --    11 C    0.980
    39   1 H    0.950 --    12 N    0.893
    40   1 H    0.996 --    19 C    0.966
    41   1 H    0.996 --    19 C    0.959
    42   1 H    0.998 --    19 C    0.982
    43   1 H    0.995 --    22 C    0.965
    44   1 H    0.997 --    22 C    0.969
    45   1 H    1.006 --    22 C    0.971
    46   1 H    0.790 --    26 O    0.742
 ---------------------------------------------------------------------------

           -------------------------------------------------
          | TOTAL ENERGY              -86.311046969056 Eh   |
          | GRADIENT NORM               0.000740770004 Eh/α |
          | HOMO-LUMO GAP               0.889851731291 eV   |
           -------------------------------------------------

 * finished run on 2023/06/20 at 15:44:14.918
