                         Program Version 5.0.1 -  RELEASE  -
|  1> # ORCA input file
|  2> ! SP r2SCAN-3c CPCM
|  3>
|  4> %maxcore 1875.0
|  5> %pal nprocs 4 end
|  6> %cpcm smd true SMDsolvent "DMSO" end
|  7>
|  8> *xyz 1 1
|  9> C      -0.483241   -3.646335    3.020904
| 10> O      -0.028025   -2.406464    2.449552
| 11> C      -0.779565   -1.666871    1.623862
| 12> C      -0.255063   -0.495378    1.124898
| 13> C       1.074751    0.005804    1.426149
| 14> O       1.914112   -0.606710    2.215734
| 15> N       1.442295    1.129679    0.877186
| 16> C       2.753445    1.754585    1.057236
| 17> C       3.668184    1.355079   -0.080682
| 18> C       4.290589    0.108443   -0.064210
| 19> C       5.115897   -0.278081   -1.109602
| 20> C       5.301092    0.603632   -2.160456
| 21> F       6.095169    0.236708   -3.173586
| 22> C       4.697096    1.847486   -2.206353
| 23> C       3.872014    2.218439   -1.153744
| 24> N      -0.962580    0.299299    0.272459
| 25> C      -2.173028   -0.014298   -0.085322
| 26> C      -2.833876    0.926630   -1.083473
| 27> C      -1.997112    2.210285   -1.204727
| 28> C      -2.900407    0.233709   -2.452663
| 29> N      -4.182039    1.265520   -0.639453
| 30> N      -2.765666   -1.154814    0.372553
| 31> C      -4.122691   -1.582070    0.004646
| 32> C      -2.127186   -2.058064    1.217914
| 33> O      -2.695502   -3.084196    1.560765
| 34> H      -1.370781   -3.481861    3.634006
| 35> H       0.342002   -3.994316    3.640628
| 36> H      -0.695562   -4.373317    2.235234
| 37> H       1.533641   -1.418326    2.614462
| 38> H       0.770429    1.568408    0.255112
| 39> H       2.595204    2.834244    1.073826
| 40> H       3.152159    1.425835    2.019260
| 41> H       4.127597   -0.562957    0.769646
| 42> H       5.604814   -1.243649   -1.111243
| 43> H       4.865247    2.508319   -3.046734
| 44> H       3.385635    3.186088   -1.169325
| 45> H      -1.893549    2.684296   -0.230486
| 46> H      -1.005199    1.984776   -1.592425
| 47> H      -2.495197    2.900833   -1.883229
| 48> H      -1.900609   -0.067217   -2.763255
| 49> H      -3.303869    0.928100   -3.188334
| 50> H      -3.538708   -0.646794   -2.416809
| 51> H      -4.621114    1.839989   -1.346527
| 52> H      -4.123873    1.810104    0.210200
| 53> H      -4.621070   -1.940544    0.905680
| 54> H      -4.673501   -0.745192   -0.413182
| 55> H      -4.052357   -2.398836   -0.713874
| 56> **                         ****END OF INPUT****

CARTESIAN COORDINATES (ANGSTROEM)
---------------------------------
  C     -0.483241   -3.646335    3.020904
  O     -0.028025   -2.406464    2.449552
  C     -0.779565   -1.666871    1.623862
  C     -0.255063   -0.495378    1.124898
  C      1.074751    0.005804    1.426149
  O      1.914112   -0.606710    2.215734
  N      1.442295    1.129679    0.877186
  C      2.753445    1.754585    1.057236
  C      3.668184    1.355079   -0.080682
  C      4.290589    0.108443   -0.064210
  C      5.115897   -0.278081   -1.109602
  C      5.301092    0.603632   -2.160456
  F      6.095169    0.236708   -3.173586
  C      4.697096    1.847486   -2.206353
  C      3.872014    2.218439   -1.153744
  N     -0.962580    0.299299    0.272459
  C     -2.173028   -0.014298   -0.085322
  C     -2.833876    0.926630   -1.083473
  C     -1.997112    2.210285   -1.204727
  C     -2.900407    0.233709   -2.452663
  N     -4.182039    1.265520   -0.639453
  N     -2.765666   -1.154814    0.372553
  C     -4.122691   -1.582070    0.004646
  C     -2.127186   -2.058064    1.217914
  O     -2.695502   -3.084196    1.560765
  H     -1.370781   -3.481861    3.634006
  H      0.342002   -3.994316    3.640628
  H     -0.695562   -4.373317    2.235234
  H      1.533641   -1.418326    2.614462
  H      0.770429    1.568408    0.255112
  H      2.595204    2.834244    1.073826
  H      3.152159    1.425835    2.019260
  H      4.127597   -0.562957    0.769646
  H      5.604814   -1.243649   -1.111243
  H      4.865247    2.508319   -3.046734
  H      3.385635    3.186088   -1.169325
  H     -1.893549    2.684296   -0.230486
  H     -1.005199    1.984776   -1.592425
  H     -2.495197    2.900833   -1.883229
  H     -1.900609   -0.067217   -2.763255
  H     -3.303869    0.928100   -3.188334
  H     -3.538708   -0.646794   -2.416809
  H     -4.621114    1.839989   -1.346527
  H     -4.123873    1.810104    0.210200
  H     -4.621070   -1.940544    0.905680
  H     -4.673501   -0.745192   -0.413182
  H     -4.052357   -2.398836   -0.713874

 Total Charge           Charge          ....    1
 Multiplicity           Mult            ....    1
 Number of Electrons    NEL             ....  184
 Basis Dimension        Dim             ....  625

ORBITAL ENERGIES
----------------

  NO   OCC          E(Eh)            E(eV)
   0   2.0000     -24.507919      -666.8944
   1   2.0000     -19.046869      -518.2917
   2   2.0000     -19.036122      -517.9992
   3   2.0000     -18.941483      -515.4239
   4   2.0000     -14.248458      -387.7203
   5   2.0000     -14.242790      -387.5660
   6   2.0000     -14.178100      -385.8057
   7   2.0000     -14.140051      -384.7704
   8   2.0000     -10.202015      -277.6109
   9   2.0000     -10.162326      -276.5309
  10   2.0000     -10.147691      -276.1327
  11   2.0000     -10.135429      -275.7991
  12   2.0000     -10.125912      -275.5401
  13   2.0000     -10.115164      -275.2476
  14   2.0000     -10.091851      -274.6132
  15   2.0000     -10.089080      -274.5378
  16   2.0000     -10.088570      -274.5239
  17   2.0000     -10.056560      -273.6529
  18   2.0000     -10.056543      -273.6525
  19   2.0000     -10.049916      -273.4721
  20   2.0000     -10.049623      -273.4641
  21   2.0000     -10.047132      -273.3964
  22   2.0000     -10.046621      -273.3825
  23   2.0000     -10.022966      -272.7388
  24   2.0000     -10.014162      -272.4992
  25   2.0000      -1.200507       -32.6675
  26   2.0000      -1.115260       -30.3478
  27   2.0000      -1.080666       -29.4064
  28   2.0000      -1.036367       -28.2010
  29   2.0000      -0.982057       -26.7231
  30   2.0000      -0.962051       -26.1787
  31   2.0000      -0.899520       -24.4772
  32   2.0000      -0.871370       -23.7112
  33   2.0000      -0.843846       -22.9622
  34   2.0000      -0.798057       -21.7162
  35   2.0000      -0.765371       -20.8268
  36   2.0000      -0.734125       -19.9765
  37   2.0000      -0.732503       -19.9324
  38   2.0000      -0.720136       -19.5959
  39   2.0000      -0.697410       -18.9775
  40   2.0000      -0.684632       -18.6298
  41   2.0000      -0.661292       -17.9947
  42   2.0000      -0.654429       -17.8079
  43   2.0000      -0.644269       -17.5315
  44   2.0000      -0.626155       -17.0385
  45   2.0000      -0.602117       -16.3844
  46   2.0000      -0.582735       -15.8570
  47   2.0000      -0.569767       -15.5041
  48   2.0000      -0.551906       -15.0181
  49   2.0000      -0.538698       -14.6587
  50   2.0000      -0.531180       -14.4541
  51   2.0000      -0.521747       -14.1974
  52   2.0000      -0.517544       -14.0831
  53   2.0000      -0.487698       -13.2709
  54   2.0000      -0.476008       -12.9528
  55   2.0000      -0.473152       -12.8751
  56   2.0000      -0.472557       -12.8589
  57   2.0000      -0.464114       -12.6292
  58   2.0000      -0.453550       -12.3417
  59   2.0000      -0.445812       -12.1312
  60   2.0000      -0.443398       -12.0655
  61   2.0000      -0.441523       -12.0144
  62   2.0000      -0.437700       -11.9104
  63   2.0000      -0.425833       -11.5875
  64   2.0000      -0.417877       -11.3710
  65   2.0000      -0.415229       -11.2990
  66   2.0000      -0.410315       -11.1652
  67   2.0000      -0.405128       -11.0241
  68   2.0000      -0.393071       -10.6960
  69   2.0000      -0.391240       -10.6462
  70   2.0000      -0.383480       -10.4350
  71   2.0000      -0.375973       -10.2307
  72   2.0000      -0.369831       -10.0636
  73   2.0000      -0.366043        -9.9605
  74   2.0000      -0.360990        -9.8231
  75   2.0000      -0.358008        -9.7419
  76   2.0000      -0.353679        -9.6241
  77   2.0000      -0.345026        -9.3886
  78   2.0000      -0.344054        -9.3622
  79   2.0000      -0.341346        -9.2885
  80   2.0000      -0.338904        -9.2221
  81   2.0000      -0.332871        -9.0579
  82   2.0000      -0.318798        -8.6749
  83   2.0000      -0.317567        -8.6414
  84   2.0000      -0.304385        -8.2827
  85   2.0000      -0.277424        -7.5491
  86   2.0000      -0.270652        -7.3648
  87   2.0000      -0.253622        -6.9014
  88   2.0000      -0.249949        -6.8015
  89   2.0000      -0.235696        -6.4136
  90   2.0000      -0.223339        -6.0774
  91   2.0000      -0.213308        -5.8044
  92   0.0000      -0.123151        -3.3511
  93   0.0000      -0.055577        -1.5123
  94   0.0000      -0.049308        -1.3417
  95   0.0000      -0.039697        -1.0802
  96   0.0000      -0.015433        -0.4199

MULLIKEN ATOMIC CHARGES
-----------------------
   0 C :   -0.301945
   1 O :   -0.208894
   2 C :    0.169105
   3 C :    0.107859
   4 C :    0.061593
   5 O :   -0.356315
   6 N :   -0.039604
   7 C :   -0.346724
   8 C :    0.095811
   9 C :   -0.149637
  10 C :   -0.310250
  11 C :    0.365193
  12 F :   -0.229776
  13 C :   -0.282912
  14 C :   -0.195633
  15 N :   -0.152841
  16 C :    0.057359
  17 C :    0.231443
  18 C :   -0.593873
  19 C :   -0.517202
  20 N :   -0.686585
  21 N :    0.253971
  22 C :   -0.461582
  23 C :    0.181260
  24 O :   -0.445127
  25 H :    0.185321
  26 H :    0.178486
  27 H :    0.186653
  28 H :    0.375229
  29 H :    0.340265
  30 H :    0.203339
  31 H :    0.213582
  32 H :    0.189431
  33 H :    0.200073
  34 H :    0.199504
  35 H :    0.191746
  36 H :    0.180859
  37 H :    0.177037
  38 H :    0.174646
  39 H :    0.186099
  40 H :    0.184030
  41 H :    0.180150
  42 H :    0.297019
  43 H :    0.289893
  44 H :    0.188935
  45 H :    0.233524
  46 H :    0.199483
Sum of atomic charges:    1.0000000

LOEWDIN ATOMIC CHARGES
----------------------
   0 C :   -0.008990
   1 O :   -0.665233
   2 C :    0.309605
   3 C :    0.216263
   4 C :    0.453072
   5 O :   -0.339848
   6 N :   -0.500134
   7 C :    0.025746
   8 C :   -0.080020
   9 C :   -0.134608
  10 C :   -0.151684
  11 C :    0.207262
  12 F :   -0.289609
  13 C :   -0.153790
  14 C :   -0.134282
  15 N :   -0.587747
  16 C :    0.388471
  17 C :    0.064364
  18 C :   -0.360413
  19 C :   -0.349916
  20 N :   -0.703875
  21 N :   -0.614850
  22 C :   -0.087302
  23 C :    0.387369
  24 O :   -0.470032
  25 H :    0.190298
  26 H :    0.187493
  27 H :    0.191222
  28 H :    0.327929
  29 H :    0.320443
  30 H :    0.215592
  31 H :    0.218254
  32 H :    0.191113
  33 H :    0.196258
  34 H :    0.196107
  35 H :    0.190018
  36 H :    0.171103
  37 H :    0.169052
  38 H :    0.164628
  39 H :    0.173054
  40 H :    0.172332
  41 H :    0.172376
  42 H :    0.257881
  43 H :    0.255300
  44 H :    0.205035
  45 H :    0.219139
  46 H :    0.195551

  Mayer bond orders larger than 0.100000
B(  0-C ,  1-O ) :   0.8353 B(  0-C , 25-H ) :   0.9449 B(  0-C , 26-H ) :   0.9544
B(  0-C , 27-H ) :   0.9448 B(  1-O ,  2-C ) :   1.0934 B(  2-C ,  3-C ) :   1.4276
B(  2-C , 16-C ) :   0.1159 B(  2-C , 23-C ) :   1.0171 B(  3-C ,  4-C ) :   0.9510
B(  3-C , 15-N ) :   0.9480 B(  4-C ,  5-O ) :   1.2113 B(  4-C ,  6-N ) :   1.5084
B(  4-C , 15-N ) :   0.1372 B(  5-O , 28-H ) :   0.7775 B(  6-N ,  7-C ) :   0.8260
B(  6-N , 29-H ) :   0.8641 B(  7-C ,  8-C ) :   0.8607 B(  7-C , 30-H ) :   0.9564
B(  7-C , 31-H ) :   0.9641 B(  8-C ,  9-C ) :   1.3649 B(  8-C , 14-C ) :   1.4185
B(  9-C , 10-C ) :   1.3820 B(  9-C , 32-H ) :   0.9409 B( 10-C , 11-C ) :   1.3887
B( 10-C , 33-H ) :   0.9325 B( 11-C , 12-F ) :   0.8890 B( 11-C , 13-C ) :   1.4023
B( 13-C , 14-C ) :   1.3674 B( 13-C , 34-H ) :   0.9337 B( 14-C , 35-H ) :   0.9418
B( 15-N , 16-C ) :   1.6294 B( 15-N , 17-C ) :  -0.1167 B( 15-N , 21-N ) :   0.1054
B( 16-C , 17-C ) :   0.8981 B( 16-C , 21-N ) :   1.2643 B( 17-C , 18-C ) :   0.9627
B( 17-C , 19-C ) :   0.9339 B( 17-C , 20-N ) :   0.7665 B( 18-C , 36-H ) :   0.9647
B( 18-C , 37-H ) :   0.9757 B( 18-C , 38-H ) :   0.9653 B( 19-C , 39-H ) :   0.9713
B( 19-C , 40-H ) :   0.9607 B( 19-C , 41-H ) :   0.9440 B( 20-N , 42-H ) :   0.9111
B( 20-N , 43-H ) :   0.9095 B( 21-N , 22-C ) :   0.8450 B( 21-N , 23-C ) :   1.1116
B( 22-C , 44-H ) :   0.9357 B( 22-C , 45-H ) :   0.9156 B( 22-C , 46-H ) :   0.9354
B( 23-C , 24-O ) :   1.8035

Dispersion correction           -0.021062268
FINAL SINGLE POINT ENERGY     -1205.226799646529

DIPOLE MOMENT
-------------
                                X             Y             Z
Electronic contribution:     24.56363      -3.96694       2.28473
Nuclear contribution   :    -25.79839       5.17588      -0.66128
                        -----------------------------------------
Total Dipole Moment    :     -1.23476       1.20894       1.62345
                        -----------------------------------------
Magnitude (a.u.)       :      2.37103
Magnitude (Debye)      :      6.02667

Rotational constants in cm-1:     0.010438     0.003954     0.003276
Rotational constants in MHz :   312.928783   118.533520    98.217429

                             ****ORCA TERMINATED NORMALLY****
TOTAL RUN TIME: 0 days 0 hours 2 minutes 17 seconds 506 msec
