   * xtb version 6.5.1 (579679a) compiled by 'ehlert@majestix' on 2022-07-11
          program call               : /lustre/hpc/kemi/ree/PhD/git/ReactivityQM/dep/xtb-6.5.1/bin/xtb --gfn 1 /lustre/hpc/kemi/ree/PhD/git/ReactivityQM/calculations/RaltegravirCLI/reac02prodN03/conf08/RaltegravirCLI_reac02prodN03_conf08_gfn1.xyz --opt --vfukui --chrg 1 --uhf 0 --alpb DMSO

   ID    Z sym.   atoms
    1    6 C      1, 3-5, 8-12, 14, 15, 17-20, 23, 24
    2    8 O      2, 6, 25
    3    7 N      7, 16, 21, 22
    4    9 F      13
    5    1 H      26-47

      * Solvation model:               ALPB
        Solvent                        DMSO
        Solvent mass                       7.8130E+01 g/mol
          :  Hamiltonian                  GFN1-xTB          :
 * total energy  :   -79.4801008 Eh     change       -0.4391154E-11 Eh
 * total energy  :   -79.4944807 Eh     change       -0.1437990E-01 Eh
 * total energy  :   -79.5020792 Eh     change       -0.7598498E-02 Eh
 * total energy  :   -79.5067555 Eh     change       -0.4676265E-02 Eh
 * total energy  :   -79.5120504 Eh     change       -0.5294886E-02 Eh
 * total energy  :   -79.5156855 Eh     change       -0.3635139E-02 Eh
 * total energy  :   -79.5211291 Eh     change       -0.5443572E-02 Eh
 * total energy  :   -79.5242293 Eh     change       -0.3100185E-02 Eh
 * total energy  :   -79.5268541 Eh     change       -0.2624796E-02 Eh
 * total energy  :   -79.5292948 Eh     change       -0.2440696E-02 Eh
 * total energy  :   -79.5374927 Eh     change       -0.1029637E-04 Eh
 * total energy  :   -79.5375049 Eh     change       -0.1226074E-04 Eh
 * total energy  :   -79.5375178 Eh     change       -0.1282726E-04 Eh
 * total energy  :   -79.5375300 Eh     change       -0.1226559E-04 Eh
 * total energy  :   -79.5375407 Eh     change       -0.1062419E-04 Eh
 * total energy  :   -79.5375513 Eh     change       -0.1067310E-04 Eh
 * total energy  :   -79.5375618 Eh     change       -0.1041439E-04 Eh
 * total energy  :   -79.5375682 Eh     change       -0.6425205E-05 Eh
 * total energy  :   -79.5375710 Eh     change       -0.2866147E-05 Eh
   *** GEOMETRY OPTIMIZATION CONVERGED AFTER 54 ITERATIONS ***

 final structure:
================
47
 xtb: 6.5.1 (579679a)
C           -0.48324051739629       -3.64633463847248        3.02090406008696
O           -0.02802538201437       -2.40646438045595        2.44955246687624
C           -0.77956532667659       -1.66687095118394        1.62386153110631
C           -0.25506268669175       -0.49537765712767        1.12489790116327
C            1.07475108230076        0.00580396643095        1.42614941594527
O            1.91411153224374       -0.60671039947118        2.21573414718479
N            1.44229470218515        1.12967905815475        0.87718606733767
C            2.75344520370736        1.75458490200488        1.05723579473312
C            3.66818444328461        1.35507916955100       -0.08068211975121
C            4.29058890768454        0.10844269783466       -0.06420956868262
C            5.11589737784339       -0.27808075296213       -1.10960171610485
C            5.30109154286380        0.60363199204968       -2.16045621129246
F            6.09516857944053        0.23670752536208       -3.17358641091949
C            4.69709581013019        1.84748564629779       -2.20635316442287
C            3.87201353202864        2.21843874659829       -1.15374432663325
N           -0.96258035770359        0.29929907046024        0.27245897323504
C           -2.17302804260565       -0.01429774750579       -0.08532215388790
C           -2.83387613149165        0.92662959775311       -1.08347327829977
C           -1.99711231744485        2.21028459460840       -1.20472731594028
C           -2.90040728665780        0.23370889727442       -2.45266273382535
N           -4.18203940037702        1.26552011670706       -0.63945296450529
N           -2.76566599025285       -1.15481377100837        0.37255292928687
C           -4.12269126160122       -1.58206987267750        0.00464561434255
C           -2.12718588968827       -2.05806365037611        1.21791414853978
O           -2.69550244515646       -3.08419564522074        1.56076495393507
H           -1.37078084077598       -3.48186141376110        3.63400587172268
H            0.34200239398479       -3.99431648425745        3.64062775153303
H           -0.69556232034397       -4.37331745929780        2.23523378760409
H            1.53364089925090       -1.41832609594375        2.61446196534157
H            0.77042911179361        1.56840844451820        0.25511225325982
H            2.59520427887285        2.83424434900383        1.07382622469304
H            3.15215879865076        1.42583489366226        2.01925951249288
H            4.12759693352085       -0.56295697702847        0.76964614179429
H            5.60481389818485       -1.24364920238160       -1.11124271660573
H            4.86524717969325        2.50831863584650       -3.04673418785699
H            3.38563476417397        3.18608761870402       -1.16932493211184
H           -1.89354856189150        2.68429589152897       -0.23048583830166
H           -1.00519905183331        1.98477637323325       -1.59242475729244
H           -2.49519671068688        2.90083278400995       -1.88322945282914
H           -1.90060931327217       -0.06721719091375       -2.76325525799328
H           -3.30386874319065        0.92810005696308       -3.18833370142667
H           -3.53870848066696       -0.64679413284024       -2.41680875777998
H           -4.62111382743127        1.83998928154158       -1.34652711385125
H           -4.12387336601742        1.81010424551839        0.21019984514608
H           -4.62107046943074       -1.94054399648456        0.90568001170897
H           -4.67350138745099       -0.74519176319238       -0.41318176609959
H           -4.05235686308968       -2.39883637305783       -0.71387392266046

          :  Hamiltonian                  GFN1-xTB          :
         :: total energy             -79.537571042054 Eh    ::
         :: gradient norm              0.000256714274 Eh/a0 ::
         :: HOMO-LUMO gap              1.665472285180 eV    ::
         :: SCC energy               -80.432360402223 Eh    ::
         :: -> Gsolv                  -0.097828755768 Eh    ::
         :: repulsion energy           0.924817114980 Eh    ::

    * Orbital Energies and Occupations

         #    Occupation            Energy/Eh            Energy/eV
      -------------------------------------------------------------
         1        2.0000           -0.8770243             -23.8650
       ...           ...                  ...                  ...
        55        2.0000           -0.5203759             -14.1601
        56        2.0000           -0.5109079             -13.9025
        57        2.0000           -0.5070097             -13.7964
        58        2.0000           -0.5048194             -13.7368
        59        2.0000           -0.4955744             -13.4853
        60        2.0000           -0.4873299             -13.2609
        61        2.0000           -0.4844594             -13.1828
        62        2.0000           -0.4743171             -12.9068
        63        2.0000           -0.4701096             -12.7923
        64        2.0000           -0.4657320             -12.6732
        65        2.0000           -0.4534960             -12.3403
        66        2.0000           -0.4457074             -12.1283
        67        2.0000           -0.4233092             -11.5188 (HOMO)
        68                         -0.3621042              -9.8534 (LUMO)
        69                         -0.3036331              -8.2623
        70                         -0.2875492              -7.8246
        71                         -0.2839682              -7.7272
        72                         -0.2758024              -7.5050
        73                         -0.1858786              -5.0580
        74                         -0.1614517              -4.3933
        75                         -0.1465828              -3.9887
        76                         -0.1422438              -3.8707
        77                         -0.1414643              -3.8494
        78                         -0.1387669              -3.7760
       ...                                ...                  ...
       144                          0.6738152              18.3354
      -------------------------------------------------------------
                  HL-Gap            0.0612050 Eh            1.6655 eV

Wiberg/Mayer (AO) data.
largest (>0.10) Wiberg bond orders for each atom

     #   Z sym  total        # sym  WBO       # sym  WBO       # sym  WBO
 ---------------------------------------------------------------------------
     1   6 C    3.844 --    27 H    0.983    26 H    0.977    28 H    0.977
                             2 O    0.868
     2   8 O    2.215 --     3 C    1.097     1 C    0.868
     3   6 C    3.909 --     4 C    1.436     2 O    1.097    24 C    1.071
     4   6 C    3.962 --     3 C    1.436    16 N    1.188     5 C    1.092
     5   6 C    3.877 --     7 N    1.475     6 O    1.189     4 C    1.092
     6   8 O    2.155 --     5 C    1.189    29 H    0.762     7 N    0.102
     7   7 N    3.490 --     5 C    1.475     8 C    0.913    30 H    0.871
                             6 O    0.102
     8   6 C    3.914 --     9 C    0.986    31 H    0.971    32 H    0.969
                             7 N    0.913
     9   6 C    3.981 --    15 C    1.421    10 C    1.416     8 C    0.986
    10   6 C    3.993 --    11 C    1.448     9 C    1.416    33 H    0.970
                            14 C    0.111
    11   6 C    3.991 --    10 C    1.448    12 C    1.396    34 H    0.968
                            15 C    0.109
    12   6 C    3.863 --    14 C    1.400    11 C    1.396    13 F    0.935
    13   9 F    1.066 --    12 C    0.935
    14   6 C    3.990 --    15 C    1.442    12 C    1.400    35 H    0.968
                            10 C    0.111
    15   6 C    3.993 --    14 C    1.442     9 C    1.421    36 H    0.970
                            11 C    0.109
    16   7 N    3.047 --    17 C    1.532     4 C    1.188
    17   6 C    3.912 --    16 N    1.532    22 N    1.200    18 C    0.976
    18   6 C    3.964 --    19 C    0.991    21 N    0.984    20 C    0.980
                            17 C    0.976
    19   6 C    3.993 --    18 C    0.991    37 H    0.984    39 H    0.984
                            38 H    0.983
    20   6 C    3.992 --    40 H    0.985    42 H    0.982    41 H    0.981
                            18 C    0.980
    21   7 N    2.995 --    18 C    0.984    44 H    0.938    43 H    0.935
    22   7 N    3.527 --    17 C    1.200    24 C    1.122    23 C    0.919
                            25 O    0.137
    23   6 C    3.907 --    45 H    0.974    47 H    0.974    46 H    0.965
                            22 N    0.919
    24   6 C    3.918 --    25 O    1.578    22 N    1.122     3 C    1.071
    25   8 O    1.919 --    24 C    1.578    22 N    0.137
    26   1 H    1.010 --     1 C    0.977
    27   1 H    1.008 --     1 C    0.983
    28   1 H    1.011 --     1 C    0.977
    29   1 H    0.824 --     6 O    0.762
    30   1 H    0.947 --     7 N    0.871
    31   1 H    0.996 --     8 C    0.971
    32   1 H    1.000 --     8 C    0.969
    33   1 H    1.003 --    10 C    0.970
    34   1 H    0.996 --    11 C    0.968
    35   1 H    0.996 --    14 C    0.968
    36   1 H    0.997 --    15 C    0.970
    37   1 H    1.007 --    19 C    0.984
    38   1 H    1.010 --    19 C    0.983
    39   1 H    1.001 --    19 C    0.984
    40   1 H    1.002 --    20 C    0.985
    41   1 H    0.998 --    20 C    0.981
    42   1 H    1.002 --    20 C    0.982
    43   1 H    0.950 --    21 N    0.935
    44   1 H    0.952 --    21 N    0.938
    45   1 H    1.005 --    23 C    0.974
    46   1 H    1.026 --    23 C    0.965
    47   1 H    1.001 --    23 C    0.974
 ---------------------------------------------------------------------------

           -------------------------------------------------
          | TOTAL ENERGY              -79.537571042054 Eh   |
          | GRADIENT NORM               0.000256714274 Eh/α |
          | HOMO-LUMO GAP               1.665472285180 eV   |
           -------------------------------------------------

 * finished run on 2023/06/20 at 15:19:51.184
