                         Program Version 5.0.1 -  RELEASE  -
|  1> # ORCA input file
|  2> ! SP r2SCAN-3c CPCM
|  3>
|  4> %maxcore 1875.0
|  5> %pal nprocs 4 end
|  6> %cpcm smd true SMDsolvent "DMSO" end
|  7>
|  8> *xyz 1 1
|  9> C       3.430833    1.259356   -1.872327
| 10> O       2.998370    0.194422   -1.018355
| 11> C       1.729607    0.208593   -0.639888
| 12> O       0.945459    1.074018   -0.981394
| 13> C       1.352532   -0.931369    0.240754
| 14> C       2.156116   -1.992146    0.559517
| 15> O       3.409902   -2.151071    0.125795
| 16> C       1.653816   -3.059432    1.424694
| 17> O       2.322730   -4.031910    1.737271
| 18> N       0.364224   -2.869634    1.854392
| 19> C      -0.386604   -1.785093    1.502651
| 20> C      -1.774671   -1.718451    2.042036
| 21> C      -2.372398    2.000313   -0.957689
| 22> C      -1.690501    1.967637   -2.266371
| 23> C      -1.589467    1.932189    0.285406
| 24> N      -3.661620    2.076724   -0.907735
| 25> N       0.067646   -0.854786    0.732299
| 26> H       4.496324    1.112229   -2.038323
| 27> H       3.248071    2.221960   -1.390432
| 28> H       2.887728    1.220219   -2.818711
| 29> H       3.764795   -2.987789    0.482064
| 30> H      -0.029485   -3.576227    2.455305
| 31> H      -2.382675   -2.515314    1.612940
| 32> H      -2.217464   -0.759139    1.788017
| 33> H      -1.770207   -1.841094    3.124521
| 34> H      -1.112991    2.886780   -2.384158
| 35> H      -0.972900    1.146087   -2.284200
| 36> H      -2.392749    1.874495   -3.091314
| 37> H      -2.201742    2.100227    1.167918
| 38> H      -1.127716    0.936505    0.348195
| 39> H      -0.761132    2.640029    0.249993
| 40> H      -4.226525    2.106844   -1.740222
| 41> H      -4.157307    2.114825   -0.032785
| 42> **                         ****END OF INPUT****

CARTESIAN COORDINATES (ANGSTROEM)
---------------------------------
  C      3.430833    1.259356   -1.872327
  O      2.998370    0.194422   -1.018355
  C      1.729607    0.208593   -0.639888
  O      0.945459    1.074018   -0.981394
  C      1.352532   -0.931369    0.240754
  C      2.156116   -1.992146    0.559517
  O      3.409902   -2.151071    0.125795
  C      1.653816   -3.059432    1.424694
  O      2.322730   -4.031910    1.737271
  N      0.364224   -2.869634    1.854392
  C     -0.386604   -1.785093    1.502651
  C     -1.774671   -1.718451    2.042036
  C     -2.372398    2.000313   -0.957689
  C     -1.690501    1.967637   -2.266371
  C     -1.589467    1.932189    0.285406
  N     -3.661620    2.076724   -0.907735
  N      0.067646   -0.854786    0.732299
  H      4.496324    1.112229   -2.038323
  H      3.248071    2.221960   -1.390432
  H      2.887728    1.220219   -2.818711
  H      3.764795   -2.987789    0.482064
  H     -0.029485   -3.576227    2.455305
  H     -2.382675   -2.515314    1.612940
  H     -2.217464   -0.759139    1.788017
  H     -1.770207   -1.841094    3.124521
  H     -1.112991    2.886780   -2.384158
  H     -0.972900    1.146087   -2.284200
  H     -2.392749    1.874495   -3.091314
  H     -2.201742    2.100227    1.167918
  H     -1.127716    0.936505    0.348195
  H     -0.761132    2.640029    0.249993
  H     -4.226525    2.106844   -1.740222
  H     -4.157307    2.114825   -0.032785

 Total Charge           Charge          ....    1
 Multiplicity           Mult            ....    1
 Number of Electrons    NEL             ....  128
 Basis Dimension        Dim             ....  438

ORBITAL ENERGIES
----------------

  NO   OCC          E(Eh)            E(eV)
   0   2.0000     -19.005509      -517.1662
   1   2.0000     -19.003765      -517.1187
   2   2.0000     -18.943101      -515.4680
   3   2.0000     -18.940753      -515.4041
   4   2.0000     -14.237886      -387.4326
   5   2.0000     -14.230708      -387.2372
   6   2.0000     -14.168835      -385.5536
   7   2.0000     -10.166452      -276.6432
   8   2.0000     -10.155356      -276.3413
   9   2.0000     -10.150557      -276.2107
  10   2.0000     -10.130534      -275.6658
  11   2.0000     -10.125113      -275.5183
  12   2.0000     -10.095554      -274.7140
  13   2.0000     -10.079463      -274.2761
  14   2.0000     -10.042542      -273.2714
  15   2.0000     -10.035274      -273.0737
  16   2.0000     -10.034423      -273.0505
  17   2.0000      -1.082986       -29.4695
  18   2.0000      -1.062252       -28.9053
  19   2.0000      -1.024786       -27.8858
  20   2.0000      -0.987532       -26.8721
  21   2.0000      -0.970273       -26.4025
  22   2.0000      -0.961295       -26.1582
  23   2.0000      -0.884049       -24.0562
  24   2.0000      -0.781563       -21.2674
  25   2.0000      -0.762680       -20.7536
  26   2.0000      -0.717111       -19.5136
  27   2.0000      -0.695528       -18.9263
  28   2.0000      -0.693761       -18.8782
  29   2.0000      -0.654437       -17.8081
  30   2.0000      -0.613885       -16.7047
  31   2.0000      -0.599035       -16.3006
  32   2.0000      -0.571724       -15.5574
  33   2.0000      -0.549984       -14.9658
  34   2.0000      -0.537538       -14.6272
  35   2.0000      -0.522027       -14.2051
  36   2.0000      -0.506211       -13.7747
  37   2.0000      -0.485686       -13.2162
  38   2.0000      -0.471752       -12.8370
  39   2.0000      -0.463551       -12.6139
  40   2.0000      -0.448558       -12.2059
  41   2.0000      -0.447477       -12.1765
  42   2.0000      -0.439005       -11.9459
  43   2.0000      -0.422348       -11.4927
  44   2.0000      -0.406104       -11.0506
  45   2.0000      -0.403955       -10.9922
  46   2.0000      -0.389453       -10.5976
  47   2.0000      -0.386657       -10.5215
  48   2.0000      -0.379400       -10.3240
  49   2.0000      -0.375249       -10.2110
  50   2.0000      -0.371871       -10.1191
  51   2.0000      -0.365664        -9.9502
  52   2.0000      -0.361847        -9.8463
  53   2.0000      -0.359349        -9.7784
  54   2.0000      -0.354572        -9.6484
  55   2.0000      -0.338536        -9.2120
  56   2.0000      -0.335454        -9.1282
  57   2.0000      -0.319006        -8.6806
  58   2.0000      -0.286805        -7.8044
  59   2.0000      -0.279475        -7.6049
  60   2.0000      -0.267211        -7.2712
  61   2.0000      -0.257276        -7.0008
  62   2.0000      -0.247833        -6.7439
  63   2.0000      -0.216112        -5.8807
  64   0.0000      -0.095802        -2.6069
  65   0.0000      -0.082055        -2.2328
  66   0.0000      -0.038081        -1.0362
  67   0.0000       0.008892         0.2420
  68   0.0000       0.047804         1.3008

MULLIKEN ATOMIC CHARGES
-----------------------
   0 C :   -0.316544
   1 O :   -0.160699
   2 C :    0.145414
   3 O :   -0.405131
   4 C :    0.133011
   5 C :    0.115630
   6 O :   -0.353198
   7 C :    0.102262
   8 O :   -0.446104
   9 N :   -0.065566
  10 C :    0.343956
  11 C :   -0.632930
  12 C :    0.467667
  13 C :   -0.541868
  14 C :   -0.527458
  15 N :   -0.371554
  16 N :   -0.199496
  17 H :    0.178374
  18 H :    0.176749
  19 H :    0.176247
  20 H :    0.359514
  21 H :    0.326079
  22 H :    0.198575
  23 H :    0.192435
  24 H :    0.191175
  25 H :    0.217824
  26 H :    0.207833
  27 H :    0.186090
  28 H :    0.183686
  29 H :    0.241811
  30 H :    0.198459
  31 H :    0.339092
  32 H :    0.338664
Sum of atomic charges:    1.0000000

LOEWDIN ATOMIC CHARGES
----------------------
   0 C :   -0.034660
   1 O :   -0.568096
   2 C :    0.408914
   3 O :   -0.445047
   4 C :    0.203432
   5 C :    0.276632
   6 O :   -0.436599
   7 C :    0.365730
   8 O :   -0.468111
   9 N :   -0.437660
  10 C :    0.324044
  11 C :   -0.318060
  12 C :    0.251279
  13 C :   -0.337733
  14 C :   -0.345282
  15 N :   -0.373016
  16 N :   -0.589998
  17 H :    0.186668
  18 H :    0.183597
  19 H :    0.182885
  20 H :    0.312090
  21 H :    0.309252
  22 H :    0.186624
  23 H :    0.183864
  24 H :    0.183891
  25 H :    0.204535
  26 H :    0.208044
  27 H :    0.180991
  28 H :    0.178771
  29 H :    0.235472
  30 H :    0.199531
  31 H :    0.294027
  32 H :    0.293994

  Mayer bond orders larger than 0.100000
B(  0-C ,  1-O ) :   0.8285 B(  0-C , 17-H ) :   0.9634 B(  0-C , 18-H ) :   0.9545
B(  0-C , 19-H ) :   0.9537 B(  1-O ,  2-C ) :   1.1857 B(  2-C ,  3-O ) :   1.7570
B(  2-C ,  4-C ) :   1.0109 B(  4-C ,  5-C ) :   1.3828 B(  4-C , 16-N ) :   1.0448
B(  5-C ,  6-O ) :   1.0766 B(  5-C ,  7-C ) :   0.9282 B(  6-O , 20-H ) :   0.8215
B(  7-C ,  8-O ) :   1.9748 B(  7-C ,  9-N ) :   1.0963 B(  9-N , 10-C ) :   1.1359
B(  9-N , 21-H ) :   0.8808 B( 10-C , 11-C ) :   0.8307 B( 10-C , 16-N ) :   1.6239
B( 11-C , 22-H ) :   0.9443 B( 11-C , 23-H ) :   0.9850 B( 11-C , 24-H ) :   0.9580
B( 12-C , 13-C ) :   0.9656 B( 12-C , 14-C ) :   0.9716 B( 12-C , 15-N ) :   1.4315
B( 13-C , 25-H ) :   0.9174 B( 13-C , 26-H ) :   0.9142 B( 13-C , 27-H ) :   0.9850
B( 14-C , 28-H ) :   0.9804 B( 14-C , 29-H ) :   0.8643 B( 14-C , 30-H ) :   0.9251
B( 15-N , 31-H ) :   0.8866 B( 15-N , 32-H ) :   0.8886

Dispersion correction           -0.011929145
FINAL SINGLE POINT ENERGY      -855.606249019354

DIPOLE MOMENT
-------------
                                X             Y             Z
Electronic contribution:     10.03467     -11.99783       4.62785
Nuclear contribution   :    -16.41545      15.43567      -5.54370
                        -----------------------------------------
Total Dipole Moment    :     -6.38078       3.43784      -0.91585
                        -----------------------------------------
Magnitude (a.u.)       :      7.30561
Magnitude (Debye)      :     18.56937

Rotational constants in cm-1:     0.019174     0.009985     0.006815
Rotational constants in MHz :   574.819221   299.330129   204.319366

                             ****ORCA TERMINATED NORMALLY****
TOTAL RUN TIME: 0 days 0 hours 1 minutes 17 seconds 682 msec
