   * xtb version 6.5.1 (579679a) compiled by 'ehlert@majestix' on 2022-07-11
          program call               : /lustre/hpc/kemi/ree/PhD/git/ReactivityQM/dep/xtb-6.5.1/bin/xtb --gfn 1 /lustre/hpc/kemi/ree/PhD/git/ReactivityQM/calculations/R01/reac02prodN07/conf11/R01_reac02prodN07_conf11_gfn1.xyz --opt --vfukui --chrg 1 --uhf 0 --alpb DMSO

   ID    Z sym.   atoms
    1    6 C      1, 3, 5, 6, 8, 11-15
    2    8 O      2, 4, 7, 9
    3    7 N      10, 16, 17
    4    1 H      18-33

      * Solvation model:               ALPB
        Solvent                        DMSO
        Solvent mass                       7.8130E+01 g/mol
          :  Hamiltonian                  GFN1-xTB          :
 * total energy  :   -57.7870359 Eh     change       -0.2492726E-09 Eh
 * total energy  :   -57.8022113 Eh     change       -0.1517539E-01 Eh
 * total energy  :   -57.8079692 Eh     change       -0.5757945E-02 Eh
 * total energy  :   -57.8093194 Eh     change       -0.1350200E-02 Eh
 * total energy  :   -57.8106743 Eh     change       -0.1354846E-02 Eh
 * total energy  :   -57.8116476 Eh     change       -0.9732904E-03 Eh
 * total energy  :   -57.8129256 Eh     change       -0.1278008E-02 Eh
 * total energy  :   -57.8144805 Eh     change       -0.1554901E-02 Eh
 * total energy  :   -57.8147701 Eh     change       -0.2896704E-03 Eh
 * total energy  :   -57.8164635 Eh     change       -0.1693385E-02 Eh
 * total energy  :   -57.8729103 Eh     change       -0.1075533E-04 Eh
 * total energy  :   -57.8729267 Eh     change       -0.1639747E-04 Eh
 * total energy  :   -57.8729409 Eh     change       -0.1423661E-04 Eh
 * total energy  :   -57.8729576 Eh     change       -0.1670523E-04 Eh
 * total energy  :   -57.8729718 Eh     change       -0.1423987E-04 Eh
 * total energy  :   -57.8729452 Eh     change        0.2660430E-04 Eh
 * total energy  :   -57.8729722 Eh     change       -0.2700511E-04 Eh
 * total energy  :   -57.8729780 Eh     change       -0.5729701E-05 Eh
 * total energy  :   -57.8729795 Eh     change       -0.1536872E-05 Eh
   *** GEOMETRY OPTIMIZATION CONVERGED AFTER 106 ITERATIONS ***

 final structure:
================
33
 xtb: 6.5.1 (579679a)
C            3.43083314647197        1.25935649109796       -1.87232729772215
O            2.99837001632225        0.19442159950719       -1.01835463404643
C            1.72960737682407        0.20859261900787       -0.63988837189513
O            0.94545936154668        1.07401847974079       -0.98139415652655
C            1.35253214521774       -0.93136872231209        0.24075401474975
C            2.15611626156570       -1.99214632329861        0.55951723724347
O            3.40990178855542       -2.15107084605227        0.12579541966911
C            1.65381619218398       -3.05943168398475        1.42469445255853
O            2.32272988863992       -4.03191027637018        1.73727149113650
N            0.36422416341071       -2.86963357446022        1.85439152697893
C           -0.38660425295356       -1.78509289994303        1.50265083377303
C           -1.77467106959100       -1.71845082590664        2.04203640075720
C           -2.37239838926096        2.00031298342942       -0.95768865475265
C           -1.69050083090476        1.96763749323807       -2.26637050955682
C           -1.58946706085834        1.93218874315086        0.28540557479448
N           -3.66161951256081        2.07672415955033       -0.90773515463441
N            0.06764622529870       -0.85478646746872        0.73229889519455
H            4.49632379324696        1.11222922753484       -2.03832296666705
H            3.24807100565313        2.22196046952875       -1.39043216160180
H            2.88772817952352        1.22021923962417       -2.81871149341702
H            3.76479523500295       -2.98778885425378        0.48206391379720
H           -0.02948465896994       -3.57622704348138        2.45530493143121
H           -2.38267533830173       -2.51531380598565        1.61293952651424
H           -2.21746440480642       -0.75913883096197        1.78801687446221
H           -1.77020679527601       -1.84109360780467        3.12452070389058
H           -1.11299115405703        2.88677990058959       -2.38415759834755
H           -0.97289955185429        1.14608688362209       -2.28419971012592
H           -2.39274924587484        1.87449541308378       -3.09131374007032
H           -2.20174161496488        2.10022702157787        1.16791815914048
H           -1.12771595288861        0.93650485671912        0.34819489533061
H           -0.76113186640555        2.64002936881429        0.24999297176855
H           -4.22652532131501        2.10684362990954       -1.74022179015473
H           -4.15730675862536        2.11482518255295       -0.03278458367160

          :  Hamiltonian                  GFN1-xTB          :
         :: total energy             -57.872979509734 Eh    ::
         :: gradient norm              0.000257028588 Eh/a0 ::
         :: HOMO-LUMO gap              2.415886445398 eV    ::
         :: SCC energy               -58.488975181403 Eh    ::
         :: -> Gsolv                  -0.111591551384 Eh    ::
         :: repulsion energy           0.633136554770 Eh    ::

    * Orbital Energies and Occupations

         #    Occupation            Energy/Eh            Energy/eV
      -------------------------------------------------------------
         1        2.0000           -0.8654656             -23.5505
       ...           ...                  ...                  ...
        35        2.0000           -0.5477183             -14.9042
        36        2.0000           -0.5455310             -14.8447
        37        2.0000           -0.5416077             -14.7379
        38        2.0000           -0.5377463             -14.6328
        39        2.0000           -0.5346818             -14.5494
        40        2.0000           -0.5262274             -14.3194
        41        2.0000           -0.5205094             -14.1638
        42        2.0000           -0.5051407             -13.7456
        43        2.0000           -0.4962867             -13.5046
        44        2.0000           -0.4947416             -13.4626
        45        2.0000           -0.4697063             -12.7814
        46        2.0000           -0.4593712             -12.5001
        47        2.0000           -0.4380855             -11.9209 (HOMO)
        48                         -0.3493033              -9.5050 (LUMO)
        49                         -0.3321132              -9.0373
        50                         -0.2887547              -7.8574
        51                         -0.2497175              -6.7952
        52                         -0.1710587              -4.6547
        53                         -0.1664667              -4.5298
        54                         -0.1620400              -4.4093
        55                         -0.1538422              -4.1863
        56                         -0.1438094              -3.9133
        57                         -0.1425349              -3.8786
        58                         -0.1165455              -3.1714
       ...                                ...                  ...
       100                          0.7143799              19.4393
      -------------------------------------------------------------
                  HL-Gap            0.0887822 Eh            2.4159 eV

Wiberg/Mayer (AO) data.
largest (>0.10) Wiberg bond orders for each atom

     #   Z sym  total        # sym  WBO       # sym  WBO       # sym  WBO
 ---------------------------------------------------------------------------
     1   6 C    3.866 --    18 H    0.985    19 H    0.979    20 H    0.979
                             2 O    0.891
     2   8 O    2.220 --     3 C    1.137     1 C    0.891     4 O    0.131
     3   6 C    3.848 --     4 O    1.616     2 O    1.137     5 C    1.007
     4   8 O    1.929 --     3 C    1.616     2 O    0.131
     5   6 C    3.963 --     6 C    1.506    17 N    1.167     3 C    1.007
     6   6 C    3.921 --     5 C    1.506     7 O    1.112     8 C    1.058
     7   8 O    2.089 --     6 C    1.112    21 H    0.804
     8   6 C    3.911 --     9 O    1.582    10 N    1.142     6 C    1.058
     9   8 O    1.905 --     8 C    1.582    10 N    0.134
    10   7 N    3.463 --    11 C    1.166     8 C    1.142    22 H    0.878
                             9 O    0.134
    11   6 C    3.928 --    17 N    1.581    10 N    1.166    12 C    1.027
    12   6 C    3.988 --    11 C    1.027    24 H    0.982    25 H    0.967
                            23 H    0.961
    13   6 C    3.854 --    16 N    1.615    15 C    1.079    14 C    1.068
    14   6 C    3.981 --    13 C    1.068    28 H    0.979    27 H    0.941
                            26 H    0.934
    15   6 C    3.980 --    13 C    1.079    29 H    0.978    31 H    0.945
                            30 H    0.903
    16   7 N    3.499 --    13 C    1.615    33 H    0.876    32 H    0.876
    17   7 N    3.060 --    11 C    1.581     5 C    1.167
    18   1 H    1.009 --     1 C    0.985
    19   1 H    1.007 --     1 C    0.979
    20   1 H    1.006 --     1 C    0.979
    21   1 H    0.843 --     7 O    0.804
    22   1 H    0.916 --    10 N    0.878
    23   1 H    0.995 --    12 C    0.961
    24   1 H    1.004 --    12 C    0.982
    25   1 H    0.994 --    12 C    0.967
    26   1 H    0.992 --    14 C    0.934
    27   1 H    1.006 --    14 C    0.941
    28   1 H    0.992 --    14 C    0.979
    29   1 H    0.993 --    15 C    0.978
    30   1 H    1.033 --    15 C    0.903
    31   1 H    1.000 --    15 C    0.945
    32   1 H    0.906 --    16 N    0.876
    33   1 H    0.907 --    16 N    0.876
 ---------------------------------------------------------------------------

           -------------------------------------------------
          | TOTAL ENERGY              -57.872979509734 Eh   |
          | GRADIENT NORM               0.000257028588 Eh/α |
          | HOMO-LUMO GAP               2.415886445398 eV   |
           -------------------------------------------------

 * finished run on 2023/06/20 at 15:08:06.934
