   * xtb version 6.5.1 (579679a) compiled by 'ehlert@majestix' on 2022-07-11
          program call               : /lustre/hpc/kemi/ree/PhD/git/ReactivityQM/dep/xtb-6.5.1/bin/xtb --gfn 1 /lustre/hpc/kemi/ree/PhD/git/ReactivityQM/calculations/R02/reac01prodE09/conf16/R02_reac01prodE09_conf16_gfn1.xyz --opt --vfukui --chrg -1 --uhf 0 --alpb DMSO

   ID    Z sym.   atoms
    1    6 C      1, 3, 5, 7-10, 12, 14, 16, 17, 20, 22, 24
    2    8 O      2, 4, 13, 15, 23, 25
    3    7 N      6, 11, 18, 19, 21
    4    1 H      26-43

      * Solvation model:               ALPB
        Solvent                        DMSO
        Solvent mass                       7.8130E+01 g/mol
          :  Hamiltonian                  GFN1-xTB          :
 * total energy  :   -83.8345362 Eh     change       -0.4978062E-10 Eh
 * total energy  :   -83.8443019 Eh     change       -0.9765704E-02 Eh
 * total energy  :   -83.8474649 Eh     change       -0.3162977E-02 Eh
 * total energy  :   -83.8480562 Eh     change       -0.5913204E-03 Eh
 * total energy  :   -83.8487620 Eh     change       -0.7057973E-03 Eh
 * total energy  :   -83.8494129 Eh     change       -0.6509625E-03 Eh
 * total energy  :   -83.8504546 Eh     change       -0.1041615E-02 Eh
 * total energy  :   -83.8513643 Eh     change       -0.9097423E-03 Eh
 * total energy  :   -83.8523206 Eh     change       -0.9562503E-03 Eh
 * total energy  :   -83.8528603 Eh     change       -0.5397040E-03 Eh
 * total energy  :   -83.8556595 Eh     change       -0.4873014E-04 Eh
 * total energy  :   -83.8557005 Eh     change       -0.4101036E-04 Eh
 * total energy  :   -83.8557199 Eh     change       -0.1941264E-04 Eh
 * total energy  :   -83.8557455 Eh     change       -0.2556990E-04 Eh
 * total energy  :   -83.8557586 Eh     change       -0.1312672E-04 Eh
 * total energy  :   -83.8557708 Eh     change       -0.1219998E-04 Eh
 * total energy  :   -83.8557752 Eh     change       -0.4412581E-05 Eh
 * total energy  :   -83.8557780 Eh     change       -0.2802246E-05 Eh
 * total energy  :   -83.8557812 Eh     change       -0.3211716E-05 Eh
   *** GEOMETRY OPTIMIZATION CONVERGED AFTER 38 ITERATIONS ***

 final structure:
================
43
 xtb: 6.5.1 (579679a)
C           -2.32035189548925        3.97309657635529        0.48909535740186
O           -2.16980900348583        2.57438233500755        0.26434995599500
C           -3.18870871502904        1.97316842778227       -0.38157400932721
O           -4.17448429801344        2.61001027054921       -0.76212378001479
C           -3.02729610927302        0.54142504759085       -0.56903433506215
N           -1.87111652738781       -0.04562298192881       -0.10395374639668
C           -1.71574214147185       -1.32142599866476       -0.22698751081588
C           -0.44932258928879       -1.94418102815190        0.34383150582798
C           -0.61109077760063       -1.92704028899326        1.87940364330453
C           -0.22168498880671       -3.37261196160604       -0.15897391159437
N            0.64796340068086       -1.08922487224818       -0.10202044858122
C            1.93148582976890       -1.22635102938643        0.50925260779833
O            2.27489554786665       -2.28707521127538        1.10396589258295
C            2.79081944466190       -0.17641733950992        0.24854979669655
O            2.41378573101587        1.04787599415167       -0.33026055154682
C            3.48082888794263        1.84705907574163       -0.15999400199287
C            3.43457310695204        3.22784504302915       -0.70852735394827
N            4.47359425618291        1.33483073171821        0.46353467077129
N            4.08351480683761        0.02410982168755        0.84717616862202
C            5.11158529147230       -0.95279643073245        0.47372399818521
N           -2.67064526045453       -2.11271322947906       -0.79821674634162
C           -3.87488786073228       -1.63888073527405       -1.32308575981128
O           -4.66920725886056       -2.43041503211285       -1.83264397611829
C           -4.02671607104583       -0.21433202271849       -1.18097555231413
O           -5.16908848391918        0.33202909971366       -1.65328602345563
H           -2.37037400166338        4.51007051582963       -0.46233022935702
H           -1.44960443847223        4.29869681119698        1.05590000275873
H           -3.23278819962735        4.17217502054517        1.05817362857751
H           -0.70804563960588       -0.89871490319814        2.22683880611096
H           -1.50759279715771       -2.47990348585315        2.15751030706961
H            0.25183019729437       -2.38989641447751        2.35548204098887
H           -0.18420344116791       -3.38629294173081       -1.24761309625096
H           -1.01447944042409       -4.03439624001882        0.18599668978896
H            0.72574495234728       -3.74643066430561        0.22668200209436
H            0.35607705454779       -0.11719817394143       -0.17082917751638
H            2.60193493894373        3.77891023052477       -0.27252187870186
H            3.28898841398018        3.19390556484949       -1.78811801532226
H            4.36585305520456        3.74249184439318       -0.48472144490737
H            5.27892277287160       -0.95766553801409       -0.60722210167972
H            4.76859228055243       -1.93389944755704        0.80047495274425
H            6.03640387923748       -0.69370539741536        0.98622269953869
H           -2.53711075064489       -3.10878306936853       -0.86935043778724
H           -5.15304515873727        1.30389102729542       -1.48180063801634

          :  Hamiltonian                  GFN1-xTB          :
         :: total energy             -83.855781228165 Eh    ::
         :: gradient norm              0.000684272379 Eh/a0 ::
         :: HOMO-LUMO gap              0.076028777345 eV    ::
         :: SCC energy               -84.612129675404 Eh    ::
         :: -> Gsolv                  -0.104450340870 Eh    ::
         :: repulsion energy           0.782316593695 Eh    ::

    * Orbital Energies and Occupations

         #    Occupation            Energy/Eh            Energy/eV
      -------------------------------------------------------------
         1        2.0000           -0.8144829             -22.1632
       ...           ...                  ...                  ...
        56        2.0000           -0.4747390             -12.9183
        57        2.0000           -0.4698403             -12.7850
        58        2.0000           -0.4597528             -12.5105
        59        2.0000           -0.4565404             -12.4231
        60        2.0000           -0.4471840             -12.1685
        61        2.0000           -0.4377191             -11.9109
        62        2.0000           -0.4317353             -11.7481
        63        2.0000           -0.4193291             -11.4105
        64        2.0000           -0.4094703             -11.1423
        65        2.0000           -0.4044114             -11.0046
        66        2.0000           -0.3968855             -10.7998
        67        2.0000           -0.3858511             -10.4995
        68        1.6263           -0.3064990              -8.3403 (HOMO)
        69        0.3737           -0.3037050              -8.2642 (LUMO)
        70                         -0.2535571              -6.8996
        71                         -0.2280017              -6.2042
        72                         -0.2137767              -5.8172
        73                         -0.1539972              -4.1905
        74                         -0.1306405              -3.5549
        75                         -0.1294831              -3.5234
        76                         -0.1261763              -3.4334
        77                         -0.1189393              -3.2365
        78                         -0.1044318              -2.8417
        79                         -0.1036706              -2.8210
       ...                                ...                  ...
       136                          0.7097754              19.3140
      -------------------------------------------------------------
                  HL-Gap            0.0027940 Eh            0.0760 eV

Wiberg/Mayer (AO) data.
largest (>0.10) Wiberg bond orders for each atom

     #   Z sym  total        # sym  WBO       # sym  WBO       # sym  WBO
 ---------------------------------------------------------------------------
     1   6 C    3.886 --    27 H    0.987    28 H    0.980    26 H    0.980
                             2 O    0.913
     2   8 O    2.154 --     3 C    1.072     1 C    0.913     4 O    0.108
     3   6 C    3.764 --     4 O    1.528     5 C    1.096     2 O    1.072
     4   8 O    1.846 --     3 C    1.528     2 O    0.108
     5   6 C    3.872 --    24 C    1.375     6 N    1.160     3 C    1.096
     6   7 N    3.016 --     7 C    1.591     5 C    1.160
     7   6 C    3.907 --     6 N    1.591    21 N    1.163     8 C    0.975
     8   6 C    3.962 --    10 C    0.999     7 C    0.975     9 C    0.969
                            11 N    0.962
     9   6 C    3.990 --    30 H    0.987    29 H    0.986    31 H    0.979
                             8 C    0.969
    10   6 C    3.993 --     8 C    0.999    32 H    0.986    33 H    0.984
                            34 H    0.974
    11   7 N    3.085 --    12 C    1.009     8 C    0.962    35 H    0.918
    12   6 C    3.868 --    14 C    1.382    13 O    1.372    11 N    1.009
    13   8 O    1.685 --    12 C    1.372    14 C    0.114
    14   6 C    3.525 --    12 C    1.382    19 N    0.987    15 O    0.917
                            13 O    0.114
    15   8 O    2.179 --    16 C    1.069    14 C    0.917    18 N    0.111
    16   6 C    3.895 --    18 N    1.704    15 O    1.069    17 C    1.020
    17   6 C    3.993 --    16 C    1.020    38 H    0.986    36 H    0.971
                            37 H    0.970
    18   7 N    2.930 --    16 C    1.704    19 N    1.008    15 O    0.111
    19   7 N    3.079 --    18 N    1.008    14 C    0.987    20 C    0.949
    20   6 C    3.951 --    41 H    0.989    40 H    0.984    39 H    0.983
                            19 N    0.949
    21   7 N    3.377 --     7 C    1.163    22 C    1.072    42 H    0.892
                            23 O    0.114
    22   6 C    3.852 --    23 O    1.531    24 C    1.135    21 N    1.072
    23   8 O    1.801 --    22 C    1.531    21 N    0.114
    24   6 C    3.796 --     5 C    1.375    22 C    1.135    25 O    1.081
    25   8 O    2.022 --    24 C    1.081    43 H    0.784
    26   1 H    1.009 --     1 C    0.980
    27   1 H    1.014 --     1 C    0.987
    28   1 H    1.010 --     1 C    0.980
    29   1 H    1.010 --     9 C    0.986
    30   1 H    1.005 --     9 C    0.987
    31   1 H    1.019 --     9 C    0.979
    32   1 H    1.007 --    10 C    0.986
    33   1 H    1.002 --    10 C    0.984
    34   1 H    1.023 --    10 C    0.974
    35   1 H    0.981 --    11 N    0.918
    36   1 H    1.002 --    17 C    0.971
    37   1 H    1.001 --    17 C    0.970
    38   1 H    1.003 --    17 C    0.986
    39   1 H    1.008 --    20 C    0.983
    40   1 H    1.029 --    20 C    0.984
    41   1 H    1.018 --    20 C    0.989
    42   1 H    0.945 --    21 N    0.892
    43   1 H    0.868 --    25 O    0.784
 ---------------------------------------------------------------------------

           -------------------------------------------------
          | TOTAL ENERGY              -83.855781228165 Eh   |
          | GRADIENT NORM               0.000684272379 Eh/α |
          | HOMO-LUMO GAP               0.076028777345 eV   |
           -------------------------------------------------

 * finished run on 2023/06/20 at 15:09:40.146
