   * xtb version 6.5.1 (579679a) compiled by 'ehlert@majestix' on 2022-07-11
          program call               : /lustre/hpc/kemi/ree/PhD/git/ReactivityQM/dep/xtb-6.5.1/bin/xtb --gfn 1 /lustre/hpc/kemi/ree/PhD/git/ReactivityQM/calculations/R02methylcation/reac01prodN02/conf04/R02methylcation_reac01prodN02_conf04_gfn1.xyz --opt --vfukui --chrg 0 --uhf 0 --alpb DMSO

   ID    Z sym.   atoms
    1    6 C      1, 3, 5, 7-10, 12, 14, 15, 18, 19, 22, 24
    2    8 O      2, 4, 13, 20, 23, 25
    3    7 N      6, 11, 16, 17, 21
    4    1 H      26-42

      * Solvation model:               ALPB
        Solvent                        DMSO
        Solvent mass                       7.8130E+01 g/mol
          :  Hamiltonian                  GFN1-xTB          :
 * total energy  :   -82.9420028 Eh     change       -0.5042011E-10 Eh
 * total energy  :   -82.9603001 Eh     change       -0.1829730E-01 Eh
 * total energy  :   -82.9681415 Eh     change       -0.7841364E-02 Eh
 * total energy  :   -82.9693650 Eh     change       -0.1223538E-02 Eh
 * total energy  :   -82.9701759 Eh     change       -0.8109071E-03 Eh
 * total energy  :   -82.9704839 Eh     change       -0.3079617E-03 Eh
 * total energy  :   -82.9707429 Eh     change       -0.2590060E-03 Eh
 * total energy  :   -82.9709156 Eh     change       -0.1727381E-03 Eh
 * total energy  :   -82.9710294 Eh     change       -0.1137336E-03 Eh
 * total energy  :   -82.9711238 Eh     change       -0.9442053E-04 Eh
 * total energy  :   -82.9715204 Eh     change       -0.6713298E-05 Eh
 * total energy  :   -82.9715297 Eh     change       -0.9334521E-05 Eh
 * total energy  :   -82.9715429 Eh     change       -0.1324886E-04 Eh
 * total energy  :   -82.9715576 Eh     change       -0.1464372E-04 Eh
 * total energy  :   -82.9715702 Eh     change       -0.1265365E-04 Eh
 * total energy  :   -82.9715792 Eh     change       -0.8992462E-05 Eh
 * total energy  :   -82.9715869 Eh     change       -0.7724300E-05 Eh
 * total energy  :   -82.9715928 Eh     change       -0.5884228E-05 Eh
 * total energy  :   -82.9715974 Eh     change       -0.4544330E-05 Eh
   *** GEOMETRY OPTIMIZATION CONVERGED AFTER 32 ITERATIONS ***

 final structure:
================
42
 xtb: 6.5.1 (579679a)
C           -6.58136753199242       -1.40634368444125       -1.50069593861815
O           -5.40122940653010       -0.63400809789234       -1.68405073365191
C           -4.44392186013125       -0.78182671063349       -0.74043966936690
O           -4.60437072593287       -1.54146498693947        0.20585726556418
C           -3.24912523487768        0.02794308282076       -0.95527524654840
N           -2.31009154398147       -0.13661963672596        0.04175056275085
C           -1.20380298025251        0.50459212021363        0.01254412061704
C           -0.20609532164638        0.35432199598457        1.14038650394290
C           -0.57926434053863       -0.85060795486445        2.00550471060015
C           -0.15623832280553        1.65231208411687        1.95625119595793
N            1.12181231792987        0.11747409536972        0.51797843326014
C            2.26007423720250       -0.02742499534862        1.14726566799396
O            2.28311396388560        0.01934353804862        2.44837884972538
C            3.48928140524878       -0.12674332199480        3.21234849693117
C            3.44208373491020       -0.23936909737058        0.34713249407245
N            4.68362936993850       -0.40830905853785        0.71633455043805
N            5.40771643559087       -0.57290970778515       -0.40671272063831
C            4.57834202104728       -0.49864458612799       -1.41216832900690
C            4.88783708903100       -0.62572364417569       -2.84867679762828
O            3.32273767612735       -0.28947729357423       -0.99691615866177
N           -0.89474421478270        1.39594667976592       -0.99724923460398
C           -1.73306653255709        1.65399101942404       -2.05950322681576
O           -1.39100325058416        2.45510256042484       -2.92014164823308
C           -3.04858957808687        0.90263459997027       -2.05780834169606
O           -3.84031820312173        1.09845215092601       -2.99298316185251
H           -7.23691789102683       -1.19192708909967       -2.34402247280625
H           -6.34361672212488       -2.47418157089350       -1.47671037507052
H           -7.07887057538620       -1.13430902536849       -0.56459598319495
H           -0.51532467648450       -1.76359498884125        1.41572195810651
H            0.07968833895760       -0.93020325957295        2.86551152284996
H           -1.60581502183788       -0.72581496506066        2.34898892572735
H            0.49440971102458        1.54719790067300        2.82005740833987
H            0.20757919778910        2.46867124743813        1.33561120250743
H           -1.16243409915597        1.88740111292096        2.30109496795517
H            1.16080606792788        0.05932161625368       -0.49220409098382
H            3.93704806010746       -1.10305792753418        3.02056012231149
H            4.19640672552609        0.66077587644838        2.94852721124441
H            3.18600261266530       -0.03938769259529        4.25389703620338
H            5.95808019152985       -0.76373778691284       -2.98247614281801
H            4.35156542900262       -1.47854091367432       -3.26654910948254
H            4.56022074199091        0.26803576921210       -3.38021127729187
H           -0.02222829359683        1.89267854595730       -0.98231354813131

          :  Hamiltonian                  GFN1-xTB          :
         :: total energy             -82.971597377456 Eh    ::
         :: gradient norm              0.000494932015 Eh/a0 ::
         :: HOMO-LUMO gap              0.212741858841 eV    ::
         :: SCC energy               -83.747907515618 Eh    ::
         :: -> Gsolv                  -0.104147114609 Eh    ::
         :: repulsion energy           0.801666070301 Eh    ::

    * Orbital Energies and Occupations

         #    Occupation            Energy/Eh            Energy/eV
      -------------------------------------------------------------
         1        2.0000           -0.8979288             -24.4339
       ...           ...                  ...                  ...
        55        2.0000           -0.5076593             -13.8141
        56        2.0000           -0.5027838             -13.6814
        57        2.0000           -0.4982462             -13.5580
        58        2.0000           -0.4919118             -13.3856
        59        2.0000           -0.4836015             -13.1595
        60        2.0000           -0.4797885             -13.0557
        61        2.0000           -0.4699026             -12.7867
        62        2.0000           -0.4670655             -12.7095
        63        2.0000           -0.4521062             -12.3024
        64        2.0000           -0.4437972             -12.0763
        65        2.0000           -0.4299312             -11.6990
        66        2.0000           -0.3889690             -10.5844
        67        1.9679           -0.3768132             -10.2536 (HOMO)
        68        0.0321           -0.3689951             -10.0409 (LUMO)
        69                         -0.2843554              -7.7377
        70                         -0.2790344              -7.5929
        71                         -0.2544645              -6.9243
        72                         -0.2493765              -6.7859
        73                         -0.2056672              -5.5965
        74                         -0.1585847              -4.3153
        75                         -0.1522176              -4.1421
        76                         -0.1362120              -3.7065
        77                         -0.1339767              -3.6457
        78                         -0.1238858              -3.3711
       ...                                ...                  ...
       134                          0.7545327              20.5319
      -------------------------------------------------------------
                  HL-Gap            0.0078181 Eh            0.2127 eV

Wiberg/Mayer (AO) data.
largest (>0.10) Wiberg bond orders for each atom

     #   Z sym  total        # sym  WBO       # sym  WBO       # sym  WBO
 ---------------------------------------------------------------------------
     1   6 C    3.895 --    26 H    0.987    28 H    0.980    27 H    0.980
                             2 O    0.921
     2   8 O    2.168 --     3 C    1.060     1 C    0.921     4 O    0.113
     3   6 C    3.850 --     4 O    1.584     5 C    1.099     2 O    1.060
     4   8 O    1.855 --     3 C    1.584     2 O    0.113
     5   6 C    3.895 --    24 C    1.260     6 N    1.166     3 C    1.099
                            25 O    0.124
     6   7 N    3.036 --     7 C    1.628     5 C    1.166
     7   6 C    3.924 --     6 N    1.628    21 N    1.089     8 C    0.978
     8   6 C    3.893 --     9 C    0.989    10 C    0.979     7 C    0.978
                            11 N    0.875
     9   6 C    3.983 --     8 C    0.989    30 H    0.984    29 H    0.984
                            31 H    0.979
    10   6 C    3.982 --    33 H    0.983    34 H    0.982    32 H    0.981
                             8 C    0.979
    11   7 N    3.471 --    12 C    1.454     8 C    0.875    35 H    0.874
                            13 O    0.108
    12   6 C    3.879 --    11 N    1.454    13 O    1.188    15 C    1.090
    13   8 O    2.270 --    12 C    1.188    14 C    0.864    11 N    0.108
    14   6 C    3.831 --    38 H    0.980    37 H    0.974    36 H    0.974
                            13 O    0.864
    15   6 C    3.881 --    16 N    1.543    12 C    1.090    20 O    1.046
    16   7 N    3.014 --    15 C    1.543    17 N    1.248
    17   7 N    2.986 --    18 C    1.554    16 N    1.248
    18   6 C    3.847 --    17 N    1.554    20 O    1.086    19 C    1.039
    19   6 C    3.979 --    18 C    1.039    39 H    0.980    41 H    0.956
                            40 H    0.954
    20   8 O    2.328 --    18 C    1.086    15 C    1.046
    21   7 N    3.412 --    22 C    1.142     7 C    1.089    42 H    0.896
                            23 O    0.133
    22   6 C    3.871 --    23 O    1.599    21 N    1.142    24 C    0.962
    23   8 O    1.875 --    22 C    1.599    21 N    0.133
    24   6 C    3.937 --    25 O    1.537     5 C    1.260    22 C    0.962
    25   8 O    1.833 --    24 C    1.537     5 C    0.124
    26   1 H    1.015 --     1 C    0.987
    27   1 H    1.013 --     1 C    0.980
    28   1 H    1.013 --     1 C    0.980
    29   1 H    1.004 --     9 C    0.984
    30   1 H    1.004 --     9 C    0.984
    31   1 H    1.012 --     9 C    0.979
    32   1 H    1.003 --    10 C    0.981
    33   1 H    0.999 --    10 C    0.983
    34   1 H    1.000 --    10 C    0.982
    35   1 H    0.925 --    11 N    0.874
    36   1 H    1.009 --    14 C    0.974
    37   1 H    1.008 --    14 C    0.974
    38   1 H    1.003 --    14 C    0.980
    39   1 H    0.995 --    19 C    0.980
    40   1 H    0.992 --    19 C    0.954
    41   1 H    0.992 --    19 C    0.956
    42   1 H    0.940 --    21 N    0.896
 ---------------------------------------------------------------------------

           -------------------------------------------------
          | TOTAL ENERGY              -82.971597377456 Eh   |
          | GRADIENT NORM               0.000494932015 Eh/α |
          | HOMO-LUMO GAP               0.212741858841 eV   |
           -------------------------------------------------

 * finished run on 2023/06/21 at 17:31:12.559
