   * xtb version 6.5.1 (579679a) compiled by 'ehlert@majestix' on 2022-07-11
          program call               : /lustre/hpc/kemi/ree/PhD/git/ReactivityQM/dep/xtb-6.5.1/bin/xtb --gfn 1 /lustre/hpc/kemi/ree/PhD/git/ReactivityQM/calculations/R02oxygendeprot/reac01prodE06/conf05/R02oxygendeprot_reac01prodE06_conf05_gfn1.xyz --opt --vfukui --chrg -2 --uhf 0 --alpb DMSO

   ID    Z sym.   atoms
    1    6 C      1, 3, 5, 6, 8, 11-15, 17, 19, 22, 23
    2    8 O      2, 4, 7, 9, 18, 24
    3    7 N      10, 16, 20, 21, 25
    4    1 H      26-42

      * Solvation model:               ALPB
        Solvent                        DMSO
        Solvent mass                       7.8130E+01 g/mol
          :  Hamiltonian                  GFN1-xTB          :
 * total energy  :   -83.6052035 Eh     change       -0.2410161E-10 Eh
 * total energy  :   -83.6160497 Eh     change       -0.1084615E-01 Eh
 * total energy  :   -83.6194261 Eh     change       -0.3376379E-02 Eh
 * total energy  :   -83.6199600 Eh     change       -0.5339213E-03 Eh
 * total energy  :   -83.6204022 Eh     change       -0.4422163E-03 Eh
 * total energy  :   -83.6207283 Eh     change       -0.3260692E-03 Eh
 * total energy  :   -83.6210696 Eh     change       -0.3413753E-03 Eh
 * total energy  :   -83.6213591 Eh     change       -0.2894809E-03 Eh
 * total energy  :   -83.6215308 Eh     change       -0.1716875E-03 Eh
 * total energy  :   -83.6216288 Eh     change       -0.9802687E-04 Eh
 * total energy  :   -83.6220053 Eh     change       -0.1447829E-04 Eh
 * total energy  :   -83.6220203 Eh     change       -0.1502286E-04 Eh
 * total energy  :   -83.6220252 Eh     change       -0.4903113E-05 Eh
 * total energy  :   -83.6220336 Eh     change       -0.8340095E-05 Eh
 * total energy  :   -83.6220386 Eh     change       -0.5027276E-05 Eh
 * total energy  :   -83.6220470 Eh     change       -0.8385029E-05 Eh
 * total energy  :   -83.6220539 Eh     change       -0.6879102E-05 Eh
 * total energy  :   -83.6220591 Eh     change       -0.5267204E-05 Eh
 * total energy  :   -83.6220624 Eh     change       -0.3243271E-05 Eh
   *** GEOMETRY OPTIMIZATION CONVERGED AFTER 30 ITERATIONS ***

 final structure:
================
42
 xtb: 6.5.1 (579679a)
C           -4.55583713915570        2.95441051324904       -1.84487321958683
O           -3.76226635353725        2.39473907506453       -0.81625074465420
C           -3.02049209895816        1.29728387730324       -1.17019757102718
O           -3.06922580908874        0.88838186633245       -2.33328580084776
C           -2.21924719629602        0.71009255391279       -0.10458935296310
C           -2.16204448433918        1.26473540070189        1.21174269062728
O           -2.90306215472739        2.19259065269285        1.66232638934959
C           -1.07969880795271        0.71938281551954        2.08081557784023
O           -0.76320070831819        1.18796921542296        3.18371540732150
N           -0.31783891105749       -0.30588220436228        1.54955056992769
C           -0.87007635903108       -1.15688661234748        0.49632850413805
C           -1.89469738375223       -2.12902841665248        1.14296247108086
C            0.30923512834955       -1.92803685561932       -0.19089684970507
C            0.98849575003621       -2.94344704736362        0.74000352747694
C           -0.20284937610669       -2.63945260043347       -1.45073319220577
N            1.27091026738385       -0.88825998385297       -0.56764440174938
C            2.47755625364867       -1.14292882506105       -1.15737235610173
O            2.77975149590619       -2.22135421061764       -1.70193854745515
C            3.38577966583831       -0.01116490096305       -1.14829158442044
N            4.59209507806973        0.05555345159968       -1.69181408130853
N            5.07568702592605        1.30412190777211       -1.41644225976056
C            4.16817369701975        1.92594085904717       -0.73493981884408
C            4.23983322824998        3.30753675036988       -0.20081216705257
O            3.06728577242489        1.17059124474591       -0.52280465433065
N           -1.50933427729029       -0.37524170138408       -0.51725167468370
H           -3.93801725173314        3.28147352036145       -2.68903837945580
H           -5.07704858769364        3.81371768003083       -1.42227832255158
H           -5.29016632677779        2.22918432366870       -2.21378772939000
H            0.25812306169124       -0.77511914589371        2.23123185739193
H           -2.27892915213714       -2.82645534942575        0.40205758080947
H           -1.44240731168704       -2.68457239619232        1.96137770972799
H           -2.72816097839464       -1.54789990704352        1.53780778240080
H            1.33365779167512       -2.46588466181149        1.65561991722589
H            1.84799410380376       -3.38803083507020        0.23864960624853
H            0.29764902451241       -3.74303803230643        0.99986488590270
H            0.61948332695738       -3.10918103178653       -1.98751601184984
H           -0.91760668183207       -3.41442197281709       -1.17856471604908
H           -0.69675327313993       -1.91956206203200       -2.10567234917344
H            1.21576786802786       -0.04758398802926       -0.00175020077452
H            4.10713464439482        3.30229415420465        0.88119655209056
H            5.20931298140173        3.73612477799962       -0.44159987411809
H            3.45503545767028        3.92730910105552       -0.63577816950504

          :  Hamiltonian                  GFN1-xTB          :
         :: total energy             -83.622062379849 Eh    ::
         :: gradient norm              0.000311007880 Eh/a0 ::
         :: HOMO-LUMO gap              0.075360690799 eV    ::
         :: SCC energy               -84.342171226720 Eh    ::
         :: -> Gsolv                  -0.272828856134 Eh    ::
         :: repulsion energy           0.747284462998 Eh    ::

    * Orbital Energies and Occupations

         #    Occupation            Energy/Eh            Energy/eV
      -------------------------------------------------------------
         1        2.0000           -0.8178791             -22.2556
       ...           ...                  ...                  ...
        56        2.0000           -0.4417547             -12.0208
        57        2.0000           -0.4386546             -11.9364
        58        2.0000           -0.4191218             -11.4049
        59        2.0000           -0.4159463             -11.3185
        60        2.0000           -0.4143643             -11.2754
        61        2.0000           -0.4076612             -11.0930
        62        2.0000           -0.4046177             -11.0102
        63        2.0000           -0.3961538             -10.7799
        64        2.0000           -0.3918983             -10.6641
        65        2.0000           -0.3804297             -10.3520
        66        2.0000           -0.3642166              -9.9108
        67        2.0000           -0.3343844              -9.0991
        68        1.6223           -0.2752628              -7.4903 (HOMO)
        69        0.3777           -0.2724933              -7.4149 (LUMO)
        70                         -0.2385309              -6.4908
        71                         -0.2215046              -6.0274
        72                         -0.1656327              -4.5071
        73                         -0.1517203              -4.1285
        74                         -0.1284917              -3.4964
        75                         -0.1123934              -3.0584
        76                         -0.1066211              -2.9013
        77                         -0.0992421              -2.7005
        78                         -0.0854860              -2.3262
        79                         -0.0832771              -2.2661
       ...                                ...                  ...
       134                          0.7393117              20.1177
      -------------------------------------------------------------
                  HL-Gap            0.0027695 Eh            0.0754 eV

Wiberg/Mayer (AO) data.
largest (>0.10) Wiberg bond orders for each atom

     #   Z sym  total        # sym  WBO       # sym  WBO       # sym  WBO
 ---------------------------------------------------------------------------
     1   6 C    3.912 --    27 H    0.987    28 H    0.980    26 H    0.980
                             2 O    0.939
     2   8 O    2.136 --     3 C    1.016     1 C    0.939     4 O    0.101
     3   6 C    3.813 --     4 O    1.546     5 C    1.114     2 O    1.016
     4   8 O    1.813 --     3 C    1.546     2 O    0.101
     5   6 C    3.910 --    25 N    1.285     6 C    1.224     3 C    1.114
     6   6 C    3.865 --     7 O    1.413     5 C    1.224     8 C    1.012
     7   8 O    1.654 --     6 C    1.413
     8   6 C    3.855 --     9 O    1.536    10 N    1.138     6 C    1.012
     9   8 O    1.796 --     8 C    1.536    10 N    0.123
    10   7 N    3.242 --     8 C    1.138    11 C    0.925    29 H    0.917
                             9 O    0.123
    11   6 C    3.942 --    25 N    1.025    12 C    0.963    13 C    0.949
                            10 N    0.925
    12   6 C    3.974 --    31 H    0.985    32 H    0.984    30 H    0.983
                            11 C    0.963
    13   6 C    3.934 --    15 C    0.998    14 C    0.993    11 C    0.949
                            16 N    0.932
    14   6 C    3.992 --    13 C    0.993    35 H    0.984    33 H    0.982
                            34 H    0.981
    15   6 C    3.994 --    13 C    0.998    37 H    0.984    36 H    0.982
                            38 H    0.980
    16   7 N    3.253 --    17 C    1.188    13 C    0.932    39 H    0.903
                            18 O    0.140
    17   6 C    3.816 --    18 O    1.466    16 N    1.188    19 C    1.085
    18   8 O    1.740 --    17 C    1.466    16 N    0.140
    19   6 C    3.727 --    20 N    1.470    17 C    1.085    24 O    0.992
    20   7 N    2.800 --    19 C    1.470    21 N    1.189
    21   7 N    2.980 --    22 C    1.625    20 N    1.189
    22   6 C    3.828 --    21 N    1.625    24 O    1.053    23 C    1.026
    23   6 C    3.993 --    22 C    1.026    41 H    0.985    40 H    0.970
                            42 H    0.969
    24   8 O    2.220 --    22 C    1.053    19 C    0.992
    25   7 N    2.627 --     5 C    1.285    11 C    1.025
    26   1 H    1.018 --     1 C    0.980
    27   1 H    1.018 --     1 C    0.987
    28   1 H    1.017 --     1 C    0.980
    29   1 H    0.968 --    10 N    0.917
    30   1 H    1.012 --    12 C    0.983
    31   1 H    1.006 --    12 C    0.985
    32   1 H    1.011 --    12 C    0.984
    33   1 H    1.005 --    14 C    0.982
    34   1 H    1.014 --    14 C    0.981
    35   1 H    1.007 --    14 C    0.984
    36   1 H    1.021 --    15 C    0.982
    37   1 H    1.009 --    15 C    0.984
    38   1 H    1.036 --    15 C    0.980
    39   1 H    0.977 --    16 N    0.903
    40   1 H    0.999 --    23 C    0.970
    41   1 H    1.003 --    23 C    0.985
    42   1 H    1.000 --    23 C    0.969
 ---------------------------------------------------------------------------

           -------------------------------------------------
          | TOTAL ENERGY              -83.622062379849 Eh   |
          | GRADIENT NORM               0.000311007880 Eh/α |
          | HOMO-LUMO GAP               0.075360690799 eV   |
           -------------------------------------------------

 * finished run on 2023/06/21 at 17:07:43.809
