   * xtb version 6.5.1 (579679a) compiled by 'ehlert@majestix' on 2022-07-11
          program call               : /lustre/hpc/kemi/ree/PhD/git/ReactivityQM/dep/xtb-6.5.1/bin/xtb --gfn 1 /lustre/hpc/kemi/ree/PhD/git/ReactivityQM/calculations/RaltegravirCLI/reac02prodN13/conf20/RaltegravirCLI_reac02prodN13_conf20_gfn1.xyz --opt --vfukui --chrg 1 --uhf 0 --alpb DMSO

   ID    Z sym.   atoms
    1    6 C      1, 3-6, 9, 10, 13-17, 19-21, 23, 24
    2    7 N      2, 7, 8, 12
    3    8 O      11, 22, 25
    4    9 F      18
    5    1 H      26-47

      * Solvation model:               ALPB
        Solvent                        DMSO
        Solvent mass                       7.8130E+01 g/mol
          :  Hamiltonian                  GFN1-xTB          :
 * total energy  :   -79.3998868 Eh     change       -0.1429726E-08 Eh
 * total energy  :   -79.4192268 Eh     change       -0.1934004E-01 Eh
 * total energy  :   -79.4296199 Eh     change       -0.1039314E-01 Eh
 * total energy  :   -79.4331647 Eh     change       -0.3544805E-02 Eh
 * total energy  :   -79.4355871 Eh     change       -0.2422310E-02 Eh
 * total energy  :   -79.4366212 Eh     change       -0.1034141E-02 Eh
 * total energy  :   -79.4371699 Eh     change       -0.5487460E-03 Eh
 * total energy  :   -79.4375683 Eh     change       -0.3983269E-03 Eh
 * total energy  :   -79.4378157 Eh     change       -0.2474630E-03 Eh
 * total energy  :   -79.4380028 Eh     change       -0.1870962E-03 Eh
 * total energy  :   -79.4935725 Eh     change       -0.1902073E-04 Eh
 * total energy  :   -79.4935916 Eh     change       -0.1911473E-04 Eh
 * total energy  :   -79.4936090 Eh     change       -0.1735429E-04 Eh
 * total energy  :   -79.4936278 Eh     change       -0.1877718E-04 Eh
 * total energy  :   -79.4936437 Eh     change       -0.1591135E-04 Eh
 * total energy  :   -79.4936565 Eh     change       -0.1286527E-04 Eh
 * total energy  :   -79.4936628 Eh     change       -0.6230061E-05 Eh
 * total energy  :   -79.4936688 Eh     change       -0.6068543E-05 Eh
 * total energy  :   -79.4936731 Eh     change       -0.4267457E-05 Eh
   *** GEOMETRY OPTIMIZATION CONVERGED AFTER 86 ITERATIONS ***

 final structure:
================
47
 xtb: 6.5.1 (579679a)
C           -3.54148275449530       -1.42373394124632        1.84706723353671
N           -2.47474277557262       -1.04060001671030        0.91725748880167
C           -2.40555983074396        0.11501777667648        0.25816010808635
C           -3.53025921211319        1.08624174697046        0.05137689124525
C           -3.48865438013864        2.08126012268427        1.22882775093931
C           -3.30304882803219        1.83759769338205       -1.27540765255069
N           -4.81086603253576        0.41225908805549        0.03931418530062
N           -1.20267416140238        0.55323615516569       -0.16915252954726
C           -0.17806262595359       -0.21156544345202       -0.34031300792575
C            1.12780243805687        0.49602494279372       -0.63808208578094
O            1.24489405381530        1.68605099665416       -0.40332709830150
N            2.07310989541727       -0.25981792438849       -1.20840069655228
C            3.35804769123684        0.33437537593333       -1.57618798117141
C            4.22841145899918        0.46839590258077       -0.34554262395052
C            4.88201674307381       -0.64888762944908        0.16884455994100
C            5.66271678228217       -0.54242469639045        1.31083072469908
C            5.76839094353881        0.69578576778995        1.91950155917190
F            6.52003338870655        0.80664865951009        3.02455100237841
C            5.12671594246363        1.82262474112994        1.43773578919633
C            4.34738120619222        1.69807117468153        0.29624300622806
C           -0.38541737789900       -1.68826417431806       -0.26854075783104
O            0.80495366934249       -2.35885344529643       -0.00692932781580
C           -1.42018871978198       -1.98937981278554        0.81254180729158
C           -1.02766956925168       -2.18427959798351       -1.59499494626953
O           -1.43334821107930       -3.00128321996125        1.44852655687708
H           -4.43031681757484       -0.83553264697130        1.63351022709361
H           -3.19224663478449       -1.23716622038723        2.86237732512518
H           -3.73924346573923       -2.48628931975227        1.71606055979142
H           -3.69867949406422        1.56385077626320        2.16292303124815
H           -4.24773112468338        2.84352573922738        1.06401668321594
H           -2.50970316161697        2.55431663693981        1.28754782861260
H           -3.27670961348309        1.12999388668166       -2.10172852591672
H           -2.36696547055276        2.39297992631762       -1.24966059690107
H           -4.12785436282738        2.53037203845903       -1.42807724793897
H           -4.89063814447681       -0.17390402805449       -0.77861281576301
H           -5.55554469247157        1.09472599190502        0.02049771652280
H            1.96210623491358       -1.25440687261482       -1.31088424972715
H            3.81903757764242       -0.31910151488775       -2.31792759775527
H            3.16325088954052        1.31524639847138       -2.01900787304220
H            4.78006548651432       -1.60729342289738       -0.32485947913199
H            6.17702722933128       -1.40106066645814        1.72196036368783
H            5.23182470041045        2.77208117887489        1.94672738766161
H            3.82233340666170        2.56144341823090       -0.09560747032413
H            0.63665312602710       -3.27881842850853        0.24541115203511
H           -0.29905587834941       -2.05920061406178       -2.39235354814149
H           -1.27608661291404       -3.23834858327521       -1.49438780942015
H           -1.92401991164299       -1.61191291550884       -1.81900101693467

          :  Hamiltonian                  GFN1-xTB          :
         :: total energy             -79.493673097448 Eh    ::
         :: gradient norm              0.000829894142 Eh/a0 ::
         :: HOMO-LUMO gap              0.792003920089 eV    ::
         :: SCC energy               -80.387313803536 Eh    ::
         :: -> Gsolv                  -0.109797146137 Eh    ::
         :: repulsion energy           0.924797735711 Eh    ::

    * Orbital Energies and Occupations

         #    Occupation            Energy/Eh            Energy/eV
      -------------------------------------------------------------
         1        2.0000           -0.8850217             -24.0827
       ...           ...                  ...                  ...
        55        2.0000           -0.5223612             -14.2142
        56        2.0000           -0.5195858             -14.1387
        57        2.0000           -0.5181732             -14.1002
        58        2.0000           -0.5134068             -13.9705
        59        2.0000           -0.5115414             -13.9198
        60        2.0000           -0.5042293             -13.7208
        61        2.0000           -0.4957244             -13.4893
        62        2.0000           -0.4810468             -13.0899
        63        2.0000           -0.4772948             -12.9879
        64        2.0000           -0.4662793             -12.6881
        65        2.0000           -0.4585636             -12.4782
        66        2.0000           -0.4454698             -12.1219
        67        2.0000           -0.4426460             -12.0450 (HOMO)
        68        0.0000           -0.4135404             -11.2530 (LUMO)
        69                         -0.3409632              -9.2781
        70                         -0.3004500              -8.1757
        71                         -0.2806066              -7.6357
        72                         -0.2752083              -7.4888
        73                         -0.2439368              -6.6379
        74                         -0.1590972              -4.3293
        75                         -0.1556919              -4.2366
        76                         -0.1537448              -4.1836
        77                         -0.1454850              -3.9588
        78                         -0.1389275              -3.7804
       ...                                ...                  ...
       144                          0.6874871              18.7075
      -------------------------------------------------------------
                  HL-Gap            0.0291056 Eh            0.7920 eV

Wiberg/Mayer (AO) data.
largest (>0.10) Wiberg bond orders for each atom

     #   Z sym  total        # sym  WBO       # sym  WBO       # sym  WBO
 ---------------------------------------------------------------------------
     1   6 C    3.881 --    28 H    0.974    27 H    0.965    26 H    0.957
                             2 N    0.902
     2   7 N    3.549 --     3 C    1.360    23 C    1.013     1 C    0.902
     3   6 C    3.876 --     2 N    1.360     8 N    1.250     4 C    1.009
     4   6 C    3.957 --     3 C    1.009     7 N    0.999     6 C    0.961
                             5 C    0.937
     5   6 C    3.978 --    31 H    0.984    29 H    0.984    30 H    0.975
                             4 C    0.937
     6   6 C    3.984 --    32 H    0.984    34 H    0.981    33 H    0.981
                             4 C    0.961
     7   7 N    3.016 --     4 C    0.999    35 H    0.930    36 H    0.925
     8   7 N    3.134 --     9 C    1.636     3 C    1.250
     9   6 C    3.903 --     8 N    1.636    21 C    1.003    10 C    0.959
    10   6 C    3.922 --    11 O    1.590    12 N    1.298     9 C    0.959
    11   8 O    1.911 --    10 C    1.590    12 N    0.201
    12   7 N    3.414 --    10 C    1.298    13 C    0.928    37 H    0.881
                            11 O    0.201
    13   6 C    3.929 --    14 C    0.987    38 H    0.973    39 H    0.970
                            12 N    0.928
    14   6 C    3.981 --    20 C    1.420    15 C    1.417    13 C    0.987
    15   6 C    3.993 --    16 C    1.446    14 C    1.417    40 H    0.971
                            19 C    0.110
    16   6 C    3.991 --    15 C    1.446    17 C    1.398    41 H    0.969
                            20 C    0.110
    17   6 C    3.860 --    19 C    1.401    16 C    1.398    18 F    0.929
    18   9 F    1.058 --    17 C    0.929
    19   6 C    3.991 --    20 C    1.442    17 C    1.401    42 H    0.969
                            15 C    0.110
    20   6 C    3.992 --    19 C    1.442    14 C    1.420    43 H    0.969
                            16 C    0.110
    21   6 C    3.934 --     9 C    1.003    22 O    0.988    23 C    0.926
                            24 C    0.897
    22   8 O    1.926 --    21 C    0.988    44 H    0.814
    23   6 C    3.860 --    25 O    1.774     2 N    1.013    21 C    0.926
    24   6 C    3.970 --    47 H    0.984    46 H    0.977    45 H    0.976
                            21 C    0.897
    25   8 O    2.034 --    23 C    1.774
    26   1 H    1.019 --     1 C    0.957
    27   1 H    0.994 --     1 C    0.965
    28   1 H    0.997 --     1 C    0.974
    29   1 H    0.999 --     5 C    0.984
    30   1 H    0.994 --     5 C    0.975
    31   1 H    1.000 --     5 C    0.984
    32   1 H    0.999 --     6 C    0.984
    33   1 H    1.006 --     6 C    0.981
    34   1 H    0.998 --     6 C    0.981
    35   1 H    0.945 --     7 N    0.930
    36   1 H    0.940 --     7 N    0.925
    37   1 H    0.938 --    12 N    0.881
    38   1 H    1.000 --    13 C    0.973
    39   1 H    1.002 --    13 C    0.970
    40   1 H    0.997 --    15 C    0.971
    41   1 H    0.997 --    16 C    0.969
    42   1 H    0.997 --    19 C    0.969
    43   1 H    1.007 --    20 C    0.969
    44   1 H    0.835 --    22 O    0.814
    45   1 H    0.995 --    24 C    0.976
    46   1 H    0.993 --    24 C    0.977
    47   1 H    0.996 --    24 C    0.984
 ---------------------------------------------------------------------------

           -------------------------------------------------
          | TOTAL ENERGY              -79.493673097448 Eh   |
          | GRADIENT NORM               0.000829894142 Eh/α |
          | HOMO-LUMO GAP               0.792003920089 eV   |
           -------------------------------------------------

 * finished run on 2023/06/20 at 15:35:25.026
