   * xtb version 6.5.1 (579679a) compiled by 'ehlert@majestix' on 2022-07-11
          program call               : /lustre/hpc/kemi/ree/PhD/git/ReactivityQM/dep/xtb-6.5.1/bin/xtb --gfn 1 /lustre/hpc/kemi/ree/PhD/git/ReactivityQM/calculations/R02deprot/reac01prodN13/conf09/R02deprot_reac01prodN13_conf09_gfn1.xyz --opt --vfukui --chrg 0 --uhf 0 --alpb DMSO

   ID    Z sym.   atoms
    1    6 C      1, 3, 5, 7-10, 12, 14, 15, 18, 19, 22, 24
    2    8 O      2, 4, 13, 20, 23, 25
    3    7 N      6, 11, 16, 17, 21
    4    1 H      26-42

      * Solvation model:               ALPB
        Solvent                        DMSO
        Solvent mass                       7.8130E+01 g/mol
          :  Hamiltonian                  GFN1-xTB          :
 * total energy  :   -82.9206370 Eh     change       -0.1918465E-11 Eh
 * total energy  :   -82.9323600 Eh     change       -0.1172307E-01 Eh
 * total energy  :   -82.9365728 Eh     change       -0.4212768E-02 Eh
 * total energy  :   -82.9373458 Eh     change       -0.7729950E-03 Eh
 * total energy  :   -82.9378812 Eh     change       -0.5353656E-03 Eh
 * total energy  :   -82.9381152 Eh     change       -0.2339760E-03 Eh
 * total energy  :   -82.9383033 Eh     change       -0.1881220E-03 Eh
 * total energy  :   -82.9384586 Eh     change       -0.1552855E-03 Eh
 * total energy  :   -82.9385932 Eh     change       -0.1346551E-03 Eh
 * total energy  :   -82.9387311 Eh     change       -0.1378411E-03 Eh
 * total energy  :   -82.9465283 Eh     change       -0.1506982E-04 Eh
 * total energy  :   -82.9465471 Eh     change       -0.1880102E-04 Eh
 * total energy  :   -82.9465677 Eh     change       -0.2066150E-04 Eh
 * total energy  :   -82.9465855 Eh     change       -0.1774786E-04 Eh
 * total energy  :   -82.9465980 Eh     change       -0.1254975E-04 Eh
 * total energy  :   -82.9466091 Eh     change       -0.1112788E-04 Eh
 * total energy  :   -82.9466183 Eh     change       -0.9128591E-05 Eh
 * total energy  :   -82.9466256 Eh     change       -0.7288115E-05 Eh
 * total energy  :   -82.9466292 Eh     change       -0.3607370E-05 Eh
   *** GEOMETRY OPTIMIZATION CONVERGED AFTER 68 ITERATIONS ***

 final structure:
================
42
 xtb: 6.5.1 (579679a)
C            2.97734639688295       -0.14028952298494        4.36612445431644
O            3.12808399511426        0.19254560182262        2.98443260330279
C            2.04793046174698        0.06308935191902        2.21806363819596
O            0.97498054158287       -0.31300798404423        2.65334487644486
C            2.27127433226542        0.42450203965354        0.79600773680797
N            1.16625583549430        0.31387655663510        0.01186770387571
C            1.26950701269106        0.62781752919533       -1.27012843523022
C            0.01384349943524        0.49618863793857       -2.11863712629077
C            0.20689628528169       -0.61742767248837       -3.15399362896396
C           -0.29461594287837        1.83476975868156       -2.79524845309994
N           -1.07171011481382        0.12635524033663       -1.19717349395544
C           -2.32635216823483       -0.01541077223944       -1.55177705778050
O           -2.85120100496365        0.17890439189518       -2.62248538724072
C           -3.25125182288554       -0.49249210146059       -0.32226590757733
C           -4.64789124497005       -0.79523929812676       -0.84225849029032
N           -3.18418491716339        0.53092545378584        0.65239122171942
N           -2.56261867357357        0.08731008621498        1.68599653929206
C           -2.25626868181048       -1.20841088272899        1.46944651329464
C           -1.54232981078051       -2.08913948307152        2.39235463180917
O           -2.65404448439368       -1.60945493458743        0.29503216644120
N            2.34757180438861        1.04752591308414       -1.90793193951067
C            3.50335680754525        1.18507003294929       -1.20115478953646
O            4.57443018163540        1.57054854005590       -1.68422852446615
C            3.45227872310068        0.85354316798339        0.23364907003409
O            4.60164772064186        1.00965979254252        0.89623722026296
H            2.18418529262730        0.46243364751120        4.81486100445073
H            3.93119480065636        0.07148714150477        4.84531607298536
H            2.72738211209074       -1.19825244232307        4.47155621725367
H            1.08495854227984       -0.39035110548385       -3.75736952903004
H           -0.66603626834101       -0.68933082823477       -3.80070701209799
H            0.35714501518073       -1.57124353358567       -2.65107183496911
H           -1.14020954044327        1.73747680831335       -3.47344153373161
H            0.58257127104474        2.14842978566457       -3.36018466401170
H           -0.52317578138726        2.59033667786180       -2.04492178162965
H           -0.75857336443180       -0.07974665040779       -0.25049948880768
H           -5.26987047287292       -1.13726335149184       -0.01920328104374
H           -4.58500946520812       -1.56772910376932       -1.60492153860586
H           -5.06450945692863        0.11108868192143       -1.27514009568965
H           -1.69698359211378       -3.13135079643521        2.12606229433597
H           -0.47293918583332       -1.85900008031886        2.32823371500079
H           -1.85276349119042       -1.89236549734546        3.41682338592173
H            5.26969985353726        1.31754420366587        0.24694092781763

          :  Hamiltonian                  GFN1-xTB          :
         :: total energy             -82.946629167864 Eh    ::
         :: gradient norm              0.000402351319 Eh/a0 ::
         :: HOMO-LUMO gap              0.093717765482 eV    ::
         :: SCC energy               -83.710309344065 Eh    ::
         :: -> Gsolv                  -0.052383169092 Eh    ::
         :: repulsion energy           0.791438384358 Eh    ::

    * Orbital Energies and Occupations

         #    Occupation            Energy/Eh            Energy/eV
      -------------------------------------------------------------
         1        2.0000           -0.8980869             -24.4382
       ...           ...                  ...                  ...
        55        2.0000           -0.5084800             -13.8364
        56        2.0000           -0.5012724             -13.6403
        57        2.0000           -0.4987421             -13.5715
        58        2.0000           -0.4941025             -13.4452
        59        2.0000           -0.4874559             -13.2644
        60        2.0000           -0.4787695             -13.0280
        61        2.0000           -0.4752191             -12.9314
        62        2.0000           -0.4693605             -12.7719
        63        2.0000           -0.4682060             -12.7405
        64        2.0000           -0.4497298             -12.2378
        65        2.0000           -0.4378186             -11.9137
        66        1.9947           -0.4057198             -11.0402
        67        1.7220           -0.4018208             -10.9341 (HOMO)
        68        0.2833           -0.3983767             -10.8404 (LUMO)
        69                         -0.3034278              -8.2567
        70                         -0.2985306              -8.1234
        71                         -0.2740957              -7.4585
        72                         -0.2608363              -7.0977
        73                         -0.2178474              -5.9279
        74                         -0.1491573              -4.0588
        75                         -0.1418462              -3.8598
        76                         -0.1365397              -3.7154
        77                         -0.1360759              -3.7028
        78                         -0.1220884              -3.3222
       ...                                ...                  ...
       134                          0.7256751              19.7466
      -------------------------------------------------------------
                  HL-Gap            0.0034441 Eh            0.0937 eV

Wiberg/Mayer (AO) data.
largest (>0.10) Wiberg bond orders for each atom

     #   Z sym  total        # sym  WBO       # sym  WBO       # sym  WBO
 ---------------------------------------------------------------------------
     1   6 C    3.874 --    27 H    0.986    26 H    0.980    28 H    0.979
                             2 O    0.899
     2   8 O    2.206 --     3 C    1.119     1 C    0.899     4 O    0.128
     3   6 C    3.840 --     4 O    1.617     2 O    1.119     5 C    1.013
     4   8 O    1.915 --     3 C    1.617     2 O    0.128
     5   6 C    3.931 --    24 C    1.428     6 N    1.242     3 C    1.013
     6   7 N    2.942 --     7 C    1.398     5 C    1.242
     7   6 C    3.934 --    21 N    1.416     6 N    1.398     8 C    0.972
     8   6 C    3.911 --    10 C    0.987     9 C    0.982     7 C    0.972
                            11 N    0.893
     9   6 C    3.989 --    31 H    0.985    30 H    0.983    29 H    0.983
                             8 C    0.982
    10   6 C    3.989 --     8 C    0.987    34 H    0.986    32 H    0.982
                            33 H    0.981
    11   7 N    3.404 --    12 C    1.383     8 C    0.893    35 H    0.862
                            13 O    0.186
    12   6 C    3.883 --    13 O    1.624    11 N    1.383    14 C    0.755
    13   8 O    1.991 --    12 C    1.624    11 N    0.186
    14   6 C    3.836 --    16 N    1.083    15 C    0.947    20 O    0.906
                            12 C    0.755
    15   6 C    3.948 --    36 H    0.980    37 H    0.979    38 H    0.978
                            14 C    0.947
    16   7 N    2.809 --    17 N    1.530    14 C    1.083
    17   7 N    2.975 --    16 N    1.530    18 C    1.286
    18   6 C    3.732 --    17 N    1.286    20 O    1.209    19 C    1.068
    19   6 C    3.967 --    18 C    1.068    39 H    0.973    41 H    0.956
                            40 H    0.902
    20   8 O    2.283 --    18 C    1.209    14 C    0.906
    21   7 N    2.935 --     7 C    1.416    22 C    1.206
    22   6 C    3.895 --    23 O    1.524    21 N    1.206    24 C    1.044
    23   8 O    1.787 --    22 C    1.524
    24   6 C    3.807 --     5 C    1.428    25 O    1.117    22 C    1.044
    25   8 O    2.056 --    24 C    1.117    42 H    0.802
    26   1 H    1.008 --     1 C    0.980
    27   1 H    1.011 --     1 C    0.986
    28   1 H    1.007 --     1 C    0.979
    29   1 H    1.007 --     9 C    0.983
    30   1 H    1.003 --     9 C    0.983
    31   1 H    1.002 --     9 C    0.985
    32   1 H    1.007 --    10 C    0.982
    33   1 H    1.011 --    10 C    0.981
    34   1 H    1.002 --    10 C    0.986
    35   1 H    0.961 --    11 N    0.862
    36   1 H    0.995 --    15 C    0.980
    37   1 H    0.998 --    15 C    0.979
    38   1 H    1.001 --    15 C    0.978
    39   1 H    0.991 --    19 C    0.973
    40   1 H    0.996 --    19 C    0.902
    41   1 H    0.988 --    19 C    0.956
    42   1 H    0.857 --    25 O    0.802
 ---------------------------------------------------------------------------

           -------------------------------------------------
          | TOTAL ENERGY              -82.946629167864 Eh   |
          | GRADIENT NORM               0.000402351319 Eh/α |
          | HOMO-LUMO GAP               0.093717765482 eV   |
           -------------------------------------------------

 * finished run on 2023/06/20 at 18:21:02.788
