   * xtb version 6.5.1 (579679a) compiled by 'ehlert@majestix' on 2022-07-11
          program call               : /lustre/hpc/kemi/ree/PhD/git/ReactivityQM/dep/xtb-6.5.1/bin/xtb --gfn 1 /lustre/hpc/kemi/ree/PhD/git/ReactivityQM/calculations/R03/reac02prodE05/conf20/R03_reac02prodE05_conf20_gfn1.xyz --opt --vfukui --chrg -1 --uhf 0 --alpb DMSO

   ID    Z sym.   atoms
    1    6 C      1, 3, 5, 6, 8, 11-15, 17, 19, 22, 23, 26
    2    8 O      2, 4, 7, 9, 18, 24
    3    7 N      10, 16, 20, 21, 25
    4    1 H      27-46

      * Solvation model:               ALPB
        Solvent                        DMSO
        Solvent mass                       7.8130E+01 g/mol
          :  Hamiltonian                  GFN1-xTB          :
 * total energy  :   -86.9708115 Eh     change       -0.5812240E-11 Eh
 * total energy  :   -86.9834678 Eh     change       -0.1265631E-01 Eh
 * total energy  :   -86.9899090 Eh     change       -0.6441283E-02 Eh
 * total energy  :   -86.9919040 Eh     change       -0.1994955E-02 Eh
 * total energy  :   -86.9939268 Eh     change       -0.2022778E-02 Eh
 * total energy  :   -86.9952947 Eh     change       -0.1367903E-02 Eh
 * total energy  :   -86.9965193 Eh     change       -0.1224610E-02 Eh
 * total energy  :   -86.9979055 Eh     change       -0.1386220E-02 Eh
 * total energy  :   -86.9991002 Eh     change       -0.1194727E-02 Eh
 * total energy  :   -86.9999482 Eh     change       -0.8479984E-03 Eh
 * total energy  :   -87.0132439 Eh     change       -0.7386181E-04 Eh
 * total energy  :   -87.0132672 Eh     change       -0.2334529E-04 Eh
 * total energy  :   -87.0132749 Eh     change       -0.7664466E-05 Eh
 * total energy  :   -87.0132823 Eh     change       -0.7402445E-05 Eh
 * total energy  :   -87.0132944 Eh     change       -0.1214120E-04 Eh
 * total energy  :   -87.0133025 Eh     change       -0.8087090E-05 Eh
 * total energy  :   -87.0133139 Eh     change       -0.1137191E-04 Eh
 * total energy  :   -87.0133231 Eh     change       -0.9180527E-05 Eh
 * total energy  :   -87.0133261 Eh     change       -0.3058943E-05 Eh
   *** GEOMETRY OPTIMIZATION CONVERGED AFTER 117 ITERATIONS ***

 final structure:
================
46
 xtb: 6.5.1 (579679a)
C           -5.75452958212077       -0.68220562592227        2.30046406684191
O           -4.94069468819788       -0.22509362402912        1.22936766201575
C           -3.70891419446727       -0.80202158128869        1.13385333053266
O           -3.35323498764258       -1.65580377656048        1.94192533314424
C           -2.92664524637736       -0.34298365151787        0.00877500656923
C           -3.15831424960635        0.74718953559758       -0.79564546859439
O           -4.24482514506713        1.55903583251682       -0.69347266348308
C           -2.14860995398073        1.21346540705924       -1.72842265745786
O           -2.42161755072256        2.08148812336802       -2.60153407121141
N           -0.89329863380424        0.75704042038701       -1.48202095148473
C            0.20698640843503        1.34397889259960       -2.24307242113085
C           -0.60656590244711       -0.33588643846987       -0.62695072867014
C            0.25059210947469       -0.01015832273792        0.60252305044860
C            0.16324904959789       -1.16016270161450        1.61611276198695
C           -0.12195838469911        1.32133769682663        1.28013506350910
N            1.65284772886937        0.05986090392124        0.11707406144671
C            2.73149772631211        0.32793657097236        0.86364775792725
O            2.74017919094981        0.68706584539827        2.03283108832456
C            3.98514144847346        0.14699675938474        0.07127710975107
N            4.06243457587169       -0.22467840699599       -1.17107060575944
N            5.39004321986056       -0.27675872982273       -1.48561425025699
C            6.03573339241794        0.06507542228483       -0.41410704334602
C            7.50172229029144        0.16242332076324       -0.23703475478571
O            5.20665476517242        0.34516397219394        0.60344716973459
N           -1.76681153194730       -1.14161953725756       -0.31653722207446
C           -2.05969884768579       -2.09905078779464       -1.39914589289112
H           -6.70297376509207       -0.15056240639503        2.23049896288552
H           -5.28218459363773       -0.47068972866382        3.26543368806465
H           -5.92876156513800       -1.76034803551288        2.22219302925535
H           -4.14337092935685        2.24438877268901       -1.38199638204554
H            0.88956304937732        1.87961017346834       -1.58037337449461
H            0.75630801875465        0.55245449713037       -2.75487712706708
H           -0.19979294627280        2.03979853702755       -2.97889474036702
H            0.42948611404774       -2.09949416113074        1.13221141652837
H           -0.85451752246959       -1.24393966662186        1.99720773775817
H            0.84106624634771       -0.98443408264649        2.45079216215898
H            0.02952155179931        2.15440662478603        0.59534000948072
H            0.47856722754189        1.48856569607954        2.17329515197341
H           -1.17349470942003        1.28991769323002        1.56566374079798
H            1.81212700065478       -0.32733056491009       -0.80264212765597
H            8.00003553829372       -0.11724856385750       -1.16176374969667
H            7.77969262038197        1.18121688946377        0.03241432001659
H            7.82553286563453       -0.49939311059032        0.56579017898243
H           -2.83807386776061       -2.78886805602509       -1.06813210011453
H           -1.14625837604527       -2.65525847415591       -1.61081679650096
H           -2.39383296455747       -1.59442655263791       -2.31526373103922

          :  Hamiltonian                  GFN1-xTB          :
         :: total energy             -87.013326116943 Eh    ::
         :: gradient norm              0.000557469067 Eh/a0 ::
         :: HOMO-LUMO gap              0.410447785625 eV    ::
         :: SCC energy               -87.795963015397 Eh    ::
         :: -> Gsolv                  -0.106229881069 Eh    ::
         :: repulsion energy           0.813464907804 Eh    ::

    * Orbital Energies and Occupations

         #    Occupation            Energy/Eh            Energy/eV
      -------------------------------------------------------------
         1        2.0000           -0.8545991             -23.2548
       ...           ...                  ...                  ...
        59        2.0000           -0.4687641             -12.7557
        60        2.0000           -0.4657999             -12.6751
        61        2.0000           -0.4633006             -12.6071
        62        2.0000           -0.4497490             -12.2383
        63        2.0000           -0.4490704             -12.2198
        64        2.0000           -0.4384809             -11.9317
        65        2.0000           -0.4363237             -11.8730
        66        2.0000           -0.4261334             -11.5957
        67        2.0000           -0.4102065             -11.1623
        68        2.0000           -0.4043325             -11.0024
        69        2.0000           -0.3888782             -10.5819
        70        2.0000           -0.3641358              -9.9086
        71        1.9993           -0.3110384              -8.4638 (HOMO)
        72        0.0007           -0.2959547              -8.0533 (LUMO)
        73                         -0.2736535              -7.4465
        74                         -0.2491905              -6.7808
        75                         -0.1939120              -5.2766
        76                         -0.1846619              -5.0249
        77                         -0.1393357              -3.7915
        78                         -0.1352290              -3.6798
        79                         -0.1230469              -3.3483
        80                         -0.1165922              -3.1726
        81                         -0.1036861              -2.8214
        82                         -0.0999466              -2.7197
       ...                                ...                  ...
       144                          0.7356666              20.0185
      -------------------------------------------------------------
                  HL-Gap            0.0150837 Eh            0.4104 eV

Wiberg/Mayer (AO) data.
largest (>0.10) Wiberg bond orders for each atom

     #   Z sym  total        # sym  WBO       # sym  WBO       # sym  WBO
 ---------------------------------------------------------------------------
     1   6 C    3.899 --    27 H    0.987    28 H    0.981    29 H    0.980
                             2 O    0.925
     2   8 O    2.145 --     3 C    1.031     1 C    0.925     4 O    0.105
     3   6 C    3.854 --     4 O    1.557     5 C    1.127     2 O    1.031
     4   8 O    1.864 --     3 C    1.557     2 O    0.105
     5   6 C    3.940 --     6 C    1.480     3 C    1.127    25 N    0.977
     6   6 C    3.905 --     5 C    1.480     8 C    1.098     7 O    1.050
                            12 C    0.106
     7   8 O    2.033 --     6 C    1.050    30 H    0.826
     8   6 C    3.932 --     9 O    1.390    10 N    1.224     6 C    1.098
                            12 C    0.114
     9   8 O    1.764 --     8 C    1.390    10 N    0.149
    10   7 N    3.473 --     8 C    1.224    12 C    1.031    11 C    0.951
                             9 O    0.149
    11   6 C    3.959 --    32 H    0.984    31 H    0.981    33 H    0.978
                            10 N    0.951
    12   6 C    3.575 --    10 N    1.031    25 N    0.970    13 C    0.966
                             8 C    0.114     6 C    0.106
    13   6 C    3.909 --    14 C    0.993    15 C    0.985    12 C    0.966
                            16 N    0.886
    14   6 C    3.995 --    13 C    0.993    34 H    0.986    36 H    0.986
                            35 H    0.980
    15   6 C    3.996 --    39 H    0.986    13 C    0.985    37 H    0.984
                            38 H    0.982
    16   7 N    3.376 --    17 C    1.297    40 H    0.902    13 C    0.886
                            18 O    0.186
    17   6 C    3.924 --    18 O    1.566    16 N    1.297    19 C    0.978
    18   8 O    1.886 --    17 C    1.566    16 N    0.186
    19   6 C    3.867 --    20 N    1.617    24 O    1.061    17 C    0.978
    20   7 N    3.010 --    19 C    1.617    21 N    1.190
    21   7 N    2.980 --    22 C    1.615    20 N    1.190
    22   6 C    3.874 --    21 N    1.615    24 O    1.080    23 C    1.030
    23   6 C    3.988 --    22 C    1.030    41 H    0.983    43 H    0.965
                            42 H    0.964
    24   8 O    2.324 --    22 C    1.080    19 C    1.061
    25   7 N    3.059 --     5 C    0.977    12 C    0.970    26 C    0.963
    26   6 C    3.984 --    45 H    0.988    44 H    0.988    46 H    0.983
                            25 N    0.963
    27   1 H    1.016 --     1 C    0.987
    28   1 H    1.013 --     1 C    0.981
    29   1 H    1.014 --     1 C    0.980
    30   1 H    0.880 --     7 O    0.826
    31   1 H    1.014 --    11 C    0.981
    32   1 H    1.016 --    11 C    0.984
    33   1 H    1.018 --    11 C    0.978
    34   1 H    1.014 --    14 C    0.986
    35   1 H    1.029 --    14 C    0.980
    36   1 H    1.010 --    14 C    0.986
    37   1 H    1.007 --    15 C    0.984
    38   1 H    1.016 --    15 C    0.982
    39   1 H    1.012 --    15 C    0.986
    40   1 H    0.985 --    16 N    0.902
    41   1 H    0.999 --    23 C    0.983
    42   1 H    0.998 --    23 C    0.964
    43   1 H    0.998 --    23 C    0.965
    44   1 H    1.017 --    26 C    0.988
    45   1 H    1.031 --    26 C    0.988
    46   1 H    1.009 --    26 C    0.983
 ---------------------------------------------------------------------------

           -------------------------------------------------
          | TOTAL ENERGY              -87.013326116943 Eh   |
          | GRADIENT NORM               0.000557469067 Eh/α |
          | HOMO-LUMO GAP               0.410447785625 eV   |
           -------------------------------------------------

 * finished run on 2023/06/20 at 15:20:03.550
