   * xtb version 6.5.1 (579679a) compiled by 'ehlert@majestix' on 2022-07-11
          program call               : /lustre/hpc/kemi/ree/PhD/git/ReactivityQM/dep/xtb-6.5.1/bin/xtb --gfn 1 /lustre/hpc/kemi/ree/PhD/git/ReactivityQM/calculations/RaltegravirCLI/reac02prodN11/conf11/RaltegravirCLI_reac02prodN11_conf11_gfn1.xyz --opt --vfukui --chrg 1 --uhf 0 --alpb DMSO

   ID    Z sym.   atoms
    1    6 C      1, 3-6, 9, 10, 13-18, 20-22, 24
    2    7 N      2, 7, 8, 12
    3    8 O      11, 23, 25
    4    9 F      19
    5    1 H      26-47

      * Solvation model:               ALPB
        Solvent                        DMSO
        Solvent mass                       7.8130E+01 g/mol
          :  Hamiltonian                  GFN1-xTB          :
 * total energy  :   -79.4600911 Eh     change       -0.1136868E-12 Eh
 * total energy  :   -79.4675568 Eh     change       -0.7465705E-02 Eh
 * total energy  :   -79.4700929 Eh     change       -0.2536013E-02 Eh
 * total energy  :   -79.4707744 Eh     change       -0.6815861E-03 Eh
 * total energy  :   -79.4714267 Eh     change       -0.6522923E-03 Eh
 * total energy  :   -79.4718033 Eh     change       -0.3765387E-03 Eh
 * total energy  :   -79.4720784 Eh     change       -0.2750783E-03 Eh
 * total energy  :   -79.4722622 Eh     change       -0.1838784E-03 Eh
 * total energy  :   -79.4724008 Eh     change       -0.1385319E-03 Eh
 * total energy  :   -79.4725249 Eh     change       -0.1240946E-03 Eh
 * total energy  :   -79.4727444 Eh     change       -0.2669069E-04 Eh
 * total energy  :   -79.4727617 Eh     change       -0.1731530E-04 Eh
 * total energy  :   -79.4727687 Eh     change       -0.7015362E-05 Eh
 * total energy  :   -79.4727769 Eh     change       -0.8164022E-05 Eh
 * total energy  :   -79.4727827 Eh     change       -0.5819305E-05 Eh
 * total energy  :   -79.4727914 Eh     change       -0.8734534E-05 Eh
 * total energy  :   -79.4727998 Eh     change       -0.8383948E-05 Eh
 * total energy  :   -79.4728055 Eh     change       -0.5720358E-05 Eh
 * total energy  :   -79.4728100 Eh     change       -0.4447280E-05 Eh
   *** GEOMETRY OPTIMIZATION CONVERGED AFTER 21 ITERATIONS ***

 final structure:
================
47
 xtb: 6.5.1 (579679a)
C           -4.77153863770355        1.39672296119784       -0.94245205492527
N           -3.43088841082392        1.14986372490175       -0.40435882255893
C           -3.00869567876078       -0.04712959507635        0.11386751279353
C           -3.91682112247509       -1.26906574821115        0.19527473712179
C           -3.07195202869166       -2.49932150396750        0.57031367098672
C           -4.99449293907119       -1.04199126513432        1.26389283491044
N           -4.55273044562755       -1.50859267078198       -1.09155585094865
N           -1.81742413767513       -0.19315990114366        0.60343071318235
C           -0.90935281565137        0.82462224459044        0.62083559842237
C            0.40043773699810        0.45237809349932        1.23395043115846
O            0.57679389212677       -0.61931496003535        1.79488752055631
N            1.38468251680721        1.38215510735044        1.14768360263693
C            2.69573584403367        1.10706017995782        1.71819475890570
C            3.57108301310004        0.51466527339090        0.65772550293515
C            4.65348039324164        1.25473333169804        0.12567810871428
C            5.43714788545037        0.73768865274261       -0.85871889840272
C            5.29658655889223       -0.68016762673501       -1.25210135111551
C            6.41471909354050       -1.45127440752145       -0.47686968493349
F            5.57021489391575       -0.86910820344747       -2.57858103323606
C            4.01893799417381       -1.31184543078737       -0.85736202325104
C            3.25395661690307       -0.75627440046599        0.11867207983356
C           -1.26347891930225        2.04162572685694        0.11393956709535
O           -0.45441814766911        3.11500661926725        0.08199804166036
C           -2.59503883716692        2.25060631244709       -0.42752039588573
O           -2.94731437589219        3.33940494041387       -0.87104020297905
H           -4.67856826053223        2.09972384294393       -1.77030267317795
H           -5.20438202552997        0.46443714201566       -1.29484678542960
H           -5.39669457602949        1.83702619528044       -0.16534155740287
H           -2.28618477964012       -2.65065171968636       -0.16763386136697
H           -2.61326051087941       -2.35656322118763        1.54772915749435
H           -3.70975033236110       -3.38063489749792        0.59658038715179
H           -4.52689748118287       -0.78782181770118        2.21454553519081
H           -5.66591495531123       -0.23652937203691        0.97408835610490
H           -5.57902910890995       -1.95213078713870        1.39078435535695
H           -3.87345911233250       -1.76339605832257       -1.79268945076068
H           -5.25248117995451       -2.23173332006683       -1.01772857467455
H            1.29594842805856        2.20586973834197        0.57513025682169
H            3.11360930545224        2.03521178285149        2.10921167207086
H            2.55675299090819        0.38449426603534        2.53074429343891
H            4.81925972223690        2.26592195201419        0.47871434776880
H            6.23709424789416        1.30718520001659       -1.31604310971234
H            7.37531897867859       -1.03497890415651       -0.77084027851608
H            6.27727551205036       -1.35147767689474        0.59573026957076
H            6.36287884507838       -2.49854725004958       -0.76552897111768
H            3.77597124830881       -2.26824157766616       -1.30443015285774
H            2.36706433763356       -1.26608218926620        0.47887846012679
H           -0.93418423630630        3.85963021716648       -0.33198703875603

          :  Hamiltonian                  GFN1-xTB          :
         :: total energy             -79.472809982148 Eh    ::
         :: gradient norm              0.000358305866 Eh/a0 ::
         :: HOMO-LUMO gap              0.133664872561 eV    ::
         :: SCC energy               -80.352617791803 Eh    ::
         :: -> Gsolv                  -0.102407563612 Eh    ::
         :: repulsion energy           0.909637664726 Eh    ::

    * Orbital Energies and Occupations

         #    Occupation            Energy/Eh            Energy/eV
      -------------------------------------------------------------
         1        2.0000           -0.8941766             -24.3318
       ...           ...                  ...                  ...
        55        2.0000           -0.5195411             -14.1374
        56        2.0000           -0.5178406             -14.0912
        57        2.0000           -0.5123976             -13.9430
        58        2.0000           -0.5074001             -13.8071
        59        2.0000           -0.5048110             -13.7366
        60        2.0000           -0.4965940             -13.5130
        61        2.0000           -0.4833695             -13.1532
        62        2.0000           -0.4786272             -13.0241
        63        2.0000           -0.4651260             -12.6567
        64        2.0000           -0.4617253             -12.5642
        65        2.0000           -0.4496571             -12.2358
        66        1.9999           -0.4340109             -11.8100
        67        1.8599           -0.4270363             -11.6203 (HOMO)
        68        0.1402           -0.4221242             -11.4866 (LUMO)
        69                         -0.3263890              -8.8815
        70                         -0.3245431              -8.8313
        71                         -0.2867229              -7.8021
        72                         -0.2526845              -6.8759
        73                         -0.2432283              -6.6186
        74                         -0.1621130              -4.4113
        75                         -0.1567147              -4.2644
        76                         -0.1502959              -4.0898
        77                         -0.1416511              -3.8545
        78                         -0.1406201              -3.8265
       ...                                ...                  ...
       144                          0.7037951              19.1512
      -------------------------------------------------------------
                  HL-Gap            0.0049121 Eh            0.1337 eV

Wiberg/Mayer (AO) data.
largest (>0.10) Wiberg bond orders for each atom

     #   Z sym  total        # sym  WBO       # sym  WBO       # sym  WBO
 ---------------------------------------------------------------------------
     1   6 C    3.906 --    26 H    0.975    28 H    0.975    27 H    0.963
                             2 N    0.924
     2   7 N    3.515 --     3 C    1.178    24 C    1.134     1 C    0.924
                            25 O    0.133
     3   6 C    3.917 --     8 N    1.558     2 N    1.178     4 C    0.973
     4   6 C    3.950 --     6 C    0.983     7 N    0.980     5 C    0.979
                             3 C    0.973
     5   6 C    3.971 --    31 H    0.985    29 H    0.984    30 H    0.980
                             4 C    0.979
     6   6 C    3.990 --    32 H    0.985     4 C    0.983    34 H    0.982
                            33 H    0.982
     7   7 N    2.950 --     4 C    0.980    35 H    0.928    36 H    0.926
     8   7 N    3.024 --     3 C    1.558     9 C    1.199
     9   6 C    3.958 --    22 C    1.495     8 N    1.199    10 C    0.998
    10   6 C    3.897 --    11 O    1.588    12 N    1.223     9 C    0.998
    11   8 O    1.902 --    10 C    1.588    12 N    0.155
    12   7 N    3.318 --    10 C    1.223    13 C    0.938    37 H    0.877
                            11 O    0.155
    13   6 C    3.948 --    14 C    1.024    38 H    0.973    39 H    0.940
                            12 N    0.938
    14   6 C    3.844 --    15 C    1.291    21 C    1.285    13 C    1.024
    15   6 C    3.987 --    16 C    1.628    14 C    1.291    40 H    0.960
    16   6 C    3.877 --    15 C    1.628    17 C    1.041    41 H    0.961
    17   6 C    3.882 --    16 C    1.041    20 C    1.038    19 F    0.898
                            18 C    0.854
    18   6 C    3.934 --    43 H    0.982    42 H    0.975    44 H    0.974
                            17 C    0.854
    19   9 F    1.006 --    17 C    0.898
    20   6 C    3.887 --    21 C    1.634    17 C    1.038    45 H    0.962
    21   6 C    3.983 --    20 C    1.634    14 C    1.285    46 H    0.954
    22   6 C    3.908 --     9 C    1.495    23 O    1.083    24 C    1.082
    23   8 O    2.072 --    22 C    1.083    47 H    0.794
    24   6 C    3.914 --    25 O    1.551     2 N    1.134    22 C    1.082
    25   8 O    1.891 --    24 C    1.551     2 N    0.133
    26   1 H    1.006 --     1 C    0.975
    27   1 H    1.019 --     1 C    0.963
    28   1 H    1.001 --     1 C    0.975
    29   1 H    1.008 --     5 C    0.984
    30   1 H    1.009 --     5 C    0.980
    31   1 H    1.002 --     5 C    0.985
    32   1 H    1.002 --     6 C    0.985
    33   1 H    1.002 --     6 C    0.982
    34   1 H    0.998 --     6 C    0.982
    35   1 H    0.944 --     7 N    0.928
    36   1 H    0.941 --     7 N    0.926
    37   1 H    0.934 --    12 N    0.877
    38   1 H    0.996 --    13 C    0.973
    39   1 H    0.998 --    13 C    0.940
    40   1 H    0.990 --    15 C    0.960
    41   1 H    0.989 --    16 C    0.961
    42   1 H    0.993 --    18 C    0.975
    43   1 H    0.994 --    18 C    0.982
    44   1 H    0.993 --    18 C    0.974
    45   1 H    0.990 --    20 C    0.962
    46   1 H    1.003 --    21 C    0.954
    47   1 H    0.838 --    23 O    0.794
 ---------------------------------------------------------------------------

           -------------------------------------------------
          | TOTAL ENERGY              -79.472809982148 Eh   |
          | GRADIENT NORM               0.000358305866 Eh/α |
          | HOMO-LUMO GAP               0.133664872561 eV   |
           -------------------------------------------------

 * finished run on 2023/06/20 at 15:31:47.972
