   * xtb version 6.5.1 (579679a) compiled by 'ehlert@majestix' on 2022-07-11
          program call               : /lustre/hpc/kemi/ree/PhD/git/ReactivityQM/dep/xtb-6.5.1/bin/xtb --gfn 1 /lustre/hpc/kemi/ree/PhD/git/ReactivityQM/calculations/R01/reac02prodE05/conf03/R01_reac02prodE05_conf03_gfn1.xyz --opt --vfukui --chrg -1 --uhf 0 --alpb DMSO

   ID    Z sym.   atoms
    1    6 C      1, 3, 5, 6, 8, 11-15
    2    8 O      2, 4, 7, 9
    3    7 N      10, 16, 17
    4    1 H      18-33

      * Solvation model:               ALPB
        Solvent                        DMSO
        Solvent mass                       7.8130E+01 g/mol
          :  Hamiltonian                  GFN1-xTB          :
 * total energy  :   -58.5520634 Eh     change       -0.2863487E-11 Eh
 * total energy  :   -58.5588413 Eh     change       -0.6777870E-02 Eh
 * total energy  :   -58.5606095 Eh     change       -0.1768209E-02 Eh
 * total energy  :   -58.5608598 Eh     change       -0.2502539E-03 Eh
 * total energy  :   -58.5610627 Eh     change       -0.2029468E-03 Eh
 * total energy  :   -58.5611273 Eh     change       -0.6460959E-04 Eh
 * total energy  :   -58.5611878 Eh     change       -0.6050450E-04 Eh
 * total energy  :   -58.5612158 Eh     change       -0.2799063E-04 Eh
 * total energy  :   -58.5612309 Eh     change       -0.1512040E-04 Eh
 * total energy  :   -58.5612419 Eh     change       -0.1096840E-04 Eh
 * total energy  :   -58.5612501 Eh     change       -0.8201571E-05 Eh
 * total energy  :   -58.5612605 Eh     change       -0.1035681E-04 Eh
 * total energy  :   -58.5612679 Eh     change       -0.7408609E-05 Eh
 * total energy  :   -58.5612744 Eh     change       -0.6545001E-05 Eh
 * total energy  :   -58.5612812 Eh     change       -0.6759709E-05 Eh
 * total energy  :   -58.5612881 Eh     change       -0.6946528E-05 Eh
 * total energy  :   -58.5612958 Eh     change       -0.7711849E-05 Eh
 * total energy  :   -58.5613008 Eh     change       -0.4953689E-05 Eh
   *** GEOMETRY OPTIMIZATION CONVERGED AFTER 18 ITERATIONS ***

 final structure:
================
33
 xtb: 6.5.1 (579679a)
C            4.11307471989713        1.84815450001606        0.32252467239834
O            2.83365386871387        1.24151692299538        0.17866230105286
C            2.80756107117134       -0.10262355658549        0.20423821938512
O            3.84042660320488       -0.74493893707990        0.33647993744408
C            1.44974036901338       -0.67496573092413        0.06262787560473
C            1.26238552047227       -2.06084952872539        0.16630303044697
O            2.31327602184800       -2.97255764745654        0.27761700153835
C           -0.06086792945297       -2.58948080398088        0.23950620066635
O           -0.38314043393674       -3.77994642551980        0.40042707036392
N           -1.06456938040764       -1.61566152223534        0.22738556791908
C           -0.83922274477009       -0.33072483492274       -0.42695746568831
C           -0.97237977965112       -0.49461459459784       -1.96393038627148
C           -1.87233839812262        0.70464289895427        0.11373568232344
C           -1.70034328493766        0.82864978155711        1.63732860871831
C           -3.32329918375625        0.34016211963161       -0.21689192098153
N           -1.56785125152737        1.97988072167124       -0.53719833891572
N            0.47467036983593        0.20542175242278       -0.13490572257099
H            4.54403719336934        1.60374453367222        1.29783829271109
H            3.96656744237338        2.92407172283672        0.24005443622142
H            4.79241153442298        1.50224770818623       -0.46198270592233
H            3.15475755647862       -2.48260401690581        0.30834047210661
H           -1.98336014443518       -2.00470006216576        0.06813892837579
H           -0.99268864209755        0.48777872070825       -2.43334864573684
H           -1.88459037577413       -1.03281119214870       -2.21593381663770
H           -0.11959375899496       -1.05414044881178       -2.34758530491994
H           -2.37423936890973        1.58653844009719        2.03464489488743
H           -0.67308571553928        1.11416687286615        1.86842687238785
H           -1.91710022792705       -0.12600864806728        2.11835464112742
H           -3.48414091560658        0.33994789019907       -1.29451801421784
H           -3.99532481391317        1.07659373151303        0.22470464327608
H           -3.58585132333510       -0.63944835648464        0.18114148237106
H           -2.15775668365957        2.70410980834992       -0.15157395964454
H           -0.60081691404653        2.21844818093436       -0.32365554981882

          :  Hamiltonian                  GFN1-xTB          :
         :: total energy             -58.561300776555 Eh    ::
         :: gradient norm              0.000843250643 Eh/a0 ::
         :: HOMO-LUMO gap              1.260632882292 eV    ::
         :: SCC energy               -59.093562746360 Eh    ::
         :: -> Gsolv                  -0.100362514673 Eh    ::
         :: repulsion energy           0.552248571738 Eh    ::

    * Orbital Energies and Occupations

         #    Occupation            Energy/Eh            Energy/eV
      -------------------------------------------------------------
         1        2.0000           -0.8101162             -22.0444
       ...           ...                  ...                  ...
        36        2.0000           -0.4809267             -13.0867
        37        2.0000           -0.4771459             -12.9838
        38        2.0000           -0.4754498             -12.9376
        39        2.0000           -0.4692463             -12.7688
        40        2.0000           -0.4575229             -12.4498
        41        2.0000           -0.4476701             -12.1817
        42        2.0000           -0.4361663             -11.8687
        43        2.0000           -0.4226741             -11.5015
        44        2.0000           -0.3996162             -10.8741
        45        2.0000           -0.3889254             -10.5832
        46        2.0000           -0.3818065             -10.3895
        47        2.0000           -0.3705059             -10.0820
        48        2.0000           -0.3147048              -8.5636 (HOMO)
        49                         -0.2683774              -7.3029 (LUMO)
        50                         -0.1869012              -5.0858
        51                         -0.1254386              -3.4134
        52                         -0.1125563              -3.0628
        53                         -0.1090928              -2.9686
        54                         -0.1004808              -2.7342
        55                         -0.0916732              -2.4946
        56                         -0.0806940              -2.1958
        57                         -0.0635059              -1.7281
        58                         -0.0625670              -1.7025
        59                         -0.0618296              -1.6825
       ...                                ...                  ...
       100                          0.7314264              19.9031
      -------------------------------------------------------------
                  HL-Gap            0.0463274 Eh            1.2606 eV

Wiberg/Mayer (AO) data.
largest (>0.10) Wiberg bond orders for each atom

     #   Z sym  total        # sym  WBO       # sym  WBO       # sym  WBO
 ---------------------------------------------------------------------------
     1   6 C    3.891 --    19 H    0.987    18 H    0.980    20 H    0.980
                             2 O    0.916
     2   8 O    2.188 --     3 C    1.089     1 C    0.916     4 O    0.117
     3   6 C    3.817 --     4 O    1.598     2 O    1.089     5 C    1.027
     4   8 O    1.917 --     3 C    1.598     2 O    0.117
     5   6 C    3.970 --    17 N    1.411     6 C    1.317     3 C    1.027
     6   6 C    3.873 --     5 C    1.317     8 C    1.191     7 O    0.984
                            17 N    0.189
     7   8 O    1.953 --     6 C    0.984    21 H    0.830
     8   6 C    3.917 --     9 O    1.486     6 C    1.191    10 N    1.085
     9   8 O    1.788 --     8 C    1.486    10 N    0.105
    10   7 N    3.200 --     8 C    1.085    11 C    0.937    22 H    0.922
                             9 O    0.105
    11   6 C    3.941 --    17 N    0.999    12 C    0.970    13 C    0.954
                            10 N    0.937
    12   6 C    3.995 --    25 H    0.986    24 H    0.985    23 H    0.984
                            11 C    0.970
    13   6 C    3.963 --    15 C    1.001    14 C    0.991    16 N    0.984
                            11 C    0.954
    14   6 C    3.996 --    13 C    0.991    26 H    0.987    28 H    0.984
                            27 H    0.982
    15   6 C    3.996 --    13 C    1.001    30 H    0.985    29 H    0.984
                            31 H    0.984
    16   7 N    2.970 --    13 C    0.984    32 H    0.953    33 H    0.941
    17   7 N    2.932 --     5 C    1.411    11 C    0.999     6 C    0.189
    18   1 H    1.011 --     1 C    0.980
    19   1 H    1.014 --     1 C    0.987
    20   1 H    1.012 --     1 C    0.980
    21   1 H    0.893 --     7 O    0.830
    22   1 H    0.971 --    10 N    0.922
    23   1 H    1.022 --    12 C    0.984
    24   1 H    1.007 --    12 C    0.985
    25   1 H    1.009 --    12 C    0.986
    26   1 H    1.007 --    14 C    0.987
    27   1 H    1.022 --    14 C    0.982
    28   1 H    1.015 --    14 C    0.984
    29   1 H    1.010 --    15 C    0.984
    30   1 H    1.005 --    15 C    0.985
    31   1 H    1.005 --    15 C    0.984
    32   1 H    0.969 --    16 N    0.953
    33   1 H    0.990 --    16 N    0.941
 ---------------------------------------------------------------------------

           -------------------------------------------------
          | TOTAL ENERGY              -58.561300776555 Eh   |
          | GRADIENT NORM               0.000843250643 Eh/α |
          | HOMO-LUMO GAP               1.260632882292 eV   |
           -------------------------------------------------

 * finished run on 2023/06/20 at 15:00:33.457
