   * xtb version 6.5.1 (579679a) compiled by 'ehlert@majestix' on 2022-07-11
          program call               : /lustre/hpc/kemi/ree/PhD/git/ReactivityQM/dep/xtb-6.5.1/bin/xtb --gfn 1 /lustre/hpc/kemi/ree/PhD/git/ReactivityQM/calculations/R01/reac01prodE04/conf10/R01_reac01prodE04_conf10_gfn1.xyz --opt --vfukui --chrg -1 --uhf 0 --alpb DMSO

   ID    Z sym.   atoms
    1    6 C      1, 3, 5, 7, 8, 11
    2    8 O      2, 4, 6
    3    7 N      9, 10
    4    1 H      12-20

      * Solvation model:               ALPB
        Solvent                        DMSO
        Solvent mass                       7.8130E+01 g/mol
          :  Hamiltonian                  GFN1-xTB          :
 * total energy  :   -38.2882465 Eh     change       -0.6025402E-11 Eh
 * total energy  :   -38.3022439 Eh     change       -0.1399734E-01 Eh
 * total energy  :   -38.3055665 Eh     change       -0.3322600E-02 Eh
 * total energy  :   -38.3060996 Eh     change       -0.5331238E-03 Eh
 * total energy  :   -38.3063487 Eh     change       -0.2491129E-03 Eh
 * total energy  :   -38.3064630 Eh     change       -0.1143243E-03 Eh
 * total energy  :   -38.3074889 Eh     change       -0.1025832E-02 Eh
 * total energy  :   -38.3082565 Eh     change       -0.7676964E-03 Eh
 * total energy  :   -38.3114285 Eh     change       -0.3171986E-02 Eh
 * total energy  :   -38.3152260 Eh     change       -0.3797465E-02 Eh
 * total energy  :   -38.3246406 Eh     change       -0.2529078E-04 Eh
 * total energy  :   -38.3246556 Eh     change       -0.1499383E-04 Eh
 * total energy  :   -38.3246662 Eh     change       -0.1057342E-04 Eh
 * total energy  :   -38.3246807 Eh     change       -0.1450635E-04 Eh
 * total energy  :   -38.3246900 Eh     change       -0.9254437E-05 Eh
 * total energy  :   -38.3247015 Eh     change       -0.1156872E-04 Eh
 * total energy  :   -38.3247129 Eh     change       -0.1140138E-04 Eh
 * total energy  :   -38.3247165 Eh     change       -0.3614800E-05 Eh
 * total energy  :   -38.3247209 Eh     change       -0.4397870E-05 Eh
   *** GEOMETRY OPTIMIZATION CONVERGED AFTER 55 ITERATIONS ***

 final structure:
================
20
 xtb: 6.5.1 (579679a)
C           -3.58184923307344        0.27719113592755       -0.61334213474541
O           -2.18205896798612        0.45295670691913       -0.62331855079967
C           -1.45066336445482       -0.63873787559529       -0.04836833100654
O           -2.08874817354738       -1.64482781306239        0.35210272775944
C           -0.13534029788930       -0.30533075510985        0.14653164292644
O            0.84903967815671       -1.28159626332999        0.49640662051503
C            1.99353972512771       -0.79612031847774        0.00945954264404
C            3.23730801475362       -1.59629326600636        0.19677276304690
N            1.94708085866210        0.33265505975969       -0.58916721868883
N            0.57142405483683        0.76869110587956       -0.55929950875092
C            0.53341297608402        2.03921739063636        0.18369736866110
H           -3.88050944529550       -0.62650167262642       -1.16232955729420
H           -4.02499303577799        1.14983557632488       -1.09825946250943
H           -3.97202573634737        0.20173924317272        0.41105287804787
H            4.09640262413185       -1.02993526668684       -0.15539192471193
H            3.36824467882477       -1.83663524568358        1.25139576355444
H            3.17108569950856       -2.53262812968941       -0.35791358505587
H           -0.50030308498945        2.38148663483972        0.19896932269402
H            0.89637735755537        1.91795182138850        1.20934019358394
H            1.15257567171986        2.76688193141958       -0.33920554987014

          :  Hamiltonian                  GFN1-xTB          :
         :: total energy             -38.324720935238 Eh    ::
         :: gradient norm              0.000609957712 Eh/a0 ::
         :: HOMO-LUMO gap              2.414866316249 eV    ::
         :: SCC energy               -38.639176371533 Eh    ::
         :: -> Gsolv                  -0.102575202408 Eh    ::
         :: repulsion energy           0.322887026319 Eh    ::

    * Orbital Energies and Occupations

         #    Occupation            Energy/Eh            Energy/eV
      -------------------------------------------------------------
         1        2.0000           -0.7810154             -21.2525
       ...           ...                  ...                  ...
        19        2.0000           -0.5084225             -13.8349
        20        2.0000           -0.5035183             -13.7014
        21        2.0000           -0.4887654             -13.3000
        22        2.0000           -0.4829265             -13.1411
        23        2.0000           -0.4754598             -12.9379
        24        2.0000           -0.4683372             -12.7441
        25        2.0000           -0.4518899             -12.2965
        26        2.0000           -0.4253789             -11.5751
        27        2.0000           -0.4215878             -11.4720
        28        2.0000           -0.4162525             -11.3268
        29        2.0000           -0.3883402             -10.5673
        30        2.0000           -0.3846560             -10.4670
        31        2.0000           -0.2975886              -8.0978 (HOMO)
        32                         -0.2088439              -5.6829 (LUMO)
        33                         -0.1388345              -3.7779
        34                         -0.1235953              -3.3632
        35                         -0.1055585              -2.8724
        36                         -0.0928943              -2.5278
        37                         -0.0571128              -1.5541
        38                         -0.0562100              -1.5296
        39                         -0.0449017              -1.2218
        40                         -0.0422798              -1.1505
        41                         -0.0418857              -1.1398
        42                         -0.0367671              -1.0005
       ...                                ...                  ...
        62                          0.6994307              19.0325
      -------------------------------------------------------------
                  HL-Gap            0.0887447 Eh            2.4149 eV

Wiberg/Mayer (AO) data.
largest (>0.10) Wiberg bond orders for each atom

     #   Z sym  total        # sym  WBO       # sym  WBO       # sym  WBO
 ---------------------------------------------------------------------------
     1   6 C    3.923 --    13 H    0.986    14 H    0.981    12 H    0.980
                             2 O    0.957
     2   8 O    2.028 --     1 C    0.957     3 C    0.885
     3   6 C    3.880 --     5 C    1.490     4 O    1.389     2 O    0.885
     4   8 O    1.716 --     3 C    1.389     5 C    0.173
     5   6 C    3.636 --     3 C    1.490    10 N    0.950     6 O    0.876
                             4 O    0.173
     6   8 O    2.187 --     7 C    1.095     5 C    0.876     9 N    0.135
     7   6 C    3.908 --     9 N    1.707     6 O    1.095     8 C    1.014
     8   6 C    3.995 --     7 C    1.014    15 H    0.987    16 H    0.974
                            17 H    0.972
     9   7 N    2.945 --     7 C    1.707    10 N    0.984     6 O    0.135
    10   7 N    3.059 --     9 N    0.984    11 C    0.970     5 C    0.950
    11   6 C    3.981 --    20 H    0.989    18 H    0.987    19 H    0.983
                            10 N    0.970
    12   1 H    1.025 --     1 C    0.980
    13   1 H    1.021 --     1 C    0.986
    14   1 H    1.022 --     1 C    0.981
    15   1 H    1.006 --     8 C    0.987
    16   1 H    1.003 --     8 C    0.974
    17   1 H    1.004 --     8 C    0.972
    18   1 H    1.033 --    11 C    0.987
    19   1 H    1.021 --    11 C    0.983
    20   1 H    1.024 --    11 C    0.989
 ---------------------------------------------------------------------------

           -------------------------------------------------
          | TOTAL ENERGY              -38.324720935238 Eh   |
          | GRADIENT NORM               0.000609957712 Eh/α |
          | HOMO-LUMO GAP               2.414866316249 eV   |
           -------------------------------------------------

 * finished run on 2023/06/20 at 14:53:41.451
