   * xtb version 6.5.1 (579679a) compiled by 'ehlert@majestix' on 2022-07-11
          program call               : /lustre/hpc/kemi/ree/PhD/git/ReactivityQM/dep/xtb-6.5.1/bin/xtb --gfn 1 /lustre/hpc/kemi/ree/PhD/git/ReactivityQM/calculations/R02methylcation/reac01prodE01/conf11/R02methylcation_reac01prodE01_conf11_gfn1.xyz --opt --vfukui --chrg -2 --uhf 0 --alpb DMSO

   ID    Z sym.   atoms
    1    6 C      1, 3, 5, 7-10, 12, 13, 15, 18, 19, 22, 24
    2    8 O      2, 4, 14, 20, 23, 25
    3    7 N      6, 11, 16, 17, 21
    4    1 H      26-42

      * Solvation model:               ALPB
        Solvent                        DMSO
        Solvent mass                       7.8130E+01 g/mol
          :  Hamiltonian                  GFN1-xTB          :
 * total energy  :   -83.6311994 Eh     change       -0.2292211E-10 Eh
 * total energy  :   -83.6428289 Eh     change       -0.1162950E-01 Eh
 * total energy  :   -83.6466339 Eh     change       -0.3805044E-02 Eh
 * total energy  :   -83.6476665 Eh     change       -0.1032601E-02 Eh
 * total energy  :   -83.6483562 Eh     change       -0.6896268E-03 Eh
 * total energy  :   -83.6487602 Eh     change       -0.4040386E-03 Eh
 * total energy  :   -83.6490251 Eh     change       -0.2649499E-03 Eh
 * total energy  :   -83.6491932 Eh     change       -0.1680747E-03 Eh
 * total energy  :   -83.6493151 Eh     change       -0.1219074E-03 Eh
 * total energy  :   -83.6494265 Eh     change       -0.1113494E-03 Eh
 * total energy  :   -83.6512003 Eh     change       -0.7327451E-05 Eh
 * total energy  :   -83.6512062 Eh     change       -0.5831828E-05 Eh
 * total energy  :   -83.6512115 Eh     change       -0.5282864E-05 Eh
 * total energy  :   -83.6512170 Eh     change       -0.5525607E-05 Eh
 * total energy  :   -83.6512230 Eh     change       -0.6038028E-05 Eh
 * total energy  :   -83.6512294 Eh     change       -0.6367367E-05 Eh
 * total energy  :   -83.6512357 Eh     change       -0.6327468E-05 Eh
 * total energy  :   -83.6512413 Eh     change       -0.5549601E-05 Eh
 * total energy  :   -83.6512459 Eh     change       -0.4617226E-05 Eh
   *** GEOMETRY OPTIMIZATION CONVERGED AFTER 60 ITERATIONS ***

 final structure:
================
42
 xtb: 6.5.1 (579679a)
C            6.36702351765249        0.82068885194461       -0.26213288443064
O            5.02782806485283        0.44932417883451        0.01744744402874
C            4.83935976770746       -0.25012423483921        1.18521464876602
O            5.79682738401114       -0.49808127086003        1.90626595104150
C            3.45395462844982       -0.61827773532625        1.39758771983869
N            2.57304247451814       -0.20451463824202        0.41014922301470
C            1.32593250215739       -0.49741779172463        0.49147024167513
C            0.35754409210310       -0.09282182343122       -0.61604518045593
C            0.66356493233226        1.36519034996147       -1.00803384288948
C            0.63608596891732       -1.03247969565902       -1.80016385670456
N           -1.00001887859169       -0.24875330424683       -0.08493226795158
C           -2.15537178977857       -0.17999484126388       -1.10945147745129
C           -2.65625951513141       -1.65494744987021       -1.27480477410696
O           -1.91122410343085        0.44760186284023       -2.22276023943768
C           -3.27008371343036        0.55111102002885       -0.28599760197458
N           -3.11656171639706        1.48296986398927        0.60203880804342
N           -4.37909913020946        1.93020969332319        0.94375467832297
C           -5.20753381407270        1.24297140522734        0.23293829589686
C           -6.68795073572024        1.33656612829129        0.22535135665344
O           -4.58034494426711        0.35654804657376       -0.56531575270134
N            0.82449987400548       -1.23443600083630        1.53973923822922
C            1.56780698856292       -1.69125961852081        2.58831935138241
O            1.03037995465152       -2.33254427324216        3.49500397901154
C            3.04257782783153       -1.36334601752838        2.53426911720521
O            3.78038192450279       -1.75946479823714        3.46004088487927
H            6.36369158798037        1.33910357378278       -1.22043030697796
H            7.01239987708649       -0.06204383857754       -0.32522358380023
H            6.75964758077588        1.48658142668940        0.51384790940637
H            0.03991634547653        1.67127955444011       -1.84641571629647
H            0.46995356464932        2.02828709546024       -0.16395241892566
H            1.71402291863809        1.45502187542431       -1.28790994506248
H            1.68994908827646       -0.96009747357825       -2.07260660923548
H            0.42066742992794       -2.06429729939377       -1.52195477922879
H            0.03109077350443       -0.76034605172153       -2.66392471809118
H           -1.14917607436503        0.52625376754710        0.56461291304643
H           -3.57877152385115       -1.64949451479659       -1.85308300095449
H           -2.83666858944202       -2.11125937061560       -0.30313208190964
H           -1.90919369672803       -2.23387980175322       -1.81349992917437
H           -7.00970975385106        2.08155206471262        0.94873745061449
H           -7.04432354032613        1.61856719961302       -0.76516159504641
H           -7.12755229867937        0.37252655781703        0.47961313557323
H           -0.16830325030624       -1.43900667225088        1.53053021618727

          :  Hamiltonian                  GFN1-xTB          :
         :: total energy             -83.651245882086 Eh    ::
         :: gradient norm              0.000207532766 Eh/a0 ::
         :: HOMO-LUMO gap              2.232036090847 eV    ::
         :: SCC energy               -84.384739819169 Eh    ::
         :: -> Gsolv                  -0.263550016986 Eh    ::
         :: repulsion energy           0.759551502556 Eh    ::

    * Orbital Energies and Occupations

         #    Occupation            Energy/Eh            Energy/eV
      -------------------------------------------------------------
         1        2.0000           -0.8171660             -22.2362
       ...           ...                  ...                  ...
        56        2.0000           -0.4411833             -12.0052
        57        2.0000           -0.4397753             -11.9669
        58        2.0000           -0.4347357             -11.8298
        59        2.0000           -0.4271380             -11.6230
        60        2.0000           -0.4224643             -11.4958
        61        2.0000           -0.4124426             -11.2231
        62        2.0000           -0.4077784             -11.0962
        63        2.0000           -0.3987283             -10.8499
        64        2.0000           -0.3728748             -10.1464
        65        2.0000           -0.3635189              -9.8919
        66        2.0000           -0.3506282              -9.5411
        67        2.0000           -0.3421723              -9.3110
        68        2.0000           -0.3405027              -9.2656 (HOMO)
        69                         -0.2584769              -7.0335 (LUMO)
        70                         -0.2242100              -6.1011
        71                         -0.2183787              -5.9424
        72                         -0.2085061              -5.6737
        73                         -0.1847380              -5.0270
        74                         -0.1279378              -3.4814
        75                         -0.1186864              -3.2296
        76                         -0.0970378              -2.6405
        77                         -0.0937558              -2.5512
        78                         -0.0850261              -2.3137
        79                         -0.0785771              -2.1382
       ...                                ...                  ...
       134                          0.7691211              20.9288
      -------------------------------------------------------------
                  HL-Gap            0.0820258 Eh            2.2320 eV

Wiberg/Mayer (AO) data.
largest (>0.10) Wiberg bond orders for each atom

     #   Z sym  total        # sym  WBO       # sym  WBO       # sym  WBO
 ---------------------------------------------------------------------------
     1   6 C    3.904 --    26 H    0.987    28 H    0.980    27 H    0.980
                             2 O    0.932
     2   8 O    2.131 --     3 C    1.014     1 C    0.932     4 O    0.105
     3   6 C    3.849 --     4 O    1.580     5 C    1.133     2 O    1.014
     4   8 O    1.858 --     3 C    1.580     2 O    0.105
     5   6 C    3.920 --    24 C    1.274     6 N    1.145     3 C    1.133
                            25 O    0.130
     6   7 N    3.019 --     7 C    1.627     5 C    1.145
     7   6 C    3.924 --     6 N    1.627    21 N    1.105     8 C    0.970
     8   6 C    3.968 --    10 C    0.983     9 C    0.983    11 N    0.981
                             7 C    0.970
     9   6 C    3.995 --    30 H    0.986    31 H    0.985     8 C    0.983
                            29 H    0.979
    10   6 C    3.994 --    32 H    0.987    33 H    0.985     8 C    0.983
                            34 H    0.977
    11   7 N    3.003 --     8 C    0.981    35 H    0.944    12 C    0.847
    12   6 C    3.936 --    14 O    1.212    13 C    0.940    15 C    0.883
                            11 N    0.847
    13   6 C    3.992 --    37 H    0.991    36 H    0.987    38 H    0.984
                            12 C    0.940
    14   8 O    1.561 --    12 C    1.212
    15   6 C    3.804 --    16 N    1.651    20 O    1.048    12 C    0.883
    16   7 N    2.983 --    15 C    1.651    17 N    1.146
    17   7 N    2.976 --    18 C    1.657    16 N    1.146
    18   6 C    3.888 --    17 N    1.657    20 O    1.063    19 C    1.024
    19   6 C    3.993 --    18 C    1.024    39 H    0.985    41 H    0.971
                            40 H    0.970
    20   8 O    2.295 --    18 C    1.063    15 C    1.048
    21   7 N    3.444 --    22 C    1.181     7 C    1.105    42 H    0.886
                            23 O    0.136
    22   6 C    3.884 --    23 O    1.554    21 N    1.181    24 C    0.973
    23   8 O    1.833 --    22 C    1.554    21 N    0.136
    24   6 C    3.944 --    25 O    1.506     5 C    1.274    22 C    0.973
    25   8 O    1.809 --    24 C    1.506     5 C    0.130
    26   1 H    1.017 --     1 C    0.987
    27   1 H    1.016 --     1 C    0.980
    28   1 H    1.015 --     1 C    0.980
    29   1 H    1.034 --     9 C    0.979
    30   1 H    1.010 --     9 C    0.986
    31   1 H    1.019 --     9 C    0.985
    32   1 H    1.013 --    10 C    0.987
    33   1 H    1.011 --    10 C    0.985
    34   1 H    1.030 --    10 C    0.977
    35   1 H    0.995 --    11 N    0.944
    36   1 H    1.017 --    13 C    0.987
    37   1 H    1.017 --    13 C    0.991
    38   1 H    1.018 --    13 C    0.984
    39   1 H    1.003 --    19 C    0.985
    40   1 H    1.002 --    19 C    0.970
    41   1 H    1.002 --    19 C    0.971
    42   1 H    0.973 --    21 N    0.886
 ---------------------------------------------------------------------------

           -------------------------------------------------
          | TOTAL ENERGY              -83.651245882086 Eh   |
          | GRADIENT NORM               0.000207532766 Eh/α |
          | HOMO-LUMO GAP               2.232036090847 eV   |
           -------------------------------------------------

 * finished run on 2023/06/21 at 17:03:55.263
