   * xtb version 6.5.1 (579679a) compiled by 'ehlert@majestix' on 2022-07-11
          program call               : /lustre/hpc/kemi/ree/PhD/git/ReactivityQM/dep/xtb-6.5.1/bin/xtb --gfn 1 /lustre/hpc/kemi/ree/PhD/git/ReactivityQM/calculations/R02/reac01prodN13/conf15/R02_reac01prodN13_conf15_gfn1.xyz --opt --vfukui --chrg 1 --uhf 0 --alpb DMSO

   ID    Z sym.   atoms
    1    6 C      1, 3, 5, 7-10, 12, 14, 17-19, 22, 24
    2    8 O      2, 4, 13, 20, 23, 25
    3    7 N      6, 11, 15, 16, 21
    4    1 H      26-43

      * Solvation model:               ALPB
        Solvent                        DMSO
        Solvent mass                       7.8130E+01 g/mol
          :  Hamiltonian                  GFN1-xTB          :
 * total energy  :   -83.1027267 Eh     change       -0.1618616E-10 Eh
 * total energy  :   -83.1169791 Eh     change       -0.1425236E-01 Eh
 * total energy  :   -83.1223859 Eh     change       -0.5406754E-02 Eh
 * total energy  :   -83.1233712 Eh     change       -0.9853710E-03 Eh
 * total energy  :   -83.1241448 Eh     change       -0.7735692E-03 Eh
 * total energy  :   -83.1244779 Eh     change       -0.3330759E-03 Eh
 * total energy  :   -83.1247907 Eh     change       -0.3128067E-03 Eh
 * total energy  :   -83.1250107 Eh     change       -0.2200482E-03 Eh
 * total energy  :   -83.1251414 Eh     change       -0.1306933E-03 Eh
 * total energy  :   -83.1251881 Eh     change       -0.4665731E-04 Eh
 * total energy  :   -83.1260518 Eh     change       -0.2698201E-04 Eh
 * total energy  :   -83.1260790 Eh     change       -0.2712233E-04 Eh
 * total energy  :   -83.1261041 Eh     change       -0.2513908E-04 Eh
 * total energy  :   -83.1261277 Eh     change       -0.2360590E-04 Eh
 * total energy  :   -83.1261470 Eh     change       -0.1928313E-04 Eh
 * total energy  :   -83.1261603 Eh     change       -0.1332649E-04 Eh
 * total energy  :   -83.1261706 Eh     change       -0.1032446E-04 Eh
 * total energy  :   -83.1261783 Eh     change       -0.7649175E-05 Eh
 * total energy  :   -83.1261830 Eh     change       -0.4746183E-05 Eh
   *** GEOMETRY OPTIMIZATION CONVERGED AFTER 41 ITERATIONS ***

 final structure:
================
43
 xtb: 6.5.1 (579679a)
C           -6.17100280670533       -1.50929502927178        1.07340598503792
O           -4.89969706393668       -0.91818268132210        0.77106607040605
C           -4.76020261279812       -0.39082062827518       -0.43036653788827
O           -5.64105533674205       -0.38308194801302       -1.27136401735100
C           -3.42162590368745        0.20561052111551       -0.67653749317508
N           -2.49566323664184        0.11557451076092        0.32172175950862
C           -1.32502320395326        0.63268001642413        0.13699213933580
C           -0.30465037428685        0.59431597366662        1.25167918643230
C           -0.23561215179658        1.96882402745971        1.92290489241431
C           -0.65565412577425       -0.50436720166531        2.25916903189499
N            1.01417528991844        0.31342068457400        0.67048682110075
C            1.20217273283021       -0.72641197932468       -0.15816365516356
O            0.34586508162517       -1.47162327164299       -0.58256156747132
C            2.64448392581935       -0.88645507021503       -0.55224352704917
N            3.11982809668745       -1.87513553535035       -1.36639093279489
N            4.37112169098586       -1.72375323418779       -1.46595314176541
C            4.79476659876171       -0.60126995764519       -0.70057065812175
C            5.40575280636912        0.47718816278002       -1.60360796950215
C            5.74568365370660       -1.03125826272991        0.42282278001785
O            3.57547421189490       -0.11488969621002       -0.13410839956656
N           -0.98313020418483        1.27518577887703       -1.01026137417679
C           -1.81787375309578        1.41426276009609       -2.10943720922656
O           -1.44182727062014        1.98022846175680       -3.11519772568035
C           -3.14317378664310        0.81664816345702       -1.88350031027370
O           -4.00624967103596        0.90919237810963       -2.88194524581653
H           -6.35659663171081       -2.35095225028871        0.40263238657832
H           -6.11485957486584       -1.84797813552637        2.10555358022908
H           -6.96266963159518       -0.76664132493227        0.95461357458317
H            0.50031218108311        1.95116038570428        2.72403746726851
H           -1.20934513855620        2.22142523021735        2.34026125024668
H            0.04740512519445        2.72732874351021        1.19573682334964
H           -0.71789546536862       -1.46778294097719        1.75536033500893
H           -1.62029826531895       -0.27770553472209        2.71037329497989
H            0.10747905617827       -0.54810173703245        3.03237305498193
H            1.80578107310915        0.83574574535474        1.00457991646293
H            6.32319826333240        0.09101051793539       -2.04126649485213
H            5.62007882025346        1.35513671891495       -0.99949449862225
H            4.69672468849538        0.73301277781583       -2.38781860096485
H            6.64480739342835       -1.45261909675188       -0.02033540820731
H            5.99681590271185       -0.15855899033153        1.02023195313186
H            5.25181819773690       -1.77450455790979        1.04475278863744
H           -0.06178338282460        1.67491808934932       -1.09346523084839
H           -4.86785919798029        0.48851741643986       -2.63616709308277

          :  Hamiltonian                  GFN1-xTB          :
         :: total energy             -83.126183041355 Eh    ::
         :: gradient norm              0.000347942734 Eh/a0 ::
         :: HOMO-LUMO gap              0.139220147789 eV    ::
         :: SCC energy               -83.911773166394 Eh    ::
         :: -> Gsolv                  -0.123806505331 Eh    ::
         :: repulsion energy           0.812044191468 Eh    ::

    * Orbital Energies and Occupations

         #    Occupation            Energy/Eh            Energy/eV
      -------------------------------------------------------------
         1        2.0000           -0.9339526             -25.4141
       ...           ...                  ...                  ...
        55        2.0000           -0.5375182             -14.6266
        56        2.0000           -0.5283076             -14.3760
        57        2.0000           -0.5241835             -14.2638
        58        2.0000           -0.5222787             -14.2119
        59        2.0000           -0.5155188             -14.0280
        60        2.0000           -0.5109702             -13.9042
        61        2.0000           -0.5059217             -13.7668
        62        2.0000           -0.5047366             -13.7346
        63        2.0000           -0.5022874             -13.6679
        64        2.0000           -0.4956626             -13.4877
        65        2.0000           -0.4782688             -13.0144
        66        2.0000           -0.4644931             -12.6395
        67        1.8732           -0.4472746             -12.1710 (HOMO)
        68        0.1268           -0.4421584             -12.0317 (LUMO)
        69                         -0.3586617              -9.7597
        70                         -0.3423178              -9.3149
        71                         -0.3038352              -8.2678
        72                         -0.2586994              -7.0396
        73                         -0.2576551              -7.0112
        74                         -0.1782425              -4.8502
        75                         -0.1608164              -4.3760
        76                         -0.1552463              -4.2245
        77                         -0.1495925              -4.0706
        78                         -0.1434788              -3.9043
       ...                                ...                  ...
       136                          0.7118527              19.3705
      -------------------------------------------------------------
                  HL-Gap            0.0051162 Eh            0.1392 eV

Wiberg/Mayer (AO) data.
largest (>0.10) Wiberg bond orders for each atom

     #   Z sym  total        # sym  WBO       # sym  WBO       # sym  WBO
 ---------------------------------------------------------------------------
     1   6 C    3.858 --    27 H    0.986    28 H    0.978    26 H    0.978
                             2 O    0.885
     2   8 O    2.226 --     3 C    1.151     1 C    0.885     4 O    0.134
     3   6 C    3.850 --     4 O    1.610     2 O    1.151     5 C    1.009
     4   8 O    1.950 --     3 C    1.610     2 O    0.134
     5   6 C    3.920 --    24 C    1.438     6 N    1.209     3 C    1.009
     6   7 N    2.990 --     7 C    1.546     5 C    1.209
     7   6 C    3.900 --     6 N    1.546    21 N    1.193     8 C    0.977
     8   6 C    3.914 --     9 C    0.979    10 C    0.979     7 C    0.977
                            11 N    0.913
     9   6 C    3.981 --    31 H    0.983    30 H    0.981    29 H    0.980
                             8 C    0.979
    10   6 C    3.979 --    34 H    0.984    32 H    0.981    33 H    0.980
                             8 C    0.979
    11   7 N    3.399 --    12 C    1.279     8 C    0.913    35 H    0.879
                            13 O    0.211
    12   6 C    3.925 --    13 O    1.609    11 N    1.279    14 C    0.954
    13   8 O    1.929 --    12 C    1.609    11 N    0.211
    14   6 C    3.731 --    20 O    1.309    15 N    1.225    12 C    0.954
    15   7 N    3.012 --    16 N    1.647    14 C    1.225
    16   7 N    2.899 --    15 N    1.647    17 C    1.056
    17   6 C    3.815 --    16 N    1.056    19 C    0.905    18 C    0.905
                            20 O    0.860
    18   6 C    3.940 --    38 H    0.979    36 H    0.977    37 H    0.976
                            17 C    0.905
    19   6 C    3.940 --    41 H    0.979    39 H    0.977    40 H    0.976
                            17 C    0.905
    20   8 O    2.348 --    14 C    1.309    17 C    0.860
    21   7 N    3.455 --     7 C    1.193    22 C    1.105    42 H    0.881
                            23 O    0.127
    22   6 C    3.896 --    23 O    1.626    21 N    1.105    24 C    1.043
    23   8 O    1.894 --    22 C    1.626    21 N    0.127
    24   6 C    3.862 --     5 C    1.438    25 O    1.161    22 C    1.043
    25   8 O    2.093 --    24 C    1.161    43 H    0.760
    26   1 H    1.004 --     1 C    0.978
    27   1 H    1.009 --     1 C    0.986
    28   1 H    1.004 --     1 C    0.978
    29   1 H    0.993 --     9 C    0.980
    30   1 H    0.997 --     9 C    0.981
    31   1 H    0.996 --     9 C    0.983
    32   1 H    1.004 --    10 C    0.981
    33   1 H    1.005 --    10 C    0.980
    34   1 H    0.998 --    10 C    0.984
    35   1 H    0.916 --    11 N    0.879
    36   1 H    0.992 --    18 C    0.977
    37   1 H    0.991 --    18 C    0.976
    38   1 H    0.991 --    18 C    0.979
    39   1 H    0.992 --    19 C    0.977
    40   1 H    0.991 --    19 C    0.976
    41   1 H    0.991 --    19 C    0.979
    42   1 H    0.925 --    21 N    0.881
    43   1 H    0.842 --    25 O    0.760
 ---------------------------------------------------------------------------

           -------------------------------------------------
          | TOTAL ENERGY              -83.126183041355 Eh   |
          | GRADIENT NORM               0.000347942734 Eh/α |
          | HOMO-LUMO GAP               0.139220147789 eV   |
           -------------------------------------------------

 * finished run on 2023/06/20 at 15:35:54.492
