   * xtb version 6.5.1 (579679a) compiled by 'ehlert@majestix' on 2022-07-11
          program call               : /lustre/hpc/kemi/ree/PhD/git/ReactivityQM/dep/xtb-6.5.1/bin/xtb --gfn 1 /lustre/hpc/kemi/ree/PhD/git/ReactivityQM/calculations/RaltegravirCLI/reac01prodE04/conf10/RaltegravirCLI_reac01prodE04_conf10_gfn1.xyz --opt --vfukui --chrg -1 --uhf 0 --alpb DMSO

   ID    Z sym.   atoms
    1    6 C      1, 2, 5-7
    2    7 N      3, 4
    3    8 O      8, 10
    4   17 Cl     9
    5    1 H      11-16

      * Solvation model:               ALPB
        Solvent                        DMSO
        Solvent mass                       7.8130E+01 g/mol
          :  Hamiltonian                  GFN1-xTB          :
 * total energy  :   -34.1289102 Eh     change       -0.1239897E-10 Eh
 * total energy  :   -34.1341237 Eh     change       -0.5213479E-02 Eh
 * total energy  :   -34.1364869 Eh     change       -0.2363254E-02 Eh
 * total energy  :   -34.1377046 Eh     change       -0.1217685E-02 Eh
 * total energy  :   -34.1407392 Eh     change       -0.3034550E-02 Eh
 * total energy  :   -34.1416441 Eh     change       -0.9049059E-03 Eh
 * total energy  :   -34.1437922 Eh     change       -0.2148106E-02 Eh
 * total energy  :   -34.1447538 Eh     change       -0.9615849E-03 Eh
 * total energy  :   -34.1467839 Eh     change       -0.2030176E-02 Eh
 * total energy  :   -34.1479448 Eh     change       -0.1160913E-02 Eh
 * total energy  :   -34.1513386 Eh     change       -0.2302426E-04 Eh
 * total energy  :   -34.1513692 Eh     change       -0.3053866E-04 Eh
 * total energy  :   -34.1513971 Eh     change       -0.2790026E-04 Eh
 * total energy  :   -34.1514142 Eh     change       -0.1716221E-04 Eh
 * total energy  :   -34.1514297 Eh     change       -0.1542881E-04 Eh
 * total energy  :   -34.1514396 Eh     change       -0.9906123E-05 Eh
 * total energy  :   -34.1514484 Eh     change       -0.8790781E-05 Eh
 * total energy  :   -34.1514538 Eh     change       -0.5442756E-05 Eh
 * total energy  :   -34.1514559 Eh     change       -0.2116189E-05 Eh
   *** GEOMETRY OPTIMIZATION CONVERGED AFTER 32 ITERATIONS ***

 final structure:
================
16
 xtb: 6.5.1 (579679a)
C           -2.71051317865094       -0.34507634091881       -0.12912641891323
C           -1.23995398970182       -0.13407209788753       -0.21142778730106
N           -0.42759794528389       -0.88640706119096       -0.84596516829159
N            0.88068784858635       -0.31829559217505       -0.69562441764132
C            1.74731884046567       -1.32741530612917       -0.06880380994125
C            0.66816642899199        0.85505908058076        0.15047864265314
C            1.56198298875375        1.84976457660414        0.25364562359646
O            2.76480974230062        1.93911937463217        0.00429899382048
Cl           0.80342637369950        3.33881974134394        1.21509251307581
O           -0.71501096707229        0.92738216688111        0.42183197041631
H           -3.23553396731401        0.48216326064584       -0.60692826785748
H           -2.97711392400604       -1.27551160031187       -0.62411176813062
H           -3.02213837504980       -0.38485996463911        0.91390220793985
H            1.79016469307836       -2.19516562775889       -0.72479767535986
H            2.74260501850375       -0.89661272674167        0.03504969286558
H            1.36870041269879       -1.62889188293483        0.91248666906877

          :  Hamiltonian                  GFN1-xTB          :
         :: total energy             -34.151455923071 Eh    ::
         :: gradient norm              0.000213854687 Eh/a0 ::
         :: HOMO-LUMO gap              2.686178051267 eV    ::
         :: SCC energy               -34.422776837963 Eh    ::
         :: -> Gsolv                  -0.094286601723 Eh    ::
         :: repulsion energy           0.278745617286 Eh    ::

    * Orbital Energies and Occupations

         #    Occupation            Energy/Eh            Energy/eV
      -------------------------------------------------------------
         1        2.0000           -0.8439452             -22.9649
       ...           ...                  ...                  ...
        16        2.0000           -0.5187817             -14.1168
        17        2.0000           -0.5143490             -13.9961
        18        2.0000           -0.5118585             -13.9284
        19        2.0000           -0.4998475             -13.6015
        20        2.0000           -0.4952957             -13.4777
        21        2.0000           -0.4774557             -12.9922
        22        2.0000           -0.4409804             -11.9997
        23        2.0000           -0.4399466             -11.9716
        24        2.0000           -0.4366601             -11.8821
        25        2.0000           -0.4278590             -11.6426
        26        2.0000           -0.4122058             -11.2167
        27        2.0000           -0.4040886             -10.9958
        28        2.0000           -0.3203876              -8.7182 (HOMO)
        29                         -0.2216723              -6.0320 (LUMO)
        30                         -0.1795385              -4.8855
        31                         -0.1568367              -4.2677
        32                         -0.1274883              -3.4691
        33                         -0.1014670              -2.7611
        34                         -0.0608426              -1.6556
        35                         -0.0598803              -1.6294
        36                         -0.0490175              -1.3338
        37                         -0.0449716              -1.2237
        38                         -0.0087361              -0.2377
        39                          0.0219220               0.5965
       ...                                ...                  ...
        57                          0.7892056              21.4754
      -------------------------------------------------------------
                  HL-Gap            0.0987152 Eh            2.6862 eV

Wiberg/Mayer (AO) data.
largest (>0.10) Wiberg bond orders for each atom

     #   Z sym  total        # sym  WBO       # sym  WBO       # sym  WBO
 ---------------------------------------------------------------------------
     1   6 C    3.994 --     2 C    1.018    12 H    0.986    13 H    0.972
                            11 H    0.970
     2   6 C    3.902 --     3 N    1.722    10 O    1.070     1 C    1.018
     3   7 N    2.956 --     2 C    1.722     4 N    0.992    10 O    0.124
     4   7 N    3.081 --     3 N    0.992     5 C    0.962     6 C    0.949
     5   6 C    3.975 --    14 H    0.989    15 H    0.987    16 H    0.984
                             4 N    0.962
     6   6 C    3.736 --     7 C    1.596     4 N    0.949    10 O    0.906
                             8 O    0.188
     7   6 C    3.884 --     6 C    1.596     8 O    1.522     9 Cl   0.641
     8   8 O    1.881 --     7 C    1.522     6 C    0.188     9 Cl   0.115
     9  17 Cl   0.809 --     7 C    0.641     8 O    0.115
    10   8 O    2.195 --     2 C    1.070     6 C    0.906     3 N    0.124
    11   1 H    1.002 --     1 C    0.970
    12   1 H    1.004 --     1 C    0.986
    13   1 H    1.002 --     1 C    0.972
    14   1 H    1.021 --     5 C    0.989
    15   1 H    1.022 --     5 C    0.987
    16   1 H    1.015 --     5 C    0.984
 ---------------------------------------------------------------------------

           -------------------------------------------------
          | TOTAL ENERGY              -34.151455923071 Eh   |
          | GRADIENT NORM               0.000213854687 Eh/α |
          | HOMO-LUMO GAP               2.686178051267 eV   |
           -------------------------------------------------

 * finished run on 2023/06/20 at 14:53:32.406
