   * xtb version 6.5.1 (579679a) compiled by 'ehlert@majestix' on 2022-07-11
          program call               : /lustre/hpc/kemi/ree/PhD/git/ReactivityQM/dep/xtb-6.5.1/bin/xtb --gfn 1 /lustre/hpc/kemi/ree/PhD/git/ReactivityQM/calculations/R02methylcation/reac01prodN07/conf04/R02methylcation_reac01prodN07_conf04_gfn1.xyz --opt --vfukui --chrg 0 --uhf 0 --alpb DMSO

   ID    Z sym.   atoms
    1    6 C      1, 3, 5, 7-10, 12, 14, 17-19, 22, 24
    2    8 O      2, 4, 13, 20, 23, 25
    3    7 N      6, 11, 15, 16, 21
    4    1 H      26-42

      * Solvation model:               ALPB
        Solvent                        DMSO
        Solvent mass                       7.8130E+01 g/mol
          :  Hamiltonian                  GFN1-xTB          :
 * total energy  :   -82.9535723 Eh     change       -0.6612311E-10 Eh
 * total energy  :   -82.9697612 Eh     change       -0.1618891E-01 Eh
 * total energy  :   -82.9764297 Eh     change       -0.6668416E-02 Eh
 * total energy  :   -82.9774195 Eh     change       -0.9898116E-03 Eh
 * total energy  :   -82.9779750 Eh     change       -0.5554865E-03 Eh
 * total energy  :   -82.9781372 Eh     change       -0.1622169E-03 Eh
 * total energy  :   -82.9782863 Eh     change       -0.1491136E-03 Eh
 * total energy  :   -82.9784179 Eh     change       -0.1316335E-03 Eh
 * total energy  :   -82.9785349 Eh     change       -0.1169981E-03 Eh
 * total energy  :   -82.9786470 Eh     change       -0.1120790E-03 Eh
 * total energy  :   -82.9791774 Eh     change       -0.1258790E-04 Eh
 * total energy  :   -82.9791922 Eh     change       -0.1487521E-04 Eh
 * total energy  :   -82.9792108 Eh     change       -0.1858682E-04 Eh
 * total energy  :   -82.9792321 Eh     change       -0.2129563E-04 Eh
 * total energy  :   -82.9792520 Eh     change       -0.1985323E-04 Eh
 * total energy  :   -82.9792708 Eh     change       -0.1879553E-04 Eh
 * total energy  :   -82.9792929 Eh     change       -0.2209985E-04 Eh
 * total energy  :   -82.9793161 Eh     change       -0.2325177E-04 Eh
 * total energy  :   -82.9793205 Eh     change       -0.4388821E-05 Eh
   *** GEOMETRY OPTIMIZATION CONVERGED AFTER 44 ITERATIONS ***

 final structure:
================
42
 xtb: 6.5.1 (579679a)
C           -6.96691436475855       -0.37880947519449       -1.71114387238424
O           -5.82406388095418        0.37903669739559       -1.33740848014900
C           -4.80259945243787       -0.32476265180840       -0.79035886942590
O           -4.88465036663347       -1.53953036487343       -0.65189511824470
C           -3.65385362396528        0.47786913283580       -0.39417630473858
N           -2.64876998945876       -0.27790528164849        0.17939882824395
C           -1.57610678289347        0.27091588014209        0.61267258460517
C           -0.52505222425537       -0.58781376863707        1.29397048561316
C           -0.42051590156150       -0.24149120851629        2.78377134433660
C           -0.89184208619564       -2.06245362533859        1.11977895220964
N            0.79682821080416       -0.41543845234038        0.64169146400238
C            1.63805300629512        0.60065377242898        0.83343295823270
O            1.43878534998440        1.63313470126037        1.44604448599041
C            2.97434559641636        0.37429023478853        0.17875555912626
N            3.99492276074244        1.17744556133089        0.19783615299521
N            4.96250503800465        0.52508015775333       -0.47257172613321
C            6.27452024988523        1.12056670907837       -0.61617630027327
C            4.52150175197606       -0.64691673658729       -0.87734216596479
C            5.22911998780768       -1.70147869917213       -1.61999133078956
O            3.26898400281010       -0.76459078969773       -0.48246598065802
N           -1.37283273570347        1.63191073943160        0.53382094666848
C           -2.26498302564304        2.49889170654311       -0.04429585592151
O           -1.99504835993338        3.69542754907636       -0.11312784447546
C           -3.55115707354961        1.88489710837231       -0.55492982366499
O           -4.40347208445797        2.63265368026410       -1.06621346014650
H           -7.38539453529845       -0.90030139911651       -0.84449021550892
H           -6.70810998819973       -1.11833640739710       -2.47523740645357
H           -7.69972628688228        0.32212223514312       -2.10933704455094
H           -1.35835941494496       -0.50227551248412        3.27276634444971
H            0.38683271400315       -0.81152076192610        3.23907322952427
H           -0.23156292327754        0.81952523062436        2.93143390781604
H           -0.95546153033937       -2.31086684605348        0.06130344798892
H           -0.14226773538507       -2.69293452465026        1.59281139076101
H           -1.86197335956099       -2.25218885117074        1.57758228574774
H            1.13826850049853       -1.20640759244015        0.12278312812641
H            6.94351538370302        0.67613510902634        0.11953987086374
H            6.64416305644300        0.92164930670812       -1.61913619430571
H            6.18115506727869        2.18980441138348       -0.44275546643114
H            5.76103285974208       -1.27446113668536       -2.47004571198814
H            5.96548138285363       -2.17604709141799       -0.96797714906527
H            4.51569507262742       -2.45017884092835       -1.95880454592106
H           -0.51099126558275        2.02666509450300        0.88140849989756

          :  Hamiltonian                  GFN1-xTB          :
         :: total energy             -82.979320515616 Eh    ::
         :: gradient norm              0.000318187154 Eh/a0 ::
         :: HOMO-LUMO gap              0.377074464142 eV    ::
         :: SCC energy               -83.766837794570 Eh    ::
         :: -> Gsolv                  -0.138401495173 Eh    ::
         :: repulsion energy           0.812534842563 Eh    ::

    * Orbital Energies and Occupations

         #    Occupation            Energy/Eh            Energy/eV
      -------------------------------------------------------------
         1        2.0000           -0.9362706             -25.4772
       ...           ...                  ...                  ...
        55        2.0000           -0.5045030             -13.7282
        56        2.0000           -0.5009176             -13.6307
        57        2.0000           -0.4956907             -13.4884
        58        2.0000           -0.4892916             -13.3143
        59        2.0000           -0.4827841             -13.1372
        60        2.0000           -0.4684333             -12.7467
        61        2.0000           -0.4666171             -12.6973
        62        2.0000           -0.4582726             -12.4702
        63        2.0000           -0.4421907             -12.0326
        64        2.0000           -0.4387871             -11.9400
        65        2.0000           -0.4201858             -11.4338
        66        2.0000           -0.3816018             -10.3839
        67        1.9986           -0.3695020             -10.0547 (HOMO)
        68        0.0014           -0.3556447              -9.6776 (LUMO)
        69                         -0.3419308              -9.3044
        70                         -0.2724116              -7.4127
        71                         -0.2449302              -6.6649
        72                         -0.2374320              -6.4609
        73                         -0.1993242              -5.4239
        74                         -0.1838287              -5.0022
        75                         -0.1712053              -4.6587
        76                         -0.1293827              -3.5207
        77                         -0.1238551              -3.3703
        78                         -0.1236738              -3.3653
       ...                                ...                  ...
       134                          0.7538907              20.5144
      -------------------------------------------------------------
                  HL-Gap            0.0138572 Eh            0.3771 eV

Wiberg/Mayer (AO) data.
largest (>0.10) Wiberg bond orders for each atom

     #   Z sym  total        # sym  WBO       # sym  WBO       # sym  WBO
 ---------------------------------------------------------------------------
     1   6 C    3.897 --    28 H    0.987    27 H    0.981    26 H    0.980
                             2 O    0.923
     2   8 O    2.162 --     3 C    1.052     1 C    0.923     4 O    0.111
     3   6 C    3.850 --     4 O    1.578     5 C    1.110     2 O    1.052
     4   8 O    1.852 --     3 C    1.578     2 O    0.111
     5   6 C    3.910 --    24 C    1.268     6 N    1.156     3 C    1.110
                            25 O    0.128
     6   7 N    3.033 --     7 C    1.629     5 C    1.156
     7   6 C    3.933 --     6 N    1.629    21 N    1.100     8 C    0.968
     8   6 C    3.913 --    10 C    1.001     9 C    0.986     7 C    0.968
                            11 N    0.890
     9   6 C    3.987 --     8 C    0.986    30 H    0.985    29 H    0.984
                            31 H    0.980
    10   6 C    3.991 --     8 C    1.001    33 H    0.986    32 H    0.982
                            34 H    0.980
    11   7 N    3.393 --    12 C    1.318    35 H    0.893     8 C    0.890
                            13 O    0.201
    12   6 C    3.926 --    13 O    1.577    11 N    1.318    14 C    0.956
    13   8 O    1.930 --    12 C    1.577    11 N    0.201
    14   6 C    3.833 --    15 N    1.613    20 O    1.050    12 C    0.956
    15   7 N    2.978 --    14 C    1.613    16 N    1.149
    16   7 N    3.632 --    18 C    1.427    15 N    1.149    17 C    0.911
    17   6 C    3.886 --    38 H    0.977    37 H    0.974    36 H    0.965
                            16 N    0.911
    18   6 C    3.841 --    16 N    1.427    20 O    1.145    19 C    1.042
    19   6 C    3.961 --    18 C    1.042    41 H    0.971    39 H    0.954
                            40 H    0.938
    20   8 O    2.372 --    18 C    1.145    14 C    1.050
    21   7 N    3.428 --    22 C    1.163     7 C    1.100    42 H    0.880
                            23 O    0.136
    22   6 C    3.879 --    23 O    1.579    21 N    1.163    24 C    0.966
    23   8 O    1.858 --    22 C    1.579    21 N    0.136
    24   6 C    3.942 --    25 O    1.524     5 C    1.268    22 C    0.966
    25   8 O    1.827 --    24 C    1.524     5 C    0.128
    26   1 H    1.014 --     1 C    0.980
    27   1 H    1.014 --     1 C    0.981
    28   1 H    1.015 --     1 C    0.987
    29   1 H    1.002 --     9 C    0.984
    30   1 H    0.999 --     9 C    0.985
    31   1 H    1.009 --     9 C    0.980
    32   1 H    1.007 --    10 C    0.982
    33   1 H    0.999 --    10 C    0.986
    34   1 H    1.012 --    10 C    0.980
    35   1 H    0.933 --    11 N    0.893
    36   1 H    0.989 --    17 C    0.965
    37   1 H    0.990 --    17 C    0.974
    38   1 H    0.992 --    17 C    0.977
    39   1 H    0.987 --    19 C    0.954
    40   1 H    0.985 --    19 C    0.938
    41   1 H    0.986 --    19 C    0.971
    42   1 H    0.948 --    21 N    0.880
 ---------------------------------------------------------------------------

           -------------------------------------------------
          | TOTAL ENERGY              -82.979320515616 Eh   |
          | GRADIENT NORM               0.000318187154 Eh/α |
          | HOMO-LUMO GAP               0.377074464142 eV   |
           -------------------------------------------------

 * finished run on 2023/06/21 at 17:38:11.541
