   * xtb version 6.5.1 (579679a) compiled by 'ehlert@majestix' on 2022-07-11
          program call               : /lustre/hpc/kemi/ree/PhD/git/ReactivityQM/dep/xtb-6.5.1/bin/xtb --gfn 1 /lustre/hpc/kemi/ree/PhD/git/ReactivityQM/calculations/R03/reac01prodN05/conf08/R03_reac01prodN05_conf08_gfn1.xyz --opt --vfukui --chrg 1 --uhf 0 --alpb DMSO

   ID    Z sym.   atoms
    1    6 C      1, 2, 4-7, 9, 10
    2    9 F      3
    3    7 N      8
    4    1 H      11-21

      * Solvation model:               ALPB
        Solvent                        DMSO
        Solvent mass                       7.8130E+01 g/mol
          :  Hamiltonian                  GFN1-xTB          :
 * total energy  :   -30.7536016 Eh     change       -0.3485212E-11 Eh
 * total energy  :   -30.7571975 Eh     change       -0.3595886E-02 Eh
 * total energy  :   -30.7587343 Eh     change       -0.1536752E-02 Eh
 * total energy  :   -30.7593724 Eh     change       -0.6381578E-03 Eh
 * total energy  :   -30.7600333 Eh     change       -0.6608412E-03 Eh
 * total energy  :   -30.7605044 Eh     change       -0.4710705E-03 Eh
 * total energy  :   -30.7608958 Eh     change       -0.3914851E-03 Eh
 * total energy  :   -30.7611970 Eh     change       -0.3011840E-03 Eh
 * total energy  :   -30.7614407 Eh     change       -0.2436442E-03 Eh
 * total energy  :   -30.7616678 Eh     change       -0.2271355E-03 Eh
 * total energy  :   -30.7618505 Eh     change       -0.1826888E-03 Eh
 * total energy  :   -30.7619911 Eh     change       -0.1405723E-03 Eh
 * total energy  :   -30.7620919 Eh     change       -0.1008057E-03 Eh
 * total energy  :   -30.7621420 Eh     change       -0.5012570E-04 Eh
 * total energy  :   -30.7621750 Eh     change       -0.3300417E-04 Eh
 * total energy  :   -30.7621883 Eh     change       -0.1328164E-04 Eh
 * total energy  :   -30.7622037 Eh     change       -0.1541817E-04 Eh
 * total energy  :   -30.7622079 Eh     change       -0.4197544E-05 Eh
   *** GEOMETRY OPTIMIZATION CONVERGED AFTER 18 ITERATIONS ***

 final structure:
================
21
 xtb: 6.5.1 (579679a)
C            2.64197970117174        0.29659000206512        0.80643684190795
C            1.81886484356645        0.08832712741093       -0.50406288730923
F            2.72351193288672        0.15626801422567       -1.52669220312814
C            1.21265261679831       -1.25680305642100       -0.39711139599479
C           -0.06920707247734       -1.40000915537511        0.02243581451483
C           -0.91757643113597       -0.27128497981278        0.17690589608432
C           -2.31776200219492       -0.46851094786705        0.59961733448857
N           -3.14535648396122        0.69439106903468        0.42283582434340
C           -0.43044738521977        1.02204111650351       -0.14482981291230
C            0.85013444991150        1.20659302185002       -0.55015826613149
H            1.99781926917134        0.23707003111102        1.67804346647265
H            3.11703249294892        1.27357334559528        0.75885329626504
H            3.40158242057866       -0.48060142681788        0.85039662780033
H            1.85316106075100       -2.11009721835268       -0.58641872836250
H           -0.48610181926955       -2.38820619187947        0.18015012607284
H           -2.30345460734220       -0.74178002139826        1.66357005357556
H           -2.73166499450639       -1.34738319620334        0.08012633849769
H           -4.03944263319406        0.55203388143076        0.86672499936951
H           -3.28435029272022        0.90040297809637       -0.55514287735258
H           -1.12197309452861        1.85528757536125       -0.08930199813178
H            1.23059702876552        2.18209603144340       -0.82912945007015

          :  Hamiltonian                  GFN1-xTB          :
         :: total energy             -30.762207895375 Eh    ::
         :: gradient norm              0.000745729374 Eh/a0 ::
         :: HOMO-LUMO gap              0.715673669893 eV    ::
         :: SCC energy               -31.154236135840 Eh    ::
         :: -> Gsolv                  -0.085265970567 Eh    ::
         :: repulsion energy           0.402070622547 Eh    ::

    * Orbital Energies and Occupations

         #    Occupation            Energy/Eh            Energy/eV
      -------------------------------------------------------------
         1        2.0000           -0.8943041             -24.3353
       ...           ...                  ...                  ...
        15        2.0000           -0.5978259             -16.2677
        16        2.0000           -0.5924610             -16.1217
        17        2.0000           -0.5779432             -15.7266
        18        2.0000           -0.5698014             -15.5051
        19        2.0000           -0.5646801             -15.3657
        20        2.0000           -0.5630100             -15.3203
        21        2.0000           -0.5544405             -15.0871
        22        2.0000           -0.5508647             -14.9898
        23        2.0000           -0.5319008             -14.4738
        24        2.0000           -0.5216883             -14.1959
        25        2.0000           -0.5189339             -14.1209
        26        2.0000           -0.5091086             -13.8536
        27        2.0000           -0.4459884             -12.1360 (HOMO)
        28        0.0000           -0.4196878             -11.4203 (LUMO)
        29                         -0.3250126              -8.8440
        30                         -0.2514291              -6.8417
        31                         -0.1592265              -4.3328
        32                         -0.1559032              -4.2423
        33                         -0.1423274              -3.8729
        34                         -0.1359689              -3.6999
        35                         -0.1277032              -3.4750
        36                         -0.1183509              -3.2205
        37                         -0.1095631              -2.9814
        38                         -0.0981298              -2.6702
       ...                                ...                  ...
        62                          0.5467679              14.8783
      -------------------------------------------------------------
                  HL-Gap            0.0263005 Eh            0.7157 eV

Wiberg/Mayer (AO) data.
largest (>0.10) Wiberg bond orders for each atom

     #   Z sym  total        # sym  WBO       # sym  WBO       # sym  WBO
 ---------------------------------------------------------------------------
     1   6 C    3.948 --    11 H    0.982    12 H    0.975    13 H    0.974
                             2 C    0.859
     2   6 C    3.887 --     4 C    1.038    10 C    1.035     3 F    0.899
                             1 C    0.859
     3   9 F    1.008 --     2 C    0.899
     4   6 C    3.956 --     5 C    1.659     2 C    1.038    14 H    0.961
     5   6 C    3.987 --     4 C    1.659     6 C    1.264    15 H    0.961
     6   6 C    3.926 --     9 C    1.265     5 C    1.264     7 C    1.080
     7   6 C    3.981 --     6 C    1.080     8 N    1.023    17 H    0.905
                            16 H    0.901
     8   7 N    3.040 --     7 C    1.023    19 H    0.923    18 H    0.920
     9   6 C    3.985 --    10 C    1.657     6 C    1.265    20 H    0.956
    10   6 C    3.954 --     9 C    1.657     2 C    1.035    21 H    0.961
    11   1 H    0.995 --     1 C    0.982
    12   1 H    0.993 --     1 C    0.975
    13   1 H    0.993 --     1 C    0.974
    14   1 H    0.988 --     4 C    0.961
    15   1 H    0.989 --     5 C    0.961
    16   1 H    0.991 --     7 C    0.901
    17   1 H    0.983 --     7 C    0.905
    18   1 H    0.936 --     8 N    0.920
    19   1 H    0.941 --     8 N    0.923
    20   1 H    1.002 --     9 C    0.956
    21   1 H    0.989 --    10 C    0.961
 ---------------------------------------------------------------------------

           -------------------------------------------------
          | TOTAL ENERGY              -30.762207895375 Eh   |
          | GRADIENT NORM               0.000745729374 Eh/α |
          | HOMO-LUMO GAP               0.715673669893 eV   |
           -------------------------------------------------

 * finished run on 2023/06/20 at 15:14:34.934
