   * xtb version 6.5.1 (579679a) compiled by 'ehlert@majestix' on 2022-07-11
          program call               : /lustre/hpc/kemi/ree/PhD/git/ReactivityQM/dep/xtb-6.5.1/bin/xtb --gfn 1 /lustre/hpc/kemi/ree/PhD/git/ReactivityQM/calculations/RaltegravirCLI/reac02prodN11/conf05/RaltegravirCLI_reac02prodN11_conf05_gfn1.xyz --opt --vfukui --chrg 1 --uhf 0 --alpb DMSO

   ID    Z sym.   atoms
    1    6 C      1, 3-6, 9, 10, 13-18, 20-22, 24
    2    7 N      2, 7, 8, 12
    3    8 O      11, 23, 25
    4    9 F      19
    5    1 H      26-47

      * Solvation model:               ALPB
        Solvent                        DMSO
        Solvent mass                       7.8130E+01 g/mol
          :  Hamiltonian                  GFN1-xTB          :
 * total energy  :   -79.4598112 Eh     change       -0.5456968E-11 Eh
 * total energy  :   -79.4673039 Eh     change       -0.7492643E-02 Eh
 * total energy  :   -79.4697627 Eh     change       -0.2458811E-02 Eh
 * total energy  :   -79.4704755 Eh     change       -0.7127807E-03 Eh
 * total energy  :   -79.4711304 Eh     change       -0.6549199E-03 Eh
 * total energy  :   -79.4715164 Eh     change       -0.3859978E-03 Eh
 * total energy  :   -79.4718408 Eh     change       -0.3243805E-03 Eh
 * total energy  :   -79.4720771 Eh     change       -0.2363235E-03 Eh
 * total energy  :   -79.4722643 Eh     change       -0.1872038E-03 Eh
 * total energy  :   -79.4724419 Eh     change       -0.1775643E-03 Eh
 * total energy  :   -79.4727394 Eh     change       -0.1460385E-04 Eh
 * total energy  :   -79.4727737 Eh     change       -0.3435591E-04 Eh
 * total energy  :   -79.4727937 Eh     change       -0.1998870E-04 Eh
 * total energy  :   -79.4728068 Eh     change       -0.1308985E-04 Eh
 * total energy  :   -79.4728237 Eh     change       -0.1693122E-04 Eh
 * total energy  :   -79.4728297 Eh     change       -0.5963964E-05 Eh
 * total energy  :   -79.4728385 Eh     change       -0.8780483E-05 Eh
 * total energy  :   -79.4728444 Eh     change       -0.5938107E-05 Eh
 * total energy  :   -79.4728492 Eh     change       -0.4735142E-05 Eh
   *** GEOMETRY OPTIMIZATION CONVERGED AFTER 25 ITERATIONS ***

 final structure:
================
47
 xtb: 6.5.1 (579679a)
C           -4.67895862922587       -0.93075367372357       -1.24979058161972
N           -3.33096917319080       -0.86349099287267       -0.67795464502450
C           -2.91139713395429        0.13741779602824        0.16045928716854
C           -3.82415166339327        1.28013528329282        0.58736383957058
C           -4.67821033609950        0.81424919364194        1.77511453448262
C           -2.95845572526413        2.47883225962000        1.01743307250260
N           -4.68730933298595        1.69011588174685       -0.50588242521175
N           -1.72478088294007        0.14085197097007        0.68130457217336
C           -0.80926249894123       -0.83162894492626        0.40178282885246
C            0.48783442350002       -0.66582415179068        1.12235525729917
O            0.66058083742829        0.20009777363472        1.96790722463114
N            1.46538931230006       -1.55082057972426        0.80202018225467
C            2.75222523860425       -1.48864494872031        1.47651705091865
C            3.69850492548016       -0.66133702201821        0.66511152892041
C            4.90236963477032       -1.22254731773588        0.17698594606923
C            5.78657204190182       -0.47279299751202       -0.53396717959739
C            5.42123598418593        0.88953254331600       -0.97829705124087
C            4.97453519799166        0.75186354583669       -2.46878581595306
F            6.50594749093258        1.72372196652981       -0.99299389337233
C            4.27788598655068        1.49207146400524       -0.25920946225687
C            3.41801810183507        0.70920904391690        0.44393020521174
C           -1.14537698723032       -1.83061967197225       -0.46584486782873
O           -0.32157023888532       -2.82890060430152       -0.83061798210230
C           -2.47141652441699       -1.87636655495865       -1.05943334614277
O           -2.79439652652449       -2.77269890980432       -1.83318083958614
H           -4.74964781485296       -0.25273909479691       -2.09866430822791
H           -4.85302745732310       -1.95396716303648       -1.58223372550882
H           -5.41593260152281       -0.65590992025946       -0.50209007186346
H           -5.32356181452140       -0.01518169863218        1.49134966634128
H           -4.02928978091972        0.49258179029197        2.58886822246120
H           -5.30000765982423        1.63785751238814        2.12268663618490
H           -2.32512419393179        2.79641662573253        0.19101605810897
H           -3.60561117443799        3.30423222950089        1.30773878378486
H           -2.32586449948286        2.20264196300002        1.85987327737929
H           -5.43038727133622        2.28854233337805       -0.17791375177486
H           -4.16388676912672        2.16625371549462       -1.22576030820875
H            1.38468179183990       -2.17771516523778        0.01832110749492
H            2.58916885905507       -1.01061829484754        2.45096329106944
H            3.12952804979809       -2.50200414394042        1.61915289085791
H            5.14021279772233       -2.24906292082187        0.43090657208349
H            6.73923790961298       -0.86863106915359       -0.86473369515979
H            5.80804356405811        0.34222854478477       -3.03446423915033
H            4.11073546851943        0.09943367868954       -2.55082062683422
H            4.72983744867242        1.74448859221711       -2.83939085963004
H            4.11913593872800        2.55709015744066       -0.37970332601587
H            2.54023943922690        1.14100447103053        0.91296625445679
H           -0.78332575237482       -3.39861649570151       -1.47776028796964

          :  Hamiltonian                  GFN1-xTB          :
         :: total energy             -79.472849157798 Eh    ::
         :: gradient norm              0.000630417118 Eh/a0 ::
         :: HOMO-LUMO gap              0.134945605286 eV    ::
         :: SCC energy               -80.352924566678 Eh    ::
         :: -> Gsolv                  -0.103001026931 Eh    ::
         :: repulsion energy           0.909914460988 Eh    ::

    * Orbital Energies and Occupations

         #    Occupation            Energy/Eh            Energy/eV
      -------------------------------------------------------------
         1        2.0000           -0.8937307             -24.3197
       ...           ...                  ...                  ...
        55        2.0000           -0.5185732             -14.1111
        56        2.0000           -0.5171947             -14.0736
        57        2.0000           -0.5129291             -13.9575
        58        2.0000           -0.5078652             -13.8197
        59        2.0000           -0.5044502             -13.7268
        60        2.0000           -0.4964890             -13.5102
        61        2.0000           -0.4834261             -13.1547
        62        2.0000           -0.4773831             -12.9903
        63        2.0000           -0.4654142             -12.6646
        64        2.0000           -0.4616129             -12.5611
        65        2.0000           -0.4496506             -12.2356
        66        1.9997           -0.4332394             -11.7890
        67        1.8631           -0.4271933             -11.6245 (HOMO)
        68        0.1371           -0.4222342             -11.4896 (LUMO)
        69                         -0.3262748              -8.8784
        70                         -0.3246081              -8.8330
        71                         -0.2863592              -7.7922
        72                         -0.2525587              -6.8725
        73                         -0.2433236              -6.6212
        74                         -0.1618461              -4.4041
        75                         -0.1571414              -4.2760
        76                         -0.1512059              -4.1145
        77                         -0.1408714              -3.8333
        78                         -0.1382184              -3.7611
       ...                                ...                  ...
       144                          0.7041550              19.1610
      -------------------------------------------------------------
                  HL-Gap            0.0049592 Eh            0.1349 eV

Wiberg/Mayer (AO) data.
largest (>0.10) Wiberg bond orders for each atom

     #   Z sym  total        # sym  WBO       # sym  WBO       # sym  WBO
 ---------------------------------------------------------------------------
     1   6 C    3.914 --    28 H    0.978    27 H    0.974    26 H    0.974
                             2 N    0.924
     2   7 N    3.516 --     3 C    1.176    24 C    1.136     1 C    0.924
                            25 O    0.134
     3   6 C    3.916 --     8 N    1.560     2 N    1.176     4 C    0.974
     4   6 C    3.950 --     7 N    0.985     5 C    0.980     6 C    0.975
                             3 C    0.974
     5   6 C    3.990 --    30 H    0.985    31 H    0.982     4 C    0.980
                            29 H    0.980
     6   6 C    3.969 --    33 H    0.985    32 H    0.985    34 H    0.979
                             4 C    0.975
     7   7 N    2.932 --     4 C    0.985    36 H    0.929    35 H    0.925
     8   7 N    3.024 --     3 C    1.560     9 C    1.198
     9   6 C    3.958 --    22 C    1.496     8 N    1.198    10 C    0.999
    10   6 C    3.897 --    11 O    1.587    12 N    1.223     9 C    0.999
    11   8 O    1.901 --    10 C    1.587    12 N    0.155
    12   7 N    3.318 --    10 C    1.223    13 C    0.942    37 H    0.876
                            11 O    0.155
    13   6 C    3.949 --    14 C    1.028    39 H    0.971    12 N    0.942
                            38 H    0.933
    14   6 C    3.846 --    15 C    1.289    21 C    1.285    13 C    1.028
    15   6 C    3.987 --    16 C    1.631    14 C    1.289    40 H    0.960
    16   6 C    3.878 --    15 C    1.631    17 C    1.039    41 H    0.961
    17   6 C    3.882 --    16 C    1.039    20 C    1.038    19 F    0.897
                            18 C    0.857
    18   6 C    3.934 --    43 H    0.982    42 H    0.975    44 H    0.974
                            17 C    0.857
    19   9 F    1.005 --    17 C    0.897
    20   6 C    3.889 --    21 C    1.634    17 C    1.038    45 H    0.962
    21   6 C    3.983 --    20 C    1.634    14 C    1.285    46 H    0.954
    22   6 C    3.908 --     9 C    1.496    23 O    1.083    24 C    1.081
    23   8 O    2.073 --    22 C    1.083    47 H    0.793
    24   6 C    3.915 --    25 O    1.550     2 N    1.136    22 C    1.081
    25   8 O    1.894 --    24 C    1.550     2 N    0.134
    26   1 H    1.011 --     1 C    0.974
    27   1 H    1.005 --     1 C    0.974
    28   1 H    1.016 --     1 C    0.978
    29   1 H    1.002 --     5 C    0.980
    30   1 H    1.002 --     5 C    0.985
    31   1 H    0.998 --     5 C    0.982
    32   1 H    1.005 --     6 C    0.985
    33   1 H    1.001 --     6 C    0.985
    34   1 H    1.011 --     6 C    0.979
    35   1 H    0.941 --     7 N    0.925
    36   1 H    0.946 --     7 N    0.929
    37   1 H    0.934 --    12 N    0.876
    38   1 H    0.995 --    13 C    0.933
    39   1 H    0.996 --    13 C    0.971
    40   1 H    0.990 --    15 C    0.960
    41   1 H    0.989 --    16 C    0.961
    42   1 H    0.993 --    18 C    0.975
    43   1 H    0.995 --    18 C    0.982
    44   1 H    0.993 --    18 C    0.974
    45   1 H    0.990 --    20 C    0.962
    46   1 H    1.002 --    21 C    0.954
    47   1 H    0.837 --    23 O    0.793
 ---------------------------------------------------------------------------

           -------------------------------------------------
          | TOTAL ENERGY              -79.472849157798 Eh   |
          | GRADIENT NORM               0.000630417118 Eh/α |
          | HOMO-LUMO GAP               0.134945605286 eV   |
           -------------------------------------------------

 * finished run on 2023/06/20 at 15:31:51.011
