   * xtb version 6.5.1 (579679a) compiled by 'ehlert@majestix' on 2022-07-11
          program call               : /lustre/hpc/kemi/ree/PhD/git/ReactivityQM/dep/xtb-6.5.1/bin/xtb --gfn 1 /lustre/hpc/kemi/ree/PhD/git/ReactivityQM/calculations/R01/reac02prodE06/conf03/R01_reac02prodE06_conf03_gfn1.xyz --opt --vfukui --chrg -1 --uhf 0 --alpb DMSO

   ID    Z sym.   atoms
    1    6 C      1, 3, 5, 6, 8, 9, 12-15
    2    8 O      2, 4, 7, 10
    3    7 N      11, 16, 17
    4    1 H      18-33

      * Solvation model:               ALPB
        Solvent                        DMSO
        Solvent mass                       7.8130E+01 g/mol
          :  Hamiltonian                  GFN1-xTB          :
 * total energy  :   -58.5322670 Eh     change       -0.9229950E-11 Eh
 * total energy  :   -58.5397995 Eh     change       -0.7532494E-02 Eh
 * total energy  :   -58.5425322 Eh     change       -0.2732693E-02 Eh
 * total energy  :   -58.5429693 Eh     change       -0.4371375E-03 Eh
 * total energy  :   -58.5431893 Eh     change       -0.2199777E-03 Eh
 * total energy  :   -58.5432729 Eh     change       -0.8356392E-04 Eh
 * total energy  :   -58.5433579 Eh     change       -0.8501320E-04 Eh
 * total energy  :   -58.5434169 Eh     change       -0.5896127E-04 Eh
 * total energy  :   -58.5434692 Eh     change       -0.5233105E-04 Eh
 * total energy  :   -58.5435241 Eh     change       -0.5488158E-04 Eh
 * total energy  :   -58.5447882 Eh     change       -0.2609584E-04 Eh
 * total energy  :   -58.5448069 Eh     change       -0.1874226E-04 Eh
 * total energy  :   -58.5448298 Eh     change       -0.2283218E-04 Eh
 * total energy  :   -58.5448493 Eh     change       -0.1955382E-04 Eh
 * total energy  :   -58.5448649 Eh     change       -0.1559617E-04 Eh
 * total energy  :   -58.5448716 Eh     change       -0.6734306E-05 Eh
 * total energy  :   -58.5448790 Eh     change       -0.7335769E-05 Eh
 * total energy  :   -58.5448910 Eh     change       -0.1199648E-04 Eh
 * total energy  :   -58.5448940 Eh     change       -0.2998734E-05 Eh
   *** GEOMETRY OPTIMIZATION CONVERGED AFTER 48 ITERATIONS ***

 final structure:
================
33
 xtb: 6.5.1 (579679a)
C            3.45372833502951        2.75270789069226       -1.25064563461048
O            2.34393134654332        1.99818661561422       -0.77809984565471
C            2.58686917255960        0.69813550647114       -0.50139599980383
O            3.71279676244048        0.22306880184797       -0.65931716101027
C            1.43609192454450       -0.04583922906275       -0.02245656147990
C            1.53797884674749       -1.36905510409676        0.30242581082140
O            2.68612468999687       -2.05754707626760        0.20016738845264
C            0.36415172808234       -2.16129538850026        0.95384140039181
C            0.23653768332202       -3.53010805212571        0.20570631780211
O            0.43752096611222       -2.23214871719847        2.24219844149975
N           -0.88693668250085       -1.36694716949009        0.47662494424010
C           -0.84204829068780       -0.02083428367244        0.35684539612444
C           -2.17296014932142        0.72968610513960        0.40416264921019
C           -1.92043512700062        2.21742091383442        0.67805680975328
C           -2.87650463641695        0.55267161538967       -0.94840546537642
N           -3.05817910420415        0.21467202873037        1.44867755442686
N            0.22166611050975        0.65974566221445        0.08560674727276
H            4.26138099093775        2.75337818432066       -0.51253106452888
H            3.83145581535527        2.33438221360740       -2.18818734016610
H            3.10078756398136        3.76978008832058       -1.41469075966423
H            3.40426882903488       -1.47387691297841       -0.13921100957611
H            1.13521028352163       -4.11705118512668        0.38925811060371
H            0.10959582683577       -3.37849679599188       -0.86499865561208
H           -0.62381648006016       -4.06568027784689        0.60188063108984
H           -1.73372088998213       -1.73934083011268        0.88041955636779
H           -2.86881990057569        2.75294026747439        0.71172394450750
H           -1.41170345445342        2.34126793175677        1.63444462488947
H           -1.29409018669460        2.64291350973288       -0.10614197207272
H           -3.84955694073198        1.04346372695778       -0.93266301482889
H           -2.27328139026222        0.98714555462698       -1.74585412061439
H           -3.02239802735415       -0.50697353734710       -1.15843619916955
H           -2.54110626588241        0.04728194197778        2.30376143027238
H           -3.48453634942631       -0.65365399889298        1.15901504644314

          :  Hamiltonian                  GFN1-xTB          :
         :: total energy             -58.544893979014 Eh    ::
         :: gradient norm              0.000405683961 Eh/a0 ::
         :: HOMO-LUMO gap              2.231116116474 eV    ::
         :: SCC energy               -59.082136105367 Eh    ::
         :: -> Gsolv                  -0.106441682814 Eh    ::
         :: repulsion energy           0.555915828556 Eh    ::

    * Orbital Energies and Occupations

         #    Occupation            Energy/Eh            Energy/eV
      -------------------------------------------------------------
         1        2.0000           -0.8071399             -21.9634
       ...           ...                  ...                  ...
        36        2.0000           -0.4733853             -12.8815
        37        2.0000           -0.4723675             -12.8538
        38        2.0000           -0.4688534             -12.7582
        39        2.0000           -0.4632566             -12.6059
        40        2.0000           -0.4521975             -12.3049
        41        2.0000           -0.4495777             -12.2336
        42        2.0000           -0.4373344             -11.9005
        43        2.0000           -0.4143138             -11.2741
        44        2.0000           -0.3957144             -10.7679
        45        2.0000           -0.3814064             -10.3786
        46        2.0000           -0.3600378              -9.7971
        47        2.0000           -0.3468807              -9.4391
        48        2.0000           -0.3436139              -9.3502 (HOMO)
        49                         -0.2616219              -7.1191 (LUMO)
        50                         -0.2132700              -5.8034
        51                         -0.1305962              -3.5537
        52                         -0.1253428              -3.4108
        53                         -0.1091336              -2.9697
        54                         -0.1062157              -2.8903
        55                         -0.0888526              -2.4178
        56                         -0.0861904              -2.3454
        57                         -0.0628102              -1.7092
        58                         -0.0617976              -1.6816
        59                         -0.0599649              -1.6317
       ...                                ...                  ...
       100                          0.6988853              19.0176
      -------------------------------------------------------------
                  HL-Gap            0.0819920 Eh            2.2311 eV

Wiberg/Mayer (AO) data.
largest (>0.10) Wiberg bond orders for each atom

     #   Z sym  total        # sym  WBO       # sym  WBO       # sym  WBO
 ---------------------------------------------------------------------------
     1   6 C    3.893 --    20 H    0.987    19 H    0.980    18 H    0.980
                             2 O    0.918
     2   8 O    2.169 --     3 C    1.066     1 C    0.918     4 O    0.106
     3   6 C    3.839 --     4 O    1.542     5 C    1.107     2 O    1.066
     4   8 O    1.897 --     3 C    1.542     2 O    0.106
     5   6 C    3.946 --     6 C    1.536     3 C    1.107    17 N    1.070
     6   6 C    3.862 --     5 C    1.536     7 O    1.107     8 C    0.900
     7   8 O    2.079 --     6 C    1.107    21 H    0.790
     8   6 C    3.924 --    10 O    1.241     9 C    0.937     6 C    0.900
                            11 N    0.779
     9   6 C    3.992 --    23 H    0.992    24 H    0.987    22 H    0.986
                             8 C    0.937
    10   8 O    1.542 --     8 C    1.241
    11   7 N    3.267 --    12 C    1.233    25 H    0.920     8 C    0.779
                            17 N    0.158
    12   6 C    3.947 --    17 N    1.590    11 N    1.233    13 C    0.960
    13   6 C    3.965 --    14 C    0.997    15 C    0.988    16 N    0.980
                            12 C    0.960
    14   6 C    3.997 --    13 C    0.997    26 H    0.988    27 H    0.986
                            28 H    0.985
    15   6 C    3.996 --    13 C    0.988    30 H    0.987    29 H    0.986
                            31 H    0.985
    16   7 N    2.954 --    13 C    0.980    32 H    0.946    33 H    0.946
    17   7 N    2.967 --    12 C    1.590     5 C    1.070    11 N    0.158
    18   1 H    1.013 --     1 C    0.980
    19   1 H    1.012 --     1 C    0.980
    20   1 H    1.015 --     1 C    0.987
    21   1 H    0.876 --     7 O    0.790
    22   1 H    1.016 --     9 C    0.986
    23   1 H    1.015 --     9 C    0.992
    24   1 H    1.013 --     9 C    0.987
    25   1 H    0.968 --    11 N    0.920
    26   1 H    1.011 --    14 C    0.988
    27   1 H    1.011 --    14 C    0.986
    28   1 H    1.022 --    14 C    0.985
    29   1 H    1.005 --    15 C    0.986
    30   1 H    1.007 --    15 C    0.987
    31   1 H    1.007 --    15 C    0.985
    32   1 H    0.963 --    16 N    0.946
    33   1 H    0.963 --    16 N    0.946
 ---------------------------------------------------------------------------

           -------------------------------------------------
          | TOTAL ENERGY              -58.544893979014 Eh   |
          | GRADIENT NORM               0.000405683961 Eh/α |
          | HOMO-LUMO GAP               2.231116116474 eV   |
           -------------------------------------------------

 * finished run on 2023/06/20 at 15:00:32.460
