   * xtb version 6.5.1 (579679a) compiled by 'ehlert@majestix' on 2022-07-11
          program call               : /lustre/hpc/kemi/ree/PhD/git/ReactivityQM/dep/xtb-6.5.1/bin/xtb --gfn 1 /lustre/hpc/kemi/ree/PhD/git/ReactivityQM/calculations/R02/reac01prodE10/conf14/R02_reac01prodE10_conf14_gfn1.xyz --opt --vfukui --chrg -1 --uhf 0 --alpb DMSO

   ID    Z sym.   atoms
    1    6 C      1, 3, 5, 7-10, 12, 14, 17-19, 22, 24
    2    8 O      2, 4, 13, 20, 23, 25
    3    7 N      6, 11, 15, 16, 21
    4    1 H      26-43

      * Solvation model:               ALPB
        Solvent                        DMSO
        Solvent mass                       7.8130E+01 g/mol
          :  Hamiltonian                  GFN1-xTB          :
 * total energy  :   -83.8023844 Eh     change       -0.1053394E-08 Eh
 * total energy  :   -83.8171082 Eh     change       -0.1472371E-01 Eh
 * total energy  :   -83.8229551 Eh     change       -0.5846994E-02 Eh
 * total energy  :   -83.8237452 Eh     change       -0.7900552E-03 Eh
 * total energy  :   -83.8242069 Eh     change       -0.4617006E-03 Eh
 * total energy  :   -83.8243248 Eh     change       -0.1179403E-03 Eh
 * total energy  :   -83.8244399 Eh     change       -0.1150059E-03 Eh
 * total energy  :   -83.8245052 Eh     change       -0.6533221E-04 Eh
 * total energy  :   -83.8245514 Eh     change       -0.4626397E-04 Eh
 * total energy  :   -83.8245826 Eh     change       -0.3112633E-04 Eh
 * total energy  :   -83.8248720 Eh     change       -0.8605486E-05 Eh
 * total energy  :   -83.8248818 Eh     change       -0.9817434E-05 Eh
 * total energy  :   -83.8248921 Eh     change       -0.1029987E-04 Eh
 * total energy  :   -83.8249030 Eh     change       -0.1088779E-04 Eh
 * total energy  :   -83.8249139 Eh     change       -0.1087674E-04 Eh
 * total energy  :   -83.8249239 Eh     change       -0.1008661E-04 Eh
 * total energy  :   -83.8249321 Eh     change       -0.8194469E-05 Eh
 * total energy  :   -83.8249380 Eh     change       -0.5811664E-05 Eh
 * total energy  :   -83.8249420 Eh     change       -0.4071391E-05 Eh
   *** GEOMETRY OPTIMIZATION CONVERGED AFTER 38 ITERATIONS ***

 final structure:
================
43
 xtb: 6.5.1 (579679a)
C            6.90508325925600        1.28622060206282       -1.17218416845284
O            5.70425075054546        1.47140016566047       -0.43049362367205
C            4.74001958897165        0.50151739338622       -0.63096637874402
O            4.95770948566973       -0.43137650724087       -1.40466602463564
C            3.52974719504594        0.69871066178696        0.12594196638598
N            2.58085578674441       -0.29216252420327       -0.08980995277780
C            1.45451790920571       -0.24828861979883        0.52710265634834
C            0.44122695295629       -1.36630460895923        0.35158705227842
C            0.71650053115738       -2.38867082744305        1.46860910627318
C            0.61320954708677       -2.00891405636960       -1.03278231744902
N           -0.88926092558291       -0.77502116396665        0.51504512452928
C           -2.03769191711784       -1.60971650685939        0.30628420729550
O           -1.99374477499060       -2.85896738717571        0.44420820458136
C           -3.17159767618267       -0.85879353877325        0.00474483035997
N           -3.25981786741850        0.50909531178260       -0.16987157467072
N           -4.54878836323489        0.71140716848430       -0.45212531957374
C           -5.02166189496784        2.05428133686600       -0.69401818909211
C           -5.25571865585762       -0.39451627715310       -0.46486596617752
C           -6.70376475941078       -0.54677722442152       -0.73742540489715
O           -4.46131872072400       -1.44311051623453       -0.18859832471875
N            1.14346882408413        0.73802389438929        1.42208631551379
C            2.00207141147695        1.80818162996679        1.71735853683336
O            1.62840862520427        2.67179335913507        2.52652643171993
C            3.24545604992779        1.74974312669957        1.02141153219260
O            4.11403267447963        2.77435244830740        1.29382440732546
H            6.69595164365515        1.27151718334296       -2.24659668459120
H            7.56012613177030        2.12311193560921       -0.93651183864941
H            7.39072979218477        0.34588873109005       -0.89192262352829
H            1.76119702785443       -2.69719369928589        1.42760064854682
H            0.08459062148470       -3.26724442173591        1.35445834169785
H            0.51881034184697       -1.93494367680607        2.43949811458658
H            0.38766267201644       -1.28086224200802       -1.81158216780506
H           -0.05464817907953       -2.86244211814053       -1.13829918226735
H            1.64362722349123       -2.34293122710409       -1.15395469283370
H           -0.97929423024667        0.08673854944362       -0.01374358998517
H           -4.16426621241042        2.72255431220844       -0.67160911043646
H           -5.50807214050166        2.09944098621585       -1.66691754947863
H           -5.73533406897846        2.33481879701976        0.07958703086928
H           -7.28864491847008        0.09062973712053       -0.07400503595914
H           -6.98983129123417       -1.58483407759323       -0.58304276238548
H           -6.93677624607216       -0.26272510944427       -1.76467382027240
H            0.24296353479461        0.73028673391202        1.87689801340201
H            4.93801426156884        2.67608226622591        0.78970878231580

          :  Hamiltonian                  GFN1-xTB          :
         :: total energy             -83.824942022444 Eh    ::
         :: gradient norm              0.000248709289 Eh/a0 ::
         :: HOMO-LUMO gap              0.037897106630 eV    ::
         :: SCC energy               -84.580606704529 Eh    ::
         :: -> Gsolv                  -0.129001729678 Eh    ::
         :: repulsion energy           0.781239841325 Eh    ::

    * Orbital Energies and Occupations

         #    Occupation            Energy/Eh            Energy/eV
      -------------------------------------------------------------
         1        2.0000           -0.8399583             -22.8564
       ...           ...                  ...                  ...
        56        2.0000           -0.4711939             -12.8218
        57        2.0000           -0.4650850             -12.6556
        58        2.0000           -0.4645631             -12.6414
        59        2.0000           -0.4470041             -12.1636
        60        2.0000           -0.4371084             -11.8943
        61        2.0000           -0.4367307             -11.8840
        62        2.0000           -0.4203813             -11.4392
        63        2.0000           -0.4140178             -11.2660
        64        2.0000           -0.4064523             -11.0601
        65        2.0000           -0.4042349             -10.9998
        66        2.0000           -0.3891327             -10.5888
        67        2.0000           -0.3837778             -10.4431
        68        1.3509           -0.2907049              -7.9105 (HOMO)
        69        0.6491           -0.2893122              -7.8726 (LUMO)
        70                         -0.2615875              -7.1182
        71                         -0.2356184              -6.4115
        72                         -0.1946616              -5.2970
        73                         -0.1535889              -4.1794
        74                         -0.1468172              -3.9951
        75                         -0.1390514              -3.7838
        76                         -0.1203172              -3.2740
        77                         -0.1120120              -3.0480
        78                         -0.1021138              -2.7787
        79                         -0.0984992              -2.6803
       ...                                ...                  ...
       136                          0.6958222              18.9343
      -------------------------------------------------------------
                  HL-Gap            0.0013927 Eh            0.0379 eV

Wiberg/Mayer (AO) data.
largest (>0.10) Wiberg bond orders for each atom

     #   Z sym  total        # sym  WBO       # sym  WBO       # sym  WBO
 ---------------------------------------------------------------------------
     1   6 C    3.893 --    27 H    0.987    28 H    0.981    26 H    0.981
                             2 O    0.918
     2   8 O    2.113 --     3 C    0.984     1 C    0.918
     3   6 C    3.732 --     4 O    1.538     5 C    1.144     2 O    0.984
     4   8 O    1.760 --     3 C    1.538
     5   6 C    3.810 --    24 C    1.309     3 C    1.144     6 N    1.134
     6   7 N    3.000 --     7 C    1.614     5 C    1.134
     7   6 C    3.905 --     6 N    1.614    21 N    1.147     8 C    0.977
     8   6 C    3.957 --    10 C    0.988     9 C    0.979     7 C    0.977
                            11 N    0.956
     9   6 C    3.991 --    29 H    0.988    31 H    0.987     8 C    0.979
                            30 H    0.977
    10   6 C    3.993 --     8 C    0.988    32 H    0.987    34 H    0.984
                            33 H    0.983
    11   7 N    3.083 --    12 C    0.998     8 C    0.956    35 H    0.929
    12   6 C    3.803 --    13 O    1.400    14 C    1.308    11 N    0.998
    13   8 O    1.657 --    12 C    1.400
    14   6 C    3.559 --    12 C    1.308    15 N    1.186    20 O    0.884
    15   7 N    2.679 --    14 C    1.186    16 N    1.159    18 C    0.196
    16   7 N    3.639 --    18 C    1.408    15 N    1.159    17 C    0.940
    17   6 C    3.936 --    36 H    0.983    37 H    0.979    38 H    0.978
                            16 N    0.940
    18   6 C    3.792 --    16 N    1.408    20 O    1.084    19 C    1.029
                            15 N    0.196
    19   6 C    3.987 --    18 C    1.029    40 H    0.980    39 H    0.968
                            41 H    0.964
    20   8 O    2.127 --    18 C    1.084    14 C    0.884
    21   7 N    3.326 --     7 C    1.147    22 C    1.043    42 H    0.896
    22   6 C    3.831 --    23 O    1.486    24 C    1.197    21 N    1.043
    23   8 O    1.741 --    22 C    1.486
    24   6 C    3.719 --     5 C    1.309    22 C    1.197    25 O    1.032
    25   8 O    1.978 --    24 C    1.032    43 H    0.823
    26   1 H    1.013 --     1 C    0.981
    27   1 H    1.014 --     1 C    0.987
    28   1 H    1.013 --     1 C    0.981
    29   1 H    1.008 --     9 C    0.988
    30   1 H    1.025 --     9 C    0.977
    31   1 H    1.009 --     9 C    0.987
    32   1 H    1.007 --    10 C    0.987
    33   1 H    1.015 --    10 C    0.983
    34   1 H    1.018 --    10 C    0.984
    35   1 H    0.975 --    11 N    0.929
    36   1 H    1.005 --    17 C    0.983
    37   1 H    0.999 --    17 C    0.979
    38   1 H    0.999 --    17 C    0.978
    39   1 H    0.996 --    19 C    0.968
    40   1 H    0.997 --    19 C    0.980
    41   1 H    0.996 --    19 C    0.964
    42   1 H    0.957 --    21 N    0.896
    43   1 H    0.879 --    25 O    0.823
 ---------------------------------------------------------------------------

           -------------------------------------------------
          | TOTAL ENERGY              -83.824942022444 Eh   |
          | GRADIENT NORM               0.000248709289 Eh/α |
          | HOMO-LUMO GAP               0.037897106630 eV   |
           -------------------------------------------------

 * finished run on 2023/06/20 at 15:10:35.236
