   * xtb version 6.5.1 (579679a) compiled by 'ehlert@majestix' on 2022-07-11
          program call               : /lustre/hpc/kemi/ree/PhD/git/ReactivityQM/dep/xtb-6.5.1/bin/xtb --gfn 1 /lustre/hpc/kemi/ree/PhD/git/ReactivityQM/calculations/R02methylcation/reac01prodN02/conf15/R02methylcation_reac01prodN02_conf15_gfn1.xyz --opt --vfukui --chrg 0 --uhf 0 --alpb DMSO

   ID    Z sym.   atoms
    1    6 C      1, 3, 5, 7-10, 12, 14, 15, 18, 19, 22, 24
    2    8 O      2, 4, 13, 20, 23, 25
    3    7 N      6, 11, 16, 17, 21
    4    1 H      26-42

      * Solvation model:               ALPB
        Solvent                        DMSO
        Solvent mass                       7.8130E+01 g/mol
          :  Hamiltonian                  GFN1-xTB          :
 * total energy  :   -82.9416420 Eh     change       -0.3043965E-10 Eh
 * total energy  :   -82.9598890 Eh     change       -0.1824696E-01 Eh
 * total energy  :   -82.9677053 Eh     change       -0.7816308E-02 Eh
 * total energy  :   -82.9689505 Eh     change       -0.1245199E-02 Eh
 * total energy  :   -82.9697833 Eh     change       -0.8327678E-03 Eh
 * total energy  :   -82.9701006 Eh     change       -0.3173131E-03 Eh
 * total energy  :   -82.9703951 Eh     change       -0.2944621E-03 Eh
 * total energy  :   -82.9706261 Eh     change       -0.2310260E-03 Eh
 * total energy  :   -82.9707745 Eh     change       -0.1484093E-03 Eh
 * total energy  :   -82.9708960 Eh     change       -0.1214866E-03 Eh
 * total energy  :   -82.9714891 Eh     change       -0.1811383E-04 Eh
 * total energy  :   -82.9715085 Eh     change       -0.1932925E-04 Eh
 * total energy  :   -82.9715308 Eh     change       -0.2233056E-04 Eh
 * total energy  :   -82.9715433 Eh     change       -0.1246344E-04 Eh
 * total energy  :   -82.9715623 Eh     change       -0.1898378E-04 Eh
 * total energy  :   -82.9715731 Eh     change       -0.1085300E-04 Eh
 * total energy  :   -82.9715840 Eh     change       -0.1091813E-04 Eh
 * total energy  :   -82.9715891 Eh     change       -0.5051942E-05 Eh
 * total energy  :   -82.9715928 Eh     change       -0.3676672E-05 Eh
   *** GEOMETRY OPTIMIZATION CONVERGED AFTER 39 ITERATIONS ***

 final structure:
================
42
 xtb: 6.5.1 (579679a)
C            6.67314702512391        1.09547336975997       -1.23930679553425
O            5.47390521832796        1.39927254273725       -0.53738084174969
C            4.49388259935504        0.47094623933055       -0.61228562375768
O            4.65087521600912       -0.56067524708111       -1.25229689765077
C            3.27748773537939        0.80975495593672        0.11968816253411
N            2.30575787445578       -0.16350443955536        0.01300181176299
C            1.17568799625383       -0.02666450438347        0.59626433958004
C            0.13227830285045       -1.11862895449700        0.50632574084101
C            0.54117515147819       -2.13976891478094       -0.55613531540693
C           -0.05582367421550       -1.76902022018444        1.88272208057987
N           -1.13923350436685       -0.46668469769826        0.09707322288744
C           -2.30076253318384       -1.05141021278110       -0.04957550252794
O           -2.40134354854673       -2.33537493483851        0.14284374279064
C           -3.64006424342445       -3.04792453105251        0.00908412647128
C           -3.42095977343552       -0.22151535331395       -0.42190588480701
N           -4.66618294699646       -0.54545814312297       -0.64740988629690
N           -5.31738401084363        0.59124280534958       -0.95751140781647
C           -4.44307822478686        1.55974129740562       -0.90817948012552
C           -4.66881955976892        2.99522673960869       -1.16118960325052
O           -3.22799730765700        1.10604463699936       -0.57660420115345
N            0.87270638630863        1.07992820566071        1.36667068151702
C            1.74370224143463        2.12971434314380        1.55764279158690
O            1.40465647434653        3.07914454503930        2.25270505031942
C            3.08750162276681        2.00226795634708        0.86987923750135
O            3.90981302370041        2.92128408353975        1.00734898712209
H            7.34752507809442        1.93936091353635       -1.09833155753247
H            7.13080193767661        0.18364126948239       -0.84336033073536
H            6.47056093913814        0.95495212131702       -2.30543004023446
H           -0.16952999419851       -2.96028953529818       -0.59958288148973
H            0.59679577060414       -1.65746704557142       -1.53065597794151
H            1.52608105718438       -2.53003164794513       -0.30139076335849
H           -0.72014071631850       -2.62715590019333        1.82267961904203
H           -0.47215960668915       -1.04788029657466        2.58304672570825
H            0.91497617493216       -2.10115647638601        2.24902110225427
H           -1.11628802679868        0.52956876160741       -0.08451841789638
H           -3.40679813389521       -4.08386563285034        0.24749142897739
H           -4.01259566381624       -2.96137958960862       -1.01277024187900
H           -4.37847994131477       -2.64793937397466        0.70535132964535
H           -5.71085603310197        3.16275417475983       -1.42334155420939
H           -4.41581845613835        3.56946594820778       -0.26903563738500
H           -4.02323722675164        3.33480010276603       -1.97190507827946
H           -0.02176769917008        1.14921063915377        1.81781073989706

          :  Hamiltonian                  GFN1-xTB          :
         :: total energy             -82.971592755170 Eh    ::
         :: gradient norm              0.000572642104 Eh/a0 ::
         :: HOMO-LUMO gap              0.213735810376 eV    ::
         :: SCC energy               -83.747664354416 Eh    ::
         :: -> Gsolv                  -0.103975842996 Eh    ::
         :: repulsion energy           0.801431037282 Eh    ::

    * Orbital Energies and Occupations

         #    Occupation            Energy/Eh            Energy/eV
      -------------------------------------------------------------
         1        2.0000           -0.8979458             -24.4343
       ...           ...                  ...                  ...
        55        2.0000           -0.5076333             -13.8134
        56        2.0000           -0.5028802             -13.6841
        57        2.0000           -0.4982935             -13.5593
        58        2.0000           -0.4919614             -13.3869
        59        2.0000           -0.4835794             -13.1589
        60        2.0000           -0.4797909             -13.0558
        61        2.0000           -0.4699488             -12.7880
        62        2.0000           -0.4670678             -12.7096
        63        2.0000           -0.4520535             -12.3010
        64        2.0000           -0.4437672             -12.0755
        65        2.0000           -0.4299738             -11.7002
        66        2.0000           -0.3889394             -10.5836
        67        1.9685           -0.3768332             -10.2542 (HOMO)
        68        0.0315           -0.3689786             -10.0404 (LUMO)
        69                         -0.2843643              -7.7379
        70                         -0.2789727              -7.5912
        71                         -0.2545744              -6.9273
        72                         -0.2494069              -6.7867
        73                         -0.2056204              -5.5952
        74                         -0.1586223              -4.3163
        75                         -0.1521887              -4.1413
        76                         -0.1359577              -3.6996
        77                         -0.1340282              -3.6471
        78                         -0.1238497              -3.3701
       ...                                ...                  ...
       134                          0.7546217              20.5343
      -------------------------------------------------------------
                  HL-Gap            0.0078546 Eh            0.2137 eV

Wiberg/Mayer (AO) data.
largest (>0.10) Wiberg bond orders for each atom

     #   Z sym  total        # sym  WBO       # sym  WBO       # sym  WBO
 ---------------------------------------------------------------------------
     1   6 C    3.894 --    26 H    0.987    27 H    0.980    28 H    0.980
                             2 O    0.920
     2   8 O    2.168 --     3 C    1.060     1 C    0.920     4 O    0.113
     3   6 C    3.850 --     4 O    1.584     5 C    1.099     2 O    1.060
     4   8 O    1.855 --     3 C    1.584     2 O    0.113
     5   6 C    3.895 --    24 C    1.260     6 N    1.166     3 C    1.099
                            25 O    0.124
     6   7 N    3.035 --     7 C    1.628     5 C    1.166
     7   6 C    3.924 --     6 N    1.628    21 N    1.089     8 C    0.978
     8   6 C    3.893 --     9 C    0.989    10 C    0.979     7 C    0.978
                            11 N    0.874
     9   6 C    3.983 --     8 C    0.989    29 H    0.984    30 H    0.984
                            31 H    0.979
    10   6 C    3.982 --    33 H    0.983    34 H    0.982    32 H    0.981
                             8 C    0.979
    11   7 N    3.471 --    12 C    1.454    35 H    0.874     8 C    0.874
                            13 O    0.108
    12   6 C    3.880 --    11 N    1.454    13 O    1.188    15 C    1.090
    13   8 O    2.270 --    12 C    1.188    14 C    0.864    11 N    0.108
    14   6 C    3.831 --    36 H    0.980    37 H    0.974    38 H    0.974
                            13 O    0.864
    15   6 C    3.881 --    16 N    1.543    12 C    1.090    20 O    1.046
    16   7 N    3.014 --    15 C    1.543    17 N    1.248
    17   7 N    2.986 --    18 C    1.553    16 N    1.248
    18   6 C    3.847 --    17 N    1.553    20 O    1.086    19 C    1.039
    19   6 C    3.979 --    18 C    1.039    39 H    0.980    41 H    0.956
                            40 H    0.954
    20   8 O    2.328 --    18 C    1.086    15 C    1.046
    21   7 N    3.412 --    22 C    1.143     7 C    1.089    42 H    0.896
                            23 O    0.133
    22   6 C    3.871 --    23 O    1.599    21 N    1.143    24 C    0.962
    23   8 O    1.875 --    22 C    1.599    21 N    0.133
    24   6 C    3.937 --    25 O    1.537     5 C    1.260    22 C    0.962
    25   8 O    1.833 --    24 C    1.537     5 C    0.124
    26   1 H    1.015 --     1 C    0.987
    27   1 H    1.013 --     1 C    0.980
    28   1 H    1.013 --     1 C    0.980
    29   1 H    1.004 --     9 C    0.984
    30   1 H    1.005 --     9 C    0.984
    31   1 H    1.011 --     9 C    0.979
    32   1 H    1.003 --    10 C    0.981
    33   1 H    0.999 --    10 C    0.983
    34   1 H    1.000 --    10 C    0.982
    35   1 H    0.925 --    11 N    0.874
    36   1 H    1.003 --    14 C    0.980
    37   1 H    1.009 --    14 C    0.974
    38   1 H    1.008 --    14 C    0.974
    39   1 H    0.995 --    19 C    0.980
    40   1 H    0.992 --    19 C    0.954
    41   1 H    0.992 --    19 C    0.956
    42   1 H    0.940 --    21 N    0.896
 ---------------------------------------------------------------------------

           -------------------------------------------------
          | TOTAL ENERGY              -82.971592755170 Eh   |
          | GRADIENT NORM               0.000572642104 Eh/α |
          | HOMO-LUMO GAP               0.213735810376 eV   |
           -------------------------------------------------

 * finished run on 2023/06/21 at 17:31:20.770
