                         Program Version 5.0.1 -  RELEASE  -
|  1> # ORCA input file
|  2> ! SP r2SCAN-3c CPCM
|  3>
|  4> %maxcore 1875.0
|  5> %pal nprocs 4 end
|  6> %cpcm smd true SMDsolvent "DMSO" end
|  7>
|  8> *xyz 0 1
|  9> C       6.062422   -0.878192   -2.214269
| 10> C       4.766275   -0.170206   -2.134425
| 11> N       4.312017    0.750541   -2.925495
| 12> N       3.077041    1.094429   -2.459271
| 13> C       2.854834    0.362859   -1.411776
| 14> C       1.643438    0.352752   -0.548140
| 15> O       0.693606    1.092003   -0.771854
| 16> N       1.725702   -0.542340    0.448072
| 17> C       0.669269   -0.734981    1.453657
| 18> C       0.540787    0.529115    2.305506
| 19> C       1.073077   -1.934296    2.312870
| 20> C      -0.630017   -1.055803    0.720445
| 21> N      -1.577440   -0.147475    0.755352
| 22> C      -2.735640   -0.412858    0.068758
| 23> C      -3.745831    0.584432    0.014235
| 24> O      -4.852951    0.633217   -0.403226
| 25> O      -3.257422    1.906199    0.701312
| 26> C      -4.367909    2.768277    1.036582
| 27> C      -2.187286    2.587473   -0.008642
| 28> C      -2.886199   -1.627840   -0.576518
| 29> O      -3.961679   -1.987958   -1.266893
| 30> C      -1.783132   -2.609102   -0.547400
| 31> O      -1.955134   -3.684930   -1.138470
| 32> N      -0.666503   -2.243738    0.114148
| 33> O       3.893244   -0.462735   -1.155992
| 34> H       6.587393   -0.800440   -1.263047
| 35> H       5.896027   -1.935761   -2.420867
| 36> H       6.669012   -0.445444   -3.006015
| 37> H       2.582299   -1.056737    0.567404
| 38> H      -0.244964    0.389570    3.046057
| 39> H       1.481594    0.733060    2.813765
| 40> H       0.281110    1.381640    1.680835
| 41> H       1.136422   -2.827495    1.691683
| 42> H       0.324571   -2.097114    3.086820
| 43> H       2.036320   -1.754985    2.786716
| 44> H      -5.071433    2.172713    1.614075
| 45> H      -4.836756    3.147341    0.127702
| 46> H      -3.968833    3.581343    1.637399
| 47> H      -2.554285    2.955473   -0.967027
| 48> H      -1.865295    3.410686    0.625037
| 49> H      -1.377913    1.868802   -0.136104
| 50> H      -3.779840   -2.891494   -1.614563
| 51> **                         ****END OF INPUT****

CARTESIAN COORDINATES (ANGSTROEM)
---------------------------------
  C      6.062422   -0.878192   -2.214269
  C      4.766275   -0.170206   -2.134425
  N      4.312017    0.750541   -2.925495
  N      3.077041    1.094429   -2.459271
  C      2.854834    0.362859   -1.411776
  C      1.643438    0.352752   -0.548140
  O      0.693606    1.092003   -0.771854
  N      1.725702   -0.542340    0.448072
  C      0.669269   -0.734981    1.453657
  C      0.540787    0.529115    2.305506
  C      1.073077   -1.934296    2.312870
  C     -0.630017   -1.055803    0.720445
  N     -1.577440   -0.147475    0.755352
  C     -2.735640   -0.412858    0.068758
  C     -3.745831    0.584432    0.014235
  O     -4.852951    0.633217   -0.403226
  O     -3.257422    1.906199    0.701312
  C     -4.367909    2.768277    1.036582
  C     -2.187286    2.587473   -0.008642
  C     -2.886199   -1.627840   -0.576518
  O     -3.961679   -1.987958   -1.266893
  C     -1.783132   -2.609102   -0.547400
  O     -1.955134   -3.684930   -1.138470
  N     -0.666503   -2.243738    0.114148
  O      3.893244   -0.462735   -1.155992
  H      6.587393   -0.800440   -1.263047
  H      5.896027   -1.935761   -2.420867
  H      6.669012   -0.445444   -3.006015
  H      2.582299   -1.056737    0.567404
  H     -0.244964    0.389570    3.046057
  H      1.481594    0.733060    2.813765
  H      0.281110    1.381640    1.680835
  H      1.136422   -2.827495    1.691683
  H      0.324571   -2.097114    3.086820
  H      2.036320   -1.754985    2.786716
  H     -5.071433    2.172713    1.614075
  H     -4.836756    3.147341    0.127702
  H     -3.968833    3.581343    1.637399
  H     -2.554285    2.955473   -0.967027
  H     -1.865295    3.410686    0.625037
  H     -1.377913    1.868802   -0.136104
  H     -3.779840   -2.891494   -1.614563

 Total Charge           Charge          ....    0
 Multiplicity           Mult            ....    1
 Number of Electrons    NEL             ....  184
 Basis Dimension        Dim             ....  615

ORBITAL ENERGIES
----------------

  NO   OCC          E(Eh)            E(eV)
   0   2.0000     -19.086568      -519.3719
   1   2.0000     -19.064385      -518.7683
   2   2.0000     -19.006699      -517.1986
   3   2.0000     -18.999625      -517.0061
   4   2.0000     -18.931847      -515.1618
   5   2.0000     -18.911624      -514.6114
   6   2.0000     -14.203673      -386.5016
   7   2.0000     -14.198546      -386.3621
   8   2.0000     -14.196539      -386.3075
   9   2.0000     -14.146751      -384.9527
  10   2.0000     -14.139028      -384.7425
  11   2.0000     -10.200663      -277.5741
  12   2.0000     -10.154262      -276.3115
  13   2.0000     -10.146239      -276.0932
  14   2.0000     -10.141355      -275.9603
  15   2.0000     -10.122085      -275.4359
  16   2.0000     -10.116377      -275.2806
  17   2.0000     -10.101172      -274.8669
  18   2.0000     -10.094951      -274.6976
  19   2.0000     -10.094704      -274.6909
  20   2.0000     -10.092921      -274.6423
  21   2.0000     -10.087877      -274.5051
  22   2.0000     -10.045018      -273.3388
  23   2.0000     -10.018384      -272.6141
  24   2.0000     -10.012272      -272.4478
  25   2.0000      -1.153978       -31.4013
  26   2.0000      -1.122787       -30.5526
  27   2.0000      -1.063628       -28.9428
  28   2.0000      -1.056892       -28.7595
  29   2.0000      -1.019147       -27.7324
  30   2.0000      -0.983936       -26.7743
  31   2.0000      -0.974186       -26.5089
  32   2.0000      -0.936483       -25.4830
  33   2.0000      -0.907403       -24.6917
  34   2.0000      -0.840801       -22.8794
  35   2.0000      -0.829680       -22.5767
  36   2.0000      -0.776927       -21.1413
  37   2.0000      -0.744077       -20.2474
  38   2.0000      -0.731441       -19.9035
  39   2.0000      -0.712605       -19.3910
  40   2.0000      -0.696454       -18.9515
  41   2.0000      -0.663380       -18.0515
  42   2.0000      -0.657792       -17.8994
  43   2.0000      -0.638932       -17.3862
  44   2.0000      -0.623479       -16.9657
  45   2.0000      -0.601038       -16.3551
  46   2.0000      -0.583269       -15.8716
  47   2.0000      -0.569030       -15.4841
  48   2.0000      -0.548515       -14.9259
  49   2.0000      -0.536312       -14.5938
  50   2.0000      -0.525393       -14.2967
  51   2.0000      -0.513828       -13.9820
  52   2.0000      -0.505887       -13.7659
  53   2.0000      -0.502074       -13.6621
  54   2.0000      -0.493572       -13.4308
  55   2.0000      -0.479512       -13.0482
  56   2.0000      -0.463951       -12.6247
  57   2.0000      -0.458550       -12.4778
  58   2.0000      -0.444080       -12.0840
  59   2.0000      -0.439540       -11.9605
  60   2.0000      -0.425166       -11.5694
  61   2.0000      -0.412635       -11.2284
  62   2.0000      -0.408109       -11.1052
  63   2.0000      -0.405202       -11.0261
  64   2.0000      -0.402153       -10.9431
  65   2.0000      -0.396818       -10.7980
  66   2.0000      -0.391312       -10.6482
  67   2.0000      -0.390308       -10.6208
  68   2.0000      -0.384977       -10.4758
  69   2.0000      -0.381089       -10.3700
  70   2.0000      -0.373749       -10.1702
  71   2.0000      -0.367888       -10.0107
  72   2.0000      -0.366518        -9.9735
  73   2.0000      -0.353437        -9.6175
  74   2.0000      -0.351543        -9.5660
  75   2.0000      -0.346533        -9.4296
  76   2.0000      -0.343230        -9.3398
  77   2.0000      -0.335971        -9.1422
  78   2.0000      -0.327552        -8.9131
  79   2.0000      -0.325488        -8.8570
  80   2.0000      -0.315665        -8.5897
  81   2.0000      -0.313194        -8.5224
  82   2.0000      -0.300148        -8.1674
  83   2.0000      -0.277046        -7.5388
  84   2.0000      -0.266876        -7.2621
  85   2.0000      -0.262251        -7.1362
  86   2.0000      -0.260970        -7.1014
  87   2.0000      -0.247038        -6.7222
  88   2.0000      -0.240788        -6.5522
  89   2.0000      -0.226996        -6.1769
  90   2.0000      -0.213909        -5.8208
  91   2.0000      -0.196473        -5.3463
  92   0.0000      -0.112245        -3.0543
  93   0.0000      -0.084166        -2.2903
  94   0.0000      -0.024974        -0.6796
  95   0.0000      -0.018969        -0.5162
  96   0.0000      -0.005220        -0.1420

MULLIKEN ATOMIC CHARGES
-----------------------
   0 C :   -0.632839
   1 C :    0.392452
   2 N :   -0.280781
   3 N :   -0.178223
   4 C :    0.439493
   5 C :   -0.117061
   6 O :   -0.450676
   7 N :   -0.091895
   8 C :    0.121762
   9 C :   -0.617370
  10 C :   -0.623494
  11 C :    0.196108
  12 N :   -0.131362
  13 C :    0.075032
  14 C :    0.230528
  15 O :   -0.288594
  16 O :   -0.131965
  17 C :   -0.263653
  18 C :   -0.309289
  19 C :    0.105528
  20 O :   -0.347863
  21 C :    0.001862
  22 O :   -0.463992
  23 N :   -0.245513
  24 O :   -0.057134
  25 H :    0.198738
  26 H :    0.203108
  27 H :    0.204543
  28 H :    0.320317
  29 H :    0.184679
  30 H :    0.176311
  31 H :    0.190521
  32 H :    0.189357
  33 H :    0.191178
  34 H :    0.180709
  35 H :    0.203317
  36 H :    0.206554
  37 H :    0.204016
  38 H :    0.200554
  39 H :    0.203116
  40 H :    0.249499
  41 H :    0.362421
Sum of atomic charges:   -0.0000000

LOEWDIN ATOMIC CHARGES
----------------------
   0 C :   -0.317655
   1 C :    0.377244
   2 N :   -0.362127
   3 N :   -0.337409
   4 C :    0.415878
   5 C :    0.381330
   6 O :   -0.460989
   7 N :   -0.559639
   8 C :    0.109170
   9 C :   -0.349986
  10 C :   -0.349097
  11 C :    0.320021
  12 N :   -0.621689
  13 C :    0.157721
  14 C :    0.477767
  15 O :   -0.310645
  16 O :   -0.742528
  17 C :    0.001867
  18 C :   -0.006732
  19 C :    0.308485
  20 O :   -0.430301
  21 C :    0.310060
  22 O :   -0.531168
  23 N :   -0.557381
  24 O :   -0.393727
  25 H :    0.190710
  26 H :    0.192591
  27 H :    0.190876
  28 H :    0.299659
  29 H :    0.171659
  30 H :    0.164376
  31 H :    0.180942
  32 H :    0.179280
  33 H :    0.175059
  34 H :    0.167927
  35 H :    0.206921
  36 H :    0.197497
  37 H :    0.205222
  38 H :    0.192450
  39 H :    0.203767
  40 H :    0.233882
  41 H :    0.318711

  Mayer bond orders larger than 0.100000
B(  0-C ,  1-C ) :   0.8287 B(  0-C , 25-H ) :   0.9474 B(  0-C , 26-H ) :   0.9378
B(  0-C , 27-H ) :   0.9894 B(  1-C ,  2-N ) :   1.6305 B(  1-C ,  4-C ) :   0.1161
B(  1-C , 24-O ) :   1.0666 B(  2-N ,  3-N ) :   1.2690 B(  3-N ,  4-C ) :   1.7267
B(  4-C ,  5-C ) :   0.8455 B(  4-C , 24-O ) :   1.0832 B(  5-C ,  6-O ) :   1.8097
B(  5-C ,  7-N ) :   1.1707 B(  7-N ,  8-C ) :   0.8470 B(  7-N , 28-H ) :   0.8846
B(  8-C ,  9-C ) :   0.8629 B(  8-C , 10-C ) :   0.8626 B(  8-C , 11-C ) :   0.9015
B(  9-C , 29-H ) :   0.9686 B(  9-C , 30-H ) :   0.9777 B(  9-C , 31-H ) :   0.9670
B( 10-C , 32-H ) :   0.9650 B( 10-C , 33-H ) :   0.9719 B( 10-C , 34-H ) :   0.9746
B( 11-C , 12-N ) :   1.5965 B( 11-C , 23-N ) :   1.0705 B( 12-N , 13-C ) :   0.9563
B( 13-C , 14-C ) :   1.0331 B( 13-C , 19-C ) :   1.4355 B( 14-C , 15-O ) :   2.0381
B( 14-C , 16-O ) :   0.6156 B( 16-O , 17-C ) :   0.8279 B( 16-O , 18-C ) :   0.8054
B( 17-C , 35-H ) :   0.9458 B( 17-C , 36-H ) :   0.9316 B( 17-C , 37-H ) :   0.9355
B( 18-C , 38-H ) :   0.9304 B( 18-C , 39-H ) :   0.9404 B( 18-C , 40-H ) :   0.9088
B( 19-C , 20-O ) :   1.1284 B( 19-C , 21-C ) :   0.8904 B( 20-O , 41-H ) :   0.7967
B( 21-C , 22-O ) :   1.9574 B( 21-C , 23-N ) :   1.3716

Dispersion correction           -0.019263439
FINAL SINGLE POINT ENERGY     -1268.581368086046

DIPOLE MOMENT
-------------
                                X             Y             Z
Electronic contribution:     -5.75863      -5.67386     -11.23516
Nuclear contribution   :      5.74247       8.91761      14.37811
                        -----------------------------------------
Total Dipole Moment    :     -0.01616       3.24375       3.14295
                        -----------------------------------------
Magnitude (a.u.)       :      4.51667
Magnitude (Debye)      :     11.48047

Rotational constants in cm-1:     0.011845     0.004191     0.003823
Rotational constants in MHz :   355.117591   125.651410   114.597481

                             ****ORCA TERMINATED NORMALLY****
TOTAL RUN TIME: 0 days 0 hours 2 minutes 17 seconds 321 msec
