   * xtb version 6.5.1 (579679a) compiled by 'ehlert@majestix' on 2022-07-11
          program call               : /lustre/hpc/kemi/ree/PhD/git/ReactivityQM/dep/xtb-6.5.1/bin/xtb --gfn 1 /lustre/hpc/kemi/ree/PhD/git/ReactivityQM/calculations/R02deprot/reac01prodN17/conf07/R02deprot_reac01prodN17_conf07_gfn1.xyz --opt --vfukui --chrg 0 --uhf 0 --alpb DMSO

   ID    Z sym.   atoms
    1    6 C      1, 2, 5, 6, 9-12, 14, 15, 18-20, 22
    2    7 N      3, 4, 8, 13, 24
    3    8 O      7, 16, 17, 21, 23, 25
    4    1 H      26-42

      * Solvation model:               ALPB
        Solvent                        DMSO
        Solvent mass                       7.8130E+01 g/mol
          :  Hamiltonian                  GFN1-xTB          :
 * total energy  :   -82.9074189 Eh     change       -0.3069545E-11 Eh
 * total energy  :   -82.9209858 Eh     change       -0.1356691E-01 Eh
 * total energy  :   -82.9259861 Eh     change       -0.5000293E-02 Eh
 * total energy  :   -82.9272748 Eh     change       -0.1288650E-02 Eh
 * total energy  :   -82.9284658 Eh     change       -0.1190983E-02 Eh
 * total energy  :   -82.9294156 Eh     change       -0.9498265E-03 Eh
 * total energy  :   -82.9302169 Eh     change       -0.8012810E-03 Eh
 * total energy  :   -82.9308958 Eh     change       -0.6789036E-03 Eh
 * total energy  :   -82.9313387 Eh     change       -0.4429704E-03 Eh
 * total energy  :   -82.9316097 Eh     change       -0.2709252E-03 Eh
 * total energy  :   -82.9370981 Eh     change       -0.4695241E-04 Eh
 * total energy  :   -82.9371356 Eh     change       -0.3744419E-04 Eh
 * total energy  :   -82.9371496 Eh     change       -0.1402199E-04 Eh
 * total energy  :   -82.9371666 Eh     change       -0.1699491E-04 Eh
 * total energy  :   -82.9371933 Eh     change       -0.2673535E-04 Eh
 * total energy  :   -82.9372034 Eh     change       -0.1005571E-04 Eh
 * total energy  :   -82.9372156 Eh     change       -0.1225227E-04 Eh
 * total energy  :   -82.9372208 Eh     change       -0.5185222E-05 Eh
 * total energy  :   -82.9372245 Eh     change       -0.3730911E-05 Eh
   *** GEOMETRY OPTIMIZATION CONVERGED AFTER 86 ITERATIONS ***

 final structure:
================
42
 xtb: 6.5.1 (579679a)
C            6.06242192700855       -0.87819247979772       -2.21426926933976
C            4.76627492305544       -0.17020587739556       -2.13442461621413
N            4.31201679141465        0.75054097371438       -2.92549540763194
N            3.07704090570172        1.09442864952203       -2.45927133206344
C            2.85483397911340        0.36285934606738       -1.41177626171247
C            1.64343751445849        0.35275165670816       -0.54813977900081
O            0.69360635408249        1.09200330846559       -0.77185403963046
N            1.72570212765133       -0.54233964049687        0.44807185496262
C            0.66926916223441       -0.73498097552438        1.45365699164351
C            0.54078681454301        0.52911521901083        2.30550591734888
C            1.07307671267952       -1.93429641036616        2.31287002996649
C           -0.63001670067687       -1.05580304347881        0.72044505292618
N           -1.57743995114383       -0.14747508378587        0.75535228991344
C           -2.73563974877104       -0.41285780478816        0.06875792774493
C           -3.74583081841024        0.58443160895571        0.01423523928853
O           -4.85295102783026        0.63321701396426       -0.40322590587770
O           -3.25742156727057        1.90619877555419        0.70131192787024
C           -4.36790867027364        2.76827655088979        1.03658167814285
C           -2.18728569735551        2.58747300022891       -0.00864241994287
C           -2.88619865139343       -1.62784005086038       -0.57651830503391
O           -3.96167864060857       -1.98795782924974       -1.26689318958667
C           -1.78313195033326       -2.60910196880696       -0.54740008373952
O           -1.95513440078212       -3.68492981639843       -1.13847036337906
N           -0.66650300265103       -2.24373849655569        0.11414849169145
O            3.89324401792769       -0.46273478572948       -1.15599171756878
H            6.58739314740739       -0.80044022157338       -1.26304720411001
H            5.89602650596231       -1.93576071915292       -2.42086658923040
H            6.66901197093321       -0.44544404787895       -3.00601516435358
H            2.58229870411474       -1.05673733113265        0.56740419188874
H           -0.24496361909959        0.38957012364666        3.04605723860580
H            1.48159429375737        0.73306012553322        2.81376475718206
H            0.28110989221568        1.38163969750957        1.68083457768199
H            1.13642230992763       -2.82749454803273        1.69168329045647
H            0.32457147435307       -2.09711365553843        3.08681956704452
H            2.03631996293447       -1.75498532595795        2.78671641294641
H           -5.07143279640900        2.17271317957399        1.61407486623599
H           -4.83675617653684        3.14734103559287        0.12770247214942
H           -3.96883320656225        3.58134275583933        1.63739916041662
H           -2.55428454807798        2.95547310061129       -0.96702658967024
H           -1.86529488035940        3.41068561281519        0.62503690741809
H           -1.37791311396553        1.86880184946044       -0.13610387018062
H           -3.77984032293600       -2.89149447115262       -1.61456273532070

          :  Hamiltonian                  GFN1-xTB          :
         :: total energy             -82.937224527000 Eh    ::
         :: gradient norm              0.000585707560 Eh/a0 ::
         :: HOMO-LUMO gap              1.687581506686 eV    ::
         :: SCC energy               -83.718110032497 Eh    ::
         :: -> Gsolv                  -0.065563931608 Eh    ::
         :: repulsion energy           0.807715568436 Eh    ::

    * Orbital Energies and Occupations

         #    Occupation            Energy/Eh            Energy/eV
      -------------------------------------------------------------
         1        2.0000           -0.8962372             -24.3879
       ...           ...                  ...                  ...
        55        2.0000           -0.5022069             -13.6657
        56        2.0000           -0.4938564             -13.4385
        57        2.0000           -0.4870364             -13.2529
        58        2.0000           -0.4772239             -12.9859
        59        2.0000           -0.4653742             -12.6635
        60        2.0000           -0.4627808             -12.5929
        61        2.0000           -0.4565749             -12.4240
        62        2.0000           -0.4540862             -12.3563
        63        2.0000           -0.4475496             -12.1784
        64        2.0000           -0.4439323             -12.0800
        65        2.0000           -0.4276009             -11.6356
        66        2.0000           -0.4014897             -10.9251
        67        2.0000           -0.4002454             -10.8912 (HOMO)
        68                         -0.3382279              -9.2037 (LUMO)
        69                         -0.3058856              -8.3236
        70                         -0.2571034              -6.9961
        71                         -0.2543670              -6.9217
        72                         -0.2308443              -6.2816
        73                         -0.1941387              -5.2828
        74                         -0.1705324              -4.6404
        75                         -0.1531758              -4.1681
        76                         -0.1412064              -3.8424
        77                         -0.1409935              -3.8366
        78                         -0.1355614              -3.6888
       ...                                ...                  ...
       134                          0.7960533              21.6617
      -------------------------------------------------------------
                  HL-Gap            0.0620175 Eh            1.6876 eV

Wiberg/Mayer (AO) data.
largest (>0.10) Wiberg bond orders for each atom

     #   Z sym  total        # sym  WBO       # sym  WBO       # sym  WBO
 ---------------------------------------------------------------------------
     1   6 C    3.987 --     2 C    1.031    28 H    0.982    26 H    0.966
                            27 H    0.961
     2   6 C    3.869 --     3 N    1.614    25 O    1.072     1 C    1.031
     3   7 N    2.981 --     2 C    1.614     4 N    1.195
     4   7 N    2.997 --     5 C    1.625     3 N    1.195
     5   6 C    3.870 --     4 N    1.625    25 O    1.047     6 C    0.988
     6   6 C    3.920 --     7 O    1.561     8 N    1.287     5 C    0.988
     7   8 O    1.892 --     6 C    1.561     8 N    0.182
     8   7 N    3.371 --     6 C    1.287     9 C    0.909    29 H    0.895
                             7 O    0.182
     9   6 C    3.929 --    11 C    0.996    10 C    0.995    12 C    0.964
                             8 N    0.909
    10   6 C    3.992 --     9 C    0.995    31 H    0.986    30 H    0.985
                            32 H    0.980
    11   6 C    3.992 --     9 C    0.996    35 H    0.985    34 H    0.984
                            33 H    0.981
    12   6 C    3.951 --    13 N    1.477    24 N    1.350     9 C    0.964
    13   7 N    3.009 --    12 C    1.477    14 C    1.169
    14   6 C    3.956 --    20 C    1.370    15 C    1.170    13 N    1.169
    15   6 C    3.793 --    16 O    1.788    14 C    1.170    17 O    0.660
    16   8 O    2.084 --    15 C    1.788
    17   8 O    2.463 --    18 C    0.847    19 C    0.826    15 C    0.660
    18   6 C    3.820 --    37 H    0.980    38 H    0.978    36 H    0.977
                            17 O    0.847
    19   6 C    3.798 --    39 H    0.984    40 H    0.979    41 H    0.957
                            17 O    0.826
    20   6 C    3.893 --    14 C    1.370    21 O    1.143    22 C    1.035
    21   8 O    2.116 --    20 C    1.143    42 H    0.792
    22   6 C    3.932 --    23 O    1.498    24 N    1.265    20 C    1.035
    23   8 O    1.846 --    22 C    1.498    24 N    0.134
    24   7 N    2.993 --    12 C    1.350    22 C    1.265    23 O    0.134
    25   8 O    2.315 --     2 C    1.072     5 C    1.047
    26   1 H    0.997 --     1 C    0.966
    27   1 H    0.997 --     1 C    0.961
    28   1 H    0.999 --     1 C    0.982
    29   1 H    0.939 --     8 N    0.895
    30   1 H    1.008 --    10 C    0.985
    31   1 H    1.003 --    10 C    0.986
    32   1 H    1.017 --    10 C    0.980
    33   1 H    1.015 --    11 C    0.981
    34   1 H    1.002 --    11 C    0.984
    35   1 H    0.999 --    11 C    0.985
    36   1 H    1.001 --    18 C    0.977
    37   1 H    1.000 --    18 C    0.980
    38   1 H    0.999 --    18 C    0.978
    39   1 H    0.996 --    19 C    0.984
    40   1 H    1.000 --    19 C    0.979
    41   1 H    1.039 --    19 C    0.957
    42   1 H    0.853 --    21 O    0.792
 ---------------------------------------------------------------------------

           -------------------------------------------------
          | TOTAL ENERGY              -82.937224527000 Eh   |
          | GRADIENT NORM               0.000585707560 Eh/α |
          | HOMO-LUMO GAP               1.687581506686 eV   |
           -------------------------------------------------

 * finished run on 2023/06/20 at 18:28:19.956
