   * xtb version 6.5.1 (579679a) compiled by 'ehlert@majestix' on 2022-07-11
          program call               : /lustre/hpc/kemi/ree/PhD/git/ReactivityQM/dep/xtb-6.5.1/bin/xtb --gfn 1 /lustre/hpc/kemi/ree/PhD/git/ReactivityQM/calculations/R02oxygendeprot/reac01prodE11/conf01/R02oxygendeprot_reac01prodE11_conf01_gfn1.xyz --opt --vfukui --chrg -2 --uhf 0 --alpb DMSO

   ID    Z sym.   atoms
    1    6 C      1, 3, 5, 7-10, 12, 14, 17-19, 22, 24
    2    8 O      2, 4, 13, 20, 23, 25
    3    7 N      6, 11, 15, 16, 21
    4    1 H      26-42

      * Solvation model:               ALPB
        Solvent                        DMSO
        Solvent mass                       7.8130E+01 g/mol
          :  Hamiltonian                  GFN1-xTB          :
 * total energy  :   -83.6516575 Eh     change       -0.3805667E-10 Eh
 * total energy  :   -83.6614832 Eh     change       -0.9825715E-02 Eh
 * total energy  :   -83.6643790 Eh     change       -0.2895780E-02 Eh
 * total energy  :   -83.6647637 Eh     change       -0.3847041E-03 Eh
 * total energy  :   -83.6649861 Eh     change       -0.2223415E-03 Eh
 * total energy  :   -83.6651364 Eh     change       -0.1502990E-03 Eh
 * total energy  :   -83.6653507 Eh     change       -0.2143252E-03 Eh
 * total energy  :   -83.6655759 Eh     change       -0.2252316E-03 Eh
 * total energy  :   -83.6658025 Eh     change       -0.2265801E-03 Eh
 * total energy  :   -83.6659599 Eh     change       -0.1573900E-03 Eh
 * total energy  :   -83.6664091 Eh     change       -0.2338764E-04 Eh
 * total energy  :   -83.6664310 Eh     change       -0.2189770E-04 Eh
 * total energy  :   -83.6664551 Eh     change       -0.2407277E-04 Eh
 * total energy  :   -83.6664806 Eh     change       -0.2552710E-04 Eh
 * total energy  :   -83.6665045 Eh     change       -0.2388342E-04 Eh
 * total energy  :   -83.6665201 Eh     change       -0.1555052E-04 Eh
 * total energy  :   -83.6665267 Eh     change       -0.6588977E-05 Eh
 * total energy  :   -83.6665338 Eh     change       -0.7133249E-05 Eh
 * total energy  :   -83.6665376 Eh     change       -0.3752672E-05 Eh
   *** GEOMETRY OPTIMIZATION CONVERGED AFTER 24 ITERATIONS ***

 final structure:
================
42
 xtb: 6.5.1 (579679a)
C            2.81297737093875        3.20352586418311        1.68143926137735
O            2.62402013494723        2.02091140369295        0.92052680263929
C            3.66351102773400        1.68429280680574        0.09283431631224
O            4.65319121835409        2.40050090949750        0.03366324106462
C            3.43448075981896        0.44354428203659       -0.62474691798136
N            2.20358268456753       -0.15174127791195       -0.41046880072987
C            1.91295295483557       -1.27240075182680       -0.95859143487469
C            0.57322443475614       -1.94821118077700       -0.71266920933704
C            0.80845930327614       -3.21370364292773        0.12961193829875
C           -0.09177408630852       -2.31029663553005       -2.05411412177884
N           -0.24202058882191       -1.00091642639534        0.03414538197701
C           -1.60489151967405       -1.23956530315173        0.26986559139481
O           -2.07758723253879       -2.39464556752233        0.28288034498948
C           -2.31030118816602       -0.04169655473149        0.53787978488814
N           -1.79859472901316        1.17922678263427        0.48111330989246
N           -2.69416476231100        2.08228894668012        0.75807053574948
C           -3.95572679683353        1.37786665632724        1.03441602820972
C           -4.40882849361894        1.66843558241270        2.47641320383588
C           -5.03153875547529        1.82168070478306        0.02807334233533
O           -3.67579455336145       -0.00526713228348        0.87691081102977
N            2.81819368000659       -1.93338948004543       -1.76942442337281
C            4.06100078601337       -1.45226055604289       -2.08377274332524
O            4.79814477158144       -2.10448833723091       -2.82274158952140
C            4.42884868020929       -0.12378223568715       -1.46422942060976
O            5.54776821837282        0.36399888028518       -1.71385536845131
H            1.94327078771748        3.31550532242544        2.32845684998280
H            2.90205876212788        4.07850664194671        1.02895278025726
H            3.71763769821012        3.13098248090431        2.29424895544802
H            1.49090523577215       -3.88565331750821       -0.38797851260690
H            1.24133513244257       -2.94206702140136        1.09261808314672
H           -0.13335424469384       -3.73307996389642        0.29828862714699
H           -1.05914309239233       -2.77654339939845       -1.87376652680012
H           -0.23439601972452       -1.41360309263306       -2.65617489323491
H            0.52771126984611       -3.01163961109929       -2.60931494144558
H           -0.02474973617723       -0.02885991793537       -0.18050001044865
H           -3.63570759195922        1.34086016158229        3.16994356421557
H           -5.33241022545420        1.13603526263757        2.69668426410927
H           -4.56999093160668        2.73700245390107        2.60252780251314
H           -5.20298264568185        2.89197214750654        0.12169443587803
H           -5.96335957363082        1.29001361078710        0.21230913216846
H           -4.69114447993420        1.60276430324217       -0.98278193854173
H            2.57518533583743       -2.82033379834059       -2.17843553580229

          :  Hamiltonian                  GFN1-xTB          :
         :: total energy             -83.666537554176 Eh    ::
         :: gradient norm              0.000767464422 Eh/a0 ::
         :: HOMO-LUMO gap              1.214448761532 eV    ::
         :: SCC energy               -84.403939857393 Eh    ::
         :: -> Gsolv                  -0.260724125185 Eh    ::
         :: repulsion energy           0.763014990762 Eh    ::

    * Orbital Energies and Occupations

         #    Occupation            Energy/Eh            Energy/eV
      -------------------------------------------------------------
         1        2.0000           -0.7928564             -21.5747
       ...           ...                  ...                  ...
        56        2.0000           -0.4482350             -12.1971
        57        2.0000           -0.4425464             -12.0423
        58        2.0000           -0.4322952             -11.7634
        59        2.0000           -0.4315902             -11.7442
        60        2.0000           -0.4289495             -11.6723
        61        2.0000           -0.4109205             -11.1817
        62        2.0000           -0.4083242             -11.1111
        63        2.0000           -0.3963797             -10.7860
        64        2.0000           -0.3855325             -10.4909
        65        2.0000           -0.3710652             -10.0972
        66        2.0000           -0.3655513              -9.9472
        67        2.0000           -0.3583573              -9.7514
        68        2.0000           -0.3092524              -8.4152 (HOMO)
        69                         -0.2646222              -7.2007 (LUMO)
        70                         -0.2329057              -6.3377
        71                         -0.2285005              -6.2178
        72                         -0.1910159              -5.1978
        73                         -0.1208169              -3.2876
        74                         -0.1204188              -3.2768
        75                         -0.1135950              -3.0911
        76                         -0.1044932              -2.8434
        77                         -0.1017610              -2.7691
        78                         -0.0987407              -2.6869
        79                         -0.0956894              -2.6038
       ...                                ...                  ...
       134                          0.7673872              20.8817
      -------------------------------------------------------------
                  HL-Gap            0.0446302 Eh            1.2144 eV

Wiberg/Mayer (AO) data.
largest (>0.10) Wiberg bond orders for each atom

     #   Z sym  total        # sym  WBO       # sym  WBO       # sym  WBO
 ---------------------------------------------------------------------------
     1   6 C    3.902 --    26 H    0.987    27 H    0.981    28 H    0.980
                             2 O    0.930
     2   8 O    2.137 --     3 C    1.021     1 C    0.930     4 O    0.107
     3   6 C    3.849 --     4 O    1.585     5 C    1.125     2 O    1.021
     4   8 O    1.862 --     3 C    1.585     2 O    0.107
     5   6 C    3.918 --    24 C    1.271     6 N    1.148     3 C    1.125
                            25 O    0.130
     6   7 N    3.035 --     7 C    1.637     5 C    1.148
     7   6 C    3.927 --     6 N    1.637    21 N    1.088     8 C    0.978
     8   6 C    3.960 --     9 C    0.982    10 C    0.981     7 C    0.978
                            11 N    0.960
     9   6 C    3.992 --    29 H    0.987    30 H    0.986     8 C    0.982
                            31 H    0.979
    10   6 C    3.992 --    33 H    0.987    34 H    0.983     8 C    0.981
                            32 H    0.980
    11   7 N    3.187 --    12 C    1.075     8 C    0.960    35 H    0.911
                            13 O    0.103
    12   6 C    3.925 --    13 O    1.456    14 C    1.216    11 N    1.075
    13   8 O    1.801 --    12 C    1.456    11 N    0.103
    14   6 C    3.848 --    15 N    1.402    12 C    1.216    20 O    0.932
                            16 N    0.164
    15   7 N    3.048 --    16 N    1.453    14 C    1.402
    16   7 N    2.871 --    15 N    1.453    17 C    0.983    14 C    0.164
    17   6 C    3.902 --    16 N    0.983    19 C    0.977    18 C    0.977
                            20 O    0.929
    18   6 C    3.994 --    38 H    0.988    37 H    0.987    36 H    0.986
                            17 C    0.977
    19   6 C    3.995 --    39 H    0.988    40 H    0.987    41 H    0.985
                            17 C    0.977
    20   8 O    2.053 --    14 C    0.932    17 C    0.929
    21   7 N    3.424 --    22 C    1.168     7 C    1.088    42 H    0.899
                            23 O    0.136
    22   6 C    3.879 --    23 O    1.569    21 N    1.168    24 C    0.970
    23   8 O    1.848 --    22 C    1.569    21 N    0.136
    24   6 C    3.944 --    25 O    1.515     5 C    1.271    22 C    0.970
    25   8 O    1.820 --    24 C    1.515     5 C    0.130
    26   1 H    1.016 --     1 C    0.987
    27   1 H    1.014 --     1 C    0.981
    28   1 H    1.016 --     1 C    0.980
    29   1 H    1.005 --     9 C    0.987
    30   1 H    1.010 --     9 C    0.986
    31   1 H    1.023 --     9 C    0.979
    32   1 H    1.015 --    10 C    0.980
    33   1 H    1.006 --    10 C    0.987
    34   1 H    1.004 --    10 C    0.983
    35   1 H    1.000 --    11 N    0.911
    36   1 H    1.016 --    18 C    0.986
    37   1 H    1.009 --    18 C    0.987
    38   1 H    1.011 --    18 C    0.988
    39   1 H    1.011 --    19 C    0.988
    40   1 H    1.009 --    19 C    0.987
    41   1 H    1.015 --    19 C    0.985
    42   1 H    0.952 --    21 N    0.899
 ---------------------------------------------------------------------------

           -------------------------------------------------
          | TOTAL ENERGY              -83.666537554176 Eh   |
          | GRADIENT NORM               0.000767464422 Eh/α |
          | HOMO-LUMO GAP               1.214448761532 eV   |
           -------------------------------------------------

 * finished run on 2023/06/21 at 17:12:37.117
