   * xtb version 6.5.1 (579679a) compiled by 'ehlert@majestix' on 2022-07-11
          program call               : /lustre/hpc/kemi/ree/PhD/git/ReactivityQM/dep/xtb-6.5.1/bin/xtb --gfn 1 /lustre/hpc/kemi/ree/PhD/git/ReactivityQM/calculations/R01/reac02prodE03/conf01/R01_reac02prodE03_conf01_gfn1.xyz --opt --vfukui --chrg -1 --uhf 0 --alpb DMSO

   ID    Z sym.   atoms
    1    6 C      1, 3, 5, 6, 8-11, 14, 16
    2    8 O      2, 4, 15, 17
    3    7 N      7, 12, 13
    4    1 H      18-33

      * Solvation model:               ALPB
        Solvent                        DMSO
        Solvent mass                       7.8130E+01 g/mol
          :  Hamiltonian                  GFN1-xTB          :
 * total energy  :   -58.5241398 Eh     change       -0.6345147E-11 Eh
 * total energy  :   -58.5368591 Eh     change       -0.1271936E-01 Eh
 * total energy  :   -58.5406113 Eh     change       -0.3752188E-02 Eh
 * total energy  :   -58.5412748 Eh     change       -0.6634547E-03 Eh
 * total energy  :   -58.5417324 Eh     change       -0.4576455E-03 Eh
 * total energy  :   -58.5418958 Eh     change       -0.1633816E-03 Eh
 * total energy  :   -58.5420285 Eh     change       -0.1327327E-03 Eh
 * total energy  :   -58.5421737 Eh     change       -0.1451936E-03 Eh
 * total energy  :   -58.5423669 Eh     change       -0.1931484E-03 Eh
 * total energy  :   -58.5426037 Eh     change       -0.2368837E-03 Eh
 * total energy  :   -58.5474023 Eh     change       -0.2949600E-04 Eh
 * total energy  :   -58.5474276 Eh     change       -0.2533771E-04 Eh
 * total energy  :   -58.5474462 Eh     change       -0.1858868E-04 Eh
 * total energy  :   -58.5474620 Eh     change       -0.1580923E-04 Eh
 * total energy  :   -58.5474710 Eh     change       -0.9035014E-05 Eh
 * total energy  :   -58.5474813 Eh     change       -0.1027973E-04 Eh
 * total energy  :   -58.5474872 Eh     change       -0.5878494E-05 Eh
 * total energy  :   -58.5474923 Eh     change       -0.5151878E-05 Eh
 * total energy  :   -58.5474955 Eh     change       -0.3126124E-05 Eh
   *** GEOMETRY OPTIMIZATION CONVERGED AFTER 44 ITERATIONS ***

 final structure:
================
33
 xtb: 6.5.1 (579679a)
C            2.83823483935557       -0.93738172059080        2.03750317916665
O            1.88504069316721       -0.34633322119411        1.15911528130791
C            2.32198551765602       -0.06709985262552       -0.08776221093971
O            3.47496020644949       -0.29740243431897       -0.43234713244647
C            1.22731982896450        0.33836560472870       -1.06246395713880
C            1.75417063286782        1.35384928456503       -2.08350972313878
N            0.05767108073280        0.89550940428605       -0.40335959567246
C           -0.86889807521807        0.09801847818670       -0.02287896430646
C           -2.08868429042595        0.70129253721717        0.67284896442108
C           -2.45219232289808       -0.07951049652650        1.93922501968027
C           -3.26642843552410        0.70127707854237       -0.31469639655189
N           -1.81304849859933        2.08675643271165        1.04797055301554
N           -0.85663334302834       -1.24661716788376       -0.21397767585332
C            0.00229965391026       -1.87257592505250       -1.21166521984310
O           -0.32083076985911       -3.03605612538425       -1.55912931841272
C            0.98907000960449       -1.03803359252719       -1.66388654086772
O            1.93134636491902       -1.44864709050934       -2.63118743373935
H            2.34718882916419       -1.06739097811362        3.00064618295765
H            3.16872728225622       -1.90716442339058        1.65333470804634
H            3.70971200432960       -0.28575537588971        2.15079411235405
H            2.69977088546173        1.01331587680518       -2.50272332743011
H            1.02955529008573        1.47481790853048       -2.88805613716780
H            1.90525606739509        2.31790789194337       -1.59929117164873
H           -1.57928134395296       -0.18544002176154        2.58322416804346
H           -2.82645094131593       -1.07182657857515        1.69167408436813
H           -3.22871156771316        0.45408599466502        2.48677383116528
H           -3.00735881234605        1.27849112672827       -1.20242861677225
H           -3.51524242971447       -0.31585189673581       -0.61521671196142
H           -4.13821144771063        1.15601542306995        0.15455447906923
H           -1.19453877768886        2.09952785835027        1.84985275183249
H           -1.31328754672863        2.53221668083370        0.28156627217976
H           -1.68176588516075       -1.78002975790746        0.00668397281163
H            2.80925430156406       -1.51833192217879       -2.22118942652881

          :  Hamiltonian                  GFN1-xTB          :
         :: total energy             -58.547495464226 Eh    ::
         :: gradient norm              0.000317289350 Eh/a0 ::
         :: HOMO-LUMO gap              2.404890973987 eV    ::
         :: SCC energy               -59.087485895920 Eh    ::
         :: -> Gsolv                  -0.104208852155 Eh    ::
         :: repulsion energy           0.559969441353 Eh    ::

    * Orbital Energies and Occupations

         #    Occupation            Energy/Eh            Energy/eV
      -------------------------------------------------------------
         1        2.0000           -0.8043042             -21.8862
       ...           ...                  ...                  ...
        36        2.0000           -0.4768251             -12.9751
        37        2.0000           -0.4755297             -12.9398
        38        2.0000           -0.4726956             -12.8627
        39        2.0000           -0.4699474             -12.7879
        40        2.0000           -0.4557935             -12.4028
        41        2.0000           -0.4543400             -12.3632
        42        2.0000           -0.4499751             -12.2444
        43        2.0000           -0.4282075             -11.6521
        44        2.0000           -0.3970017             -10.8030
        45        2.0000           -0.3890508             -10.5866
        46        2.0000           -0.3814492             -10.3798
        47        2.0000           -0.3702849             -10.0760
        48        2.0000           -0.3153871              -8.5821 (HOMO)
        49                         -0.2270090              -6.1772 (LUMO)
        50                         -0.2118080              -5.7636
        51                         -0.1274990              -3.4694
        52                         -0.1240594              -3.3758
        53                         -0.1158939              -3.1536
        54                         -0.1103113              -3.0017
        55                         -0.0950703              -2.5870
        56                         -0.0849495              -2.3116
        57                         -0.0712951              -1.9400
        58                         -0.0619601              -1.6860
        59                         -0.0605085              -1.6465
       ...                                ...                  ...
       100                          0.7204256              19.6038
      -------------------------------------------------------------
                  HL-Gap            0.0883781 Eh            2.4049 eV

Wiberg/Mayer (AO) data.
largest (>0.10) Wiberg bond orders for each atom

     #   Z sym  total        # sym  WBO       # sym  WBO       # sym  WBO
 ---------------------------------------------------------------------------
     1   6 C    3.894 --    18 H    0.987    20 H    0.981    19 H    0.981
                             2 O    0.916
     2   8 O    2.163 --     3 C    1.066     1 C    0.916     4 O    0.108
     3   6 C    3.818 --     4 O    1.585     2 O    1.066     5 C    0.936
                            16 C    0.114
     4   8 O    1.884 --     3 C    1.585     2 O    0.108
     5   6 C    3.965 --     6 C    0.987     7 N    0.979     3 C    0.936
                            16 C    0.926
     6   6 C    3.997 --    23 H    0.988     5 C    0.987    22 H    0.987
                            21 H    0.985
     7   7 N    2.985 --     8 C    1.675     5 C    0.979    13 N    0.156
     8   6 C    3.944 --     7 N    1.675    13 N    1.185     9 C    0.961
     9   6 C    3.969 --    10 C    0.996    12 N    0.989    11 C    0.985
                             8 C    0.961
    10   6 C    3.996 --     9 C    0.996    26 H    0.986    24 H    0.986
                            25 H    0.984
    11   6 C    3.996 --    28 H    0.986    27 H    0.986    29 H    0.986
                             9 C    0.985
    12   7 N    2.951 --     9 C    0.989    30 H    0.950    31 H    0.940
    13   7 N    3.311 --     8 C    1.185    32 H    0.914    14 C    0.910
                             7 N    0.156
    14   6 C    3.916 --    16 C    1.482    15 O    1.398    13 N    0.910
    15   8 O    1.721 --    14 C    1.398    16 C    0.167
    16   6 C    3.783 --    14 C    1.482    17 O    0.950     5 C    0.926
                            15 O    0.167     3 C    0.114
    17   8 O    1.908 --    16 C    0.950    33 H    0.861
    18   1 H    1.015 --     1 C    0.987
    19   1 H    1.012 --     1 C    0.981
    20   1 H    1.013 --     1 C    0.981
    21   1 H    1.017 --     6 C    0.985
    22   1 H    1.012 --     6 C    0.987
    23   1 H    1.011 --     6 C    0.988
    24   1 H    1.004 --    10 C    0.986
    25   1 H    1.004 --    10 C    0.984
    26   1 H    1.006 --    10 C    0.986
    27   1 H    1.006 --    11 C    0.986
    28   1 H    1.005 --    11 C    0.986
    29   1 H    1.009 --    11 C    0.986
    30   1 H    0.970 --    12 N    0.950
    31   1 H    0.987 --    12 N    0.940
    32   1 H    0.966 --    13 N    0.914
    33   1 H    0.901 --    17 O    0.861
 ---------------------------------------------------------------------------

           -------------------------------------------------
          | TOTAL ENERGY              -58.547495464226 Eh   |
          | GRADIENT NORM               0.000317289350 Eh/α |
          | HOMO-LUMO GAP               2.404890973987 eV   |
           -------------------------------------------------

 * finished run on 2023/06/20 at 14:58:55.989
