   * xtb version 6.5.1 (579679a) compiled by 'ehlert@majestix' on 2022-07-11
          program call               : /lustre/hpc/kemi/ree/PhD/git/ReactivityQM/dep/xtb-6.5.1/bin/xtb --gfn 1 /lustre/hpc/kemi/ree/PhD/git/ReactivityQM/calculations/R02deprot/reac01/conf09/R02deprot_reac01_conf09_gfn1.xyz --opt --vfukui --chrg -1 --uhf 0 --alpb DMSO

   ID    Z sym.   atoms
    1    6 C      1, 3, 5, 7-10, 12, 14, 17, 18, 21, 23
    2    8 O      2, 4, 13, 19, 22, 24
    3    7 N      6, 11, 15, 16, 20
    4    1 H      25-38

      * Solvation model:               ALPB
        Solvent                        DMSO
        Solvent mass                       7.8130E+01 g/mol
          :  Hamiltonian                  GFN1-xTB          :
 * total energy  :   -79.5936179 Eh     change       -0.2202682E-11 Eh
 * total energy  :   -79.6055287 Eh     change       -0.1191075E-01 Eh
 * total energy  :   -79.6101534 Eh     change       -0.4624762E-02 Eh
 * total energy  :   -79.6111214 Eh     change       -0.9679361E-03 Eh
 * total energy  :   -79.6115946 Eh     change       -0.4732057E-03 Eh
 * total energy  :   -79.6117377 Eh     change       -0.1431409E-03 Eh
 * total energy  :   -79.6118172 Eh     change       -0.7948671E-04 Eh
 * total energy  :   -79.6118743 Eh     change       -0.5704175E-04 Eh
 * total energy  :   -79.6119186 Eh     change       -0.4430791E-04 Eh
 * total energy  :   -79.6119524 Eh     change       -0.3386757E-04 Eh
 * total energy  :   -79.6125114 Eh     change       -0.1204361E-04 Eh
 * total energy  :   -79.6125243 Eh     change       -0.1297450E-04 Eh
 * total energy  :   -79.6125285 Eh     change       -0.4203718E-05 Eh
 * total energy  :   -79.6125357 Eh     change       -0.7125850E-05 Eh
 * total energy  :   -79.6125447 Eh     change       -0.9008495E-05 Eh
 * total energy  :   -79.6125517 Eh     change       -0.7027500E-05 Eh
 * total energy  :   -79.6125588 Eh     change       -0.7058481E-05 Eh
 * total energy  :   -79.6125623 Eh     change       -0.3574461E-05 Eh
 * total energy  :   -79.6125657 Eh     change       -0.3392607E-05 Eh
   *** GEOMETRY OPTIMIZATION CONVERGED AFTER 40 ITERATIONS ***

 final structure:
================
38
 xtb: 6.5.1 (579679a)
C           -5.63245016065220        1.56146796682316        0.86667190076656
O           -4.35571340416915        0.95672945199222        0.67799213740507
C           -4.16494801315094        0.32837738554340       -0.49063883864383
O           -5.03999273123956        0.28613640634256       -1.34571488241693
C           -2.83858129582834       -0.28649988082127       -0.63324364970790
N           -1.96882698550578       -0.16054844420655        0.41551949454176
C           -0.78935984291195       -0.72360178585610        0.26755386007088
C            0.15985212463472       -0.63936412777017        1.46202636202424
C            0.07392117191387       -1.96224797653157        2.23062347189157
C           -0.19375243826427        0.53667774736943        2.37425254662919
N            1.53925626897699       -0.50982751129519        0.97683662729757
C            1.97530530976687        0.51956608155122        0.23480749811629
O            1.32921510724499        1.50635610925443       -0.07811524355376
C            3.39248336574351        0.31141057061091       -0.18529195602766
N            4.08872138227409       -0.77329619984893       -0.02231639007158
N            5.31504440017270       -0.54115955637337       -0.57531275961881
C            5.28606520225208        0.66952515899928       -1.04010023966066
C            6.37623636316426        1.40006529055825       -1.72361932164573
O            4.09920590606855        1.25932907563703       -0.82915426434958
N           -0.34698817659085       -1.41567630060383       -0.77482295689648
C           -1.14512302601898       -1.58459688861344       -1.86681087806387
O           -0.77086148668159       -2.21972635879812       -2.86693171856764
C           -2.48016709509553       -0.96934224443954       -1.77528870608553
O           -3.29859084361018       -1.12038353960617       -2.84183142045298
H           -6.42005636423680        0.80456802005916        0.82654139802539
H           -5.81802408999452        2.31038574541831        0.09212681871024
H           -5.61689393241886        2.03305231538494        1.84753285088050
H           -0.94187435863595       -2.10428490489997        2.59644703955604
H            0.32847051732114       -2.79203840237563        1.57118076083711
H            0.75527031183016       -1.95858533831754        3.07993797163601
H            0.50840651892902        0.59461883186434        3.20420263284469
H           -1.20013570372668        0.39253325063460        2.76456557937798
H           -0.16949681420639        1.47230087114732        1.81728005470488
H            2.18336842511676       -1.25668633456178        1.18230054623565
H            7.23078161214130        0.74131433088722       -1.85455596212062
H            6.67376878388257        2.26407071146985       -1.12956478762777
H            6.03730562810708        1.75933963205430       -2.69487688302153
H           -4.16084163660298       -0.68995615868377       -2.67179369301469

          :  Hamiltonian                  GFN1-xTB          :
         :: total energy             -79.612565727307 Eh    ::
         :: gradient norm              0.000680427263 Eh/a0 ::
         :: HOMO-LUMO gap              1.856376087977 eV    ::
         :: SCC energy               -80.331550138393 Eh    ::
         :: -> Gsolv                  -0.124233475292 Eh    ::
         :: repulsion energy           0.741872829097 Eh    ::

    * Orbital Energies and Occupations

         #    Occupation            Energy/Eh            Energy/eV
      -------------------------------------------------------------
         1        2.0000           -0.8573005             -23.3283
       ...           ...                  ...                  ...
        52        2.0000           -0.4765933             -12.9688
        53        2.0000           -0.4753362             -12.9346
        54        2.0000           -0.4703122             -12.7978
        55        2.0000           -0.4554453             -12.3933
        56        2.0000           -0.4531962             -12.3321
        57        2.0000           -0.4514282             -12.2840
        58        2.0000           -0.4426106             -12.0440
        59        2.0000           -0.4358845             -11.8610
        60        2.0000           -0.4269682             -11.6184
        61        2.0000           -0.4161540             -11.3241
        62        2.0000           -0.3974776             -10.8159
        63        2.0000           -0.3681269             -10.0172
        64        2.0000           -0.3670429              -9.9877 (HOMO)
        65                         -0.2988223              -8.1314 (LUMO)
        66                         -0.2789750              -7.5913
        67                         -0.2516432              -6.8476
        68                         -0.2246397              -6.1128
        69                         -0.1893141              -5.1515
        70                         -0.1879056              -5.1132
        71                         -0.1408988              -3.8341
        72                         -0.1275450              -3.4707
        73                         -0.1186194              -3.2278
        74                         -0.1068658              -2.9080
        75                         -0.1033421              -2.8121
       ...                                ...                  ...
       124                          0.7354276              20.0120
      -------------------------------------------------------------
                  HL-Gap            0.0682206 Eh            1.8564 eV

Wiberg/Mayer (AO) data.
largest (>0.10) Wiberg bond orders for each atom

     #   Z sym  total        # sym  WBO       # sym  WBO       # sym  WBO
 ---------------------------------------------------------------------------
     1   6 C    3.884 --    27 H    0.987    25 H    0.980    26 H    0.980
                             2 O    0.910
     2   8 O    2.191 --     3 C    1.096     1 C    0.910     4 O    0.118
     3   6 C    3.834 --     4 O    1.586     2 O    1.096     5 C    1.051
     4   8 O    1.917 --     3 C    1.586     2 O    0.118
     5   6 C    3.962 --    23 C    1.457     6 N    1.202     3 C    1.051
     6   7 N    2.992 --     7 C    1.457     5 C    1.202
     7   6 C    3.958 --     6 N    1.457    20 N    1.380     8 C    0.958
     8   6 C    3.924 --    10 C    0.995     9 C    0.990     7 C    0.958
                            11 N    0.912
     9   6 C    3.994 --     8 C    0.990    30 H    0.986    28 H    0.985
                            29 H    0.984
    10   6 C    3.994 --     8 C    0.995    31 H    0.988    32 H    0.984
                            33 H    0.981
    11   7 N    3.372 --    12 C    1.283     8 C    0.912    34 H    0.901
                            13 O    0.186
    12   6 C    3.923 --    13 O    1.580    11 N    1.283    14 C    0.979
    13   8 O    1.890 --    12 C    1.580    11 N    0.186
    14   6 C    3.869 --    15 N    1.617    19 O    1.063    12 C    0.979
    15   7 N    3.010 --    14 C    1.617    16 N    1.191
    16   7 N    2.980 --    17 C    1.614    15 N    1.191
    17   6 C    3.874 --    16 N    1.614    19 O    1.080    18 C    1.030
    18   6 C    3.988 --    17 C    1.030    35 H    0.983    37 H    0.966
                            36 H    0.963
    19   8 O    2.326 --    17 C    1.080    14 C    1.063
    20   7 N    2.964 --     7 C    1.380    21 C    1.230    22 O    0.125
    21   6 C    3.930 --    22 O    1.497    20 N    1.230    23 C    1.070
    22   8 O    1.786 --    21 C    1.497    20 N    0.125
    23   6 C    3.903 --     5 C    1.457    24 O    1.075    21 C    1.070
    24   8 O    2.051 --    23 C    1.075    38 H    0.806
    25   1 H    1.010 --     1 C    0.980
    26   1 H    1.010 --     1 C    0.980
    27   1 H    1.013 --     1 C    0.987
    28   1 H    1.005 --     9 C    0.985
    29   1 H    1.007 --     9 C    0.984
    30   1 H    1.001 --     9 C    0.986
    31   1 H    1.004 --    10 C    0.988
    32   1 H    1.018 --    10 C    0.984
    33   1 H    1.018 --    10 C    0.981
    34   1 H    0.958 --    11 N    0.901
    35   1 H    0.999 --    18 C    0.983
    36   1 H    0.998 --    18 C    0.963
    37   1 H    0.997 --    18 C    0.966
    38   1 H    0.876 --    24 O    0.806
 ---------------------------------------------------------------------------

           -------------------------------------------------
          | TOTAL ENERGY              -79.612565727307 Eh   |
          | GRADIENT NORM               0.000680427263 Eh/α |
          | HOMO-LUMO GAP               1.856376087977 eV   |
           -------------------------------------------------

 * finished run on 2023/06/20 at 17:32:10.099
