   * xtb version 6.5.1 (579679a) compiled by 'ehlert@majestix' on 2022-07-11
          program call               : /lustre/hpc/kemi/ree/PhD/git/ReactivityQM/dep/xtb-6.5.1/bin/xtb --gfn 1 /lustre/hpc/kemi/ree/PhD/git/ReactivityQM/calculations/R02oxygendeprot/reac01prodE01/conf20/R02oxygendeprot_reac01prodE01_conf20_gfn1.xyz --opt --vfukui --chrg -2 --uhf 0 --alpb DMSO

   ID    Z sym.   atoms
    1    6 C      1, 3, 5, 7-10, 12, 13, 15, 18, 19, 22, 24
    2    8 O      2, 4, 14, 20, 23, 25
    3    7 N      6, 11, 16, 17, 21
    4    1 H      26-42

      * Solvation model:               ALPB
        Solvent                        DMSO
        Solvent mass                       7.8130E+01 g/mol
          :  Hamiltonian                  GFN1-xTB          :
 * total energy  :   -83.6274302 Eh     change       -0.2201261E-10 Eh
 * total energy  :   -83.6394676 Eh     change       -0.1203736E-01 Eh
 * total energy  :   -83.6433741 Eh     change       -0.3906466E-02 Eh
 * total energy  :   -83.6442562 Eh     change       -0.8820892E-03 Eh
 * total energy  :   -83.6447634 Eh     change       -0.5071969E-03 Eh
 * total energy  :   -83.6450033 Eh     change       -0.2399542E-03 Eh
 * total energy  :   -83.6451432 Eh     change       -0.1398520E-03 Eh
 * total energy  :   -83.6452091 Eh     change       -0.6595188E-04 Eh
 * total energy  :   -83.6452428 Eh     change       -0.3366137E-04 Eh
 * total energy  :   -83.6452664 Eh     change       -0.2366199E-04 Eh
 * total energy  :   -83.6453304 Eh     change       -0.1727307E-04 Eh
 * total energy  :   -83.6453636 Eh     change       -0.3329756E-04 Eh
 * total energy  :   -83.6453796 Eh     change       -0.1593698E-04 Eh
 * total energy  :   -83.6454049 Eh     change       -0.2535569E-04 Eh
 * total energy  :   -83.6454239 Eh     change       -0.1895417E-04 Eh
 * total energy  :   -83.6454314 Eh     change       -0.7537345E-05 Eh
 * total energy  :   -83.6454401 Eh     change       -0.8707564E-05 Eh
 * total energy  :   -83.6454452 Eh     change       -0.5096338E-05 Eh
 * total energy  :   -83.6454480 Eh     change       -0.2779041E-05 Eh
   *** GEOMETRY OPTIMIZATION CONVERGED AFTER 21 ITERATIONS ***

 final structure:
================
42
 xtb: 6.5.1 (579679a)
C            5.57794518172483        1.58198626845049       -1.60753812534795
O            4.47656257589499        0.90154758904691       -1.02893690975537
C            4.70271315158312        0.36051623493201        0.21370148466139
O            5.79539199337291        0.49828449146995        0.74734586652607
C            3.54586502361297       -0.33761709142356        0.73789883519041
N            2.42918918763085       -0.33331433545431       -0.08193821105752
C            1.34916517625751       -0.92459014908637        0.27536627567511
C            0.10326927082420       -0.90691615510392       -0.60105393562357
C            0.45459278744517       -0.16196576836322       -1.89921836132808
C           -0.27436806957161       -2.36540940653847       -0.92535089187643
N           -0.90625204885002       -0.14569243600088        0.15242240988826
C           -2.39295825673141       -0.46786976838435       -0.07388857200367
C           -2.80823590358308        0.07009844947814       -1.47944892793260
O           -2.74008223609484       -1.69626336760837        0.17918598744828
C           -3.03807954394351        0.52184234206893        0.96457274013517
N           -2.59148707497962        0.82290244210160        2.14361492053435
N           -3.55305602335064        1.60638317887467        2.75472025825481
C           -4.51662297339335        1.71966949125535        1.90522513226900
C           -5.78700722059738        2.46783868293829        2.07061279581330
O           -4.26250440242833        1.06268103025921        0.75623401871582
N            1.26121891133335       -1.58742276891395        1.48482016677246
C            2.28233016928613       -1.67806931989392        2.38803955863566
O            2.12176247855010       -2.30754882315148        3.43549844804622
C            3.56481945810701       -0.97396455055098        2.00636377165979
O            4.52462646279832       -1.00170225171210        2.80260781515712
H            5.25620762004608        1.94131422825524       -2.58436456236171
H            5.88468621343708        2.43066391990992       -0.98698401791134
H            6.43334234595826        0.90869962022936       -1.72790504767936
H            1.34732016930749       -0.59777500815367       -2.34860655036400
H           -0.35814367386850       -0.22396550592009       -2.61872817104510
H            0.65140807494886        0.88757067098411       -1.67878947865746
H           -1.10273487028627       -2.40485774753048       -1.62958428507267
H            0.58759162354043       -2.86599488481584       -1.36898111068901
H           -0.57101046953223       -2.89954079171692       -0.02412307109628
H           -0.77104216945761       -0.35584784604219        1.14514614003011
H           -3.89559259821143        0.10372495727813       -1.52707444503367
H           -2.45794779301499       -0.61187028286753       -2.25081918522131
H           -2.40905189843823        1.06803041133483       -1.65500011390491
H           -5.82850456682031        2.90048998755210        3.06710143378472
H           -5.85426887848915        3.26402295102297        1.32942469138076
H           -6.63870216709380        1.80316978068231        1.92863267102257
H            0.40764896307641       -2.07323946889226        1.71962955236117

          :  Hamiltonian                  GFN1-xTB          :
         :: total energy             -83.645448015274 Eh    ::
         :: gradient norm              0.000644487295 Eh/a0 ::
         :: HOMO-LUMO gap              2.114682587842 eV    ::
         :: SCC energy               -84.379927210072 Eh    ::
         :: -> Gsolv                  -0.267271613041 Eh    ::
         :: repulsion energy           0.760563088333 Eh    ::

    * Orbital Energies and Occupations

         #    Occupation            Energy/Eh            Energy/eV
      -------------------------------------------------------------
         1        2.0000           -0.8161791             -22.2094
       ...           ...                  ...                  ...
        56        2.0000           -0.4426755             -12.0458
        57        2.0000           -0.4406471             -11.9906
        58        2.0000           -0.4329921             -11.7823
        59        2.0000           -0.4280284             -11.6472
        60        2.0000           -0.4246307             -11.5548
        61        2.0000           -0.4108959             -11.1810
        62        2.0000           -0.4053520             -11.0302
        63        2.0000           -0.4001248             -10.8880
        64        2.0000           -0.3711653             -10.0999
        65        2.0000           -0.3658190              -9.9544
        66        2.0000           -0.3525841              -9.5943
        67        2.0000           -0.3400435              -9.2531
        68        2.0000           -0.3377895              -9.1917 (HOMO)
        69                         -0.2600763              -7.0770 (LUMO)
        70                         -0.2234272              -6.0798
        71                         -0.2206126              -6.0032
        72                         -0.2065402              -5.6202
        73                         -0.1865615              -5.0766
        74                         -0.1281938              -3.4883
        75                         -0.1195622              -3.2535
        76                         -0.1012617              -2.7555
        77                         -0.0972298              -2.6458
        78                         -0.0897019              -2.4409
        79                         -0.0797408              -2.1699
       ...                                ...                  ...
       134                          0.7695116              20.9395
      -------------------------------------------------------------
                  HL-Gap            0.0777132 Eh            2.1147 eV

Wiberg/Mayer (AO) data.
largest (>0.10) Wiberg bond orders for each atom

     #   Z sym  total        # sym  WBO       # sym  WBO       # sym  WBO
 ---------------------------------------------------------------------------
     1   6 C    3.904 --    26 H    0.987    27 H    0.980    28 H    0.980
                             2 O    0.932
     2   8 O    2.131 --     3 C    1.014     1 C    0.932     4 O    0.105
     3   6 C    3.848 --     4 O    1.581     5 C    1.132     2 O    1.014
     4   8 O    1.859 --     3 C    1.581     2 O    0.105
     5   6 C    3.919 --    24 C    1.274     6 N    1.144     3 C    1.132
                            25 O    0.130
     6   7 N    3.023 --     7 C    1.637     5 C    1.144
     7   6 C    3.923 --     6 N    1.637    21 N    1.090     8 C    0.973
     8   6 C    3.970 --     9 C    0.996    10 C    0.980     7 C    0.973
                            11 N    0.970
     9   6 C    3.997 --     8 C    0.996    29 H    0.986    31 H    0.986
                            30 H    0.983
    10   6 C    3.994 --    33 H    0.987    32 H    0.980     8 C    0.980
                            34 H    0.979
    11   7 N    2.965 --     8 C    0.970    35 H    0.945    12 C    0.851
    12   6 C    3.936 --    14 O    1.211    13 C    0.944    15 C    0.876
                            11 N    0.851
    13   6 C    3.992 --    38 H    0.990    36 H    0.985    37 H    0.981
                            12 C    0.944
    14   8 O    1.545 --    12 C    1.211
    15   6 C    3.800 --    16 N    1.654    20 O    1.045    12 C    0.876
    16   7 N    2.973 --    15 C    1.654    17 N    1.147
    17   7 N    2.976 --    18 C    1.657    16 N    1.147
    18   6 C    3.888 --    17 N    1.657    20 O    1.062    19 C    1.023
    19   6 C    3.993 --    18 C    1.023    39 H    0.985    41 H    0.971
                            40 H    0.970
    20   8 O    2.293 --    18 C    1.062    15 C    1.045
    21   7 N    3.437 --    22 C    1.178     7 C    1.090    42 H    0.897
                            23 O    0.136
    22   6 C    3.883 --    23 O    1.560    21 N    1.178    24 C    0.971
    23   8 O    1.839 --    22 C    1.560    21 N    0.136
    24   6 C    3.943 --    25 O    1.509     5 C    1.274    22 C    0.971
    25   8 O    1.813 --    24 C    1.509     5 C    0.130
    26   1 H    1.017 --     1 C    0.987
    27   1 H    1.015 --     1 C    0.980
    28   1 H    1.015 --     1 C    0.980
    29   1 H    1.018 --     9 C    0.986
    30   1 H    1.012 --     9 C    0.983
    31   1 H    1.022 --     9 C    0.986
    32   1 H    1.025 --    10 C    0.980
    33   1 H    1.008 --    10 C    0.987
    34   1 H    1.029 --    10 C    0.979
    35   1 H    0.997 --    11 N    0.945
    36   1 H    1.018 --    13 C    0.985
    37   1 H    1.018 --    13 C    0.981
    38   1 H    1.013 --    13 C    0.990
    39   1 H    1.003 --    19 C    0.985
    40   1 H    1.002 --    19 C    0.970
    41   1 H    1.002 --    19 C    0.971
    42   1 H    0.952 --    21 N    0.897
 ---------------------------------------------------------------------------

           -------------------------------------------------
          | TOTAL ENERGY              -83.645448015274 Eh   |
          | GRADIENT NORM               0.000644487295 Eh/α |
          | HOMO-LUMO GAP               2.114682587842 eV   |
           -------------------------------------------------

 * finished run on 2023/06/21 at 17:00:47.462
