   * xtb version 6.5.1 (579679a) compiled by 'ehlert@majestix' on 2022-07-11
          program call               : /lustre/hpc/kemi/ree/PhD/git/ReactivityQM/dep/xtb-6.5.1/bin/xtb --gfn 1 /lustre/hpc/kemi/ree/PhD/git/ReactivityQM/calculations/R01/reac02prodN05/conf07/R01_reac02prodN05_conf07_gfn1.xyz --opt --vfukui --chrg 1 --uhf 0 --alpb DMSO

   ID    Z sym.   atoms
    1    6 C      1, 3, 4, 6, 8-11, 14, 16
    2    8 O      2, 5, 15, 17
    3    7 N      7, 12, 13
    4    1 H      18-33

      * Solvation model:               ALPB
        Solvent                        DMSO
        Solvent mass                       7.8130E+01 g/mol
          :  Hamiltonian                  GFN1-xTB          :
 * total energy  :   -57.7019745 Eh     change       -0.1492396E-08 Eh
 * total energy  :   -57.7166339 Eh     change       -0.1465939E-01 Eh
 * total energy  :   -57.7246037 Eh     change       -0.7969732E-02 Eh
 * total energy  :   -57.7279566 Eh     change       -0.3352915E-02 Eh
 * total energy  :   -57.7324812 Eh     change       -0.4524614E-02 Eh
 * total energy  :   -57.7381059 Eh     change       -0.5624748E-02 Eh
 * total energy  :   -57.7461147 Eh     change       -0.8008733E-02 Eh
 * total energy  :   -57.7500136 Eh     change       -0.3898950E-02 Eh
 * total energy  :   -57.7535503 Eh     change       -0.3536675E-02 Eh
 * total energy  :   -57.7555609 Eh     change       -0.2010645E-02 Eh
 * total energy  :   -57.8427566 Eh     change       -0.5872579E-04 Eh
 * total energy  :   -57.8427943 Eh     change       -0.3765879E-04 Eh
 * total energy  :   -57.8428529 Eh     change       -0.5862108E-04 Eh
 * total energy  :   -57.8428809 Eh     change       -0.2796530E-04 Eh
 * total energy  :   -57.8428952 Eh     change       -0.1433446E-04 Eh
 * total energy  :   -57.8429044 Eh     change       -0.9232170E-05 Eh
 * total energy  :   -57.8429095 Eh     change       -0.5041367E-05 Eh
 * total energy  :   -57.8429176 Eh     change       -0.8140475E-05 Eh
 * total energy  :   -57.8429203 Eh     change       -0.2651135E-05 Eh
   *** GEOMETRY OPTIMIZATION CONVERGED AFTER 126 ITERATIONS ***

 final structure:
================
33
 xtb: 6.5.1 (579679a)
C           -1.94929051563807        1.54651470513918        0.87274176883685
O           -2.77212580190432        0.51526453860489        1.45072430346974
C           -2.85445483173520       -0.71053785260288        1.13331094543931
C           -3.90698613610886       -1.49972464712026        1.81974945666465
O           -2.16290830396353       -1.34088547294635        0.26179206541056
C           -1.03100800014253       -0.96291744148794       -0.48836807821526
N            0.00599249731533       -0.43861457301949        0.20169453481629
C            1.10556202882500       -0.16747865842371       -0.44321704996446
C            2.26132467349036        0.47235666905407        0.29038600937367
C            3.61039051223422       -0.10208542587909       -0.15585662981955
C            2.19686554964579        1.98882573121681        0.01312934944755
N            2.09466684551780        0.20127068259907        1.71094203644081
N            1.21030382916681       -0.38909600379974       -1.77884802758896
C            0.20559109869151       -0.92467739853265       -2.56486380262689
O            0.33651717712337       -1.10980441650633       -3.76097843604331
C           -1.00280372523842       -1.24396471303455       -1.81995035190741
O           -2.04278670511079       -1.76758821181811       -2.48786513100954
H           -2.37261883761847        2.48432135728214        1.22758438684771
H           -0.92633943853254        1.42437990052031        1.22877989985502
H           -1.98083079156102        1.48918080489921       -0.21377430923219
H           -3.56101235911006       -2.51681055437487        1.99451859590152
H           -4.77547033522687       -1.54478470841703        1.15807717822366
H           -4.19802234109786       -1.01233354631240        2.74747513904990
H            4.39746588017148        0.32239673363506        0.46550718582506
H            3.61254112875855       -1.18484598955840       -0.03620394986575
H            3.82039116273589        0.14772742805439       -1.19416908766889
H            1.25741054732862        2.39058804909056        0.38872161334595
H            3.02144486874742        2.48578997560048        0.52102253914109
H            2.26549202524888        2.18401395869184       -1.05560632638042
H            1.15568572737770        0.46179769590838        1.98640212630342
H            2.74086749772704        0.78052218316479        2.23157633167121
H            2.05832435335964       -0.14232530437660       -2.27093550831935
H           -1.82018028046879       -1.83647749526056       -3.43349977745836

          :  Hamiltonian                  GFN1-xTB          :
         :: total energy             -57.842920258208 Eh    ::
         :: gradient norm              0.000613275278 Eh/a0 ::
         :: HOMO-LUMO gap              1.692885551924 eV    ::
         :: SCC energy               -58.424295790987 Eh    ::
         :: -> Gsolv                  -0.096988129185 Eh    ::
         :: repulsion energy           0.600456328064 Eh    ::

    * Orbital Energies and Occupations

         #    Occupation            Energy/Eh            Energy/eV
      -------------------------------------------------------------
         1        2.0000           -0.9276005             -25.2413
       ...           ...                  ...                  ...
        35        2.0000           -0.5574402             -15.1687
        36        2.0000           -0.5505975             -14.9825
        37        2.0000           -0.5448968             -14.8274
        38        2.0000           -0.5327055             -14.4957
        39        2.0000           -0.5241406             -14.2626
        40        2.0000           -0.5139591             -13.9855
        41        2.0000           -0.5082753             -13.8309
        42        2.0000           -0.5063043             -13.7772
        43        2.0000           -0.4995942             -13.5946
        44        2.0000           -0.4833382             -13.1523
        45        2.0000           -0.4820847             -13.1182
        46        2.0000           -0.4484946             -12.2042
        47        2.0000           -0.4225209             -11.4974 (HOMO)
        48                         -0.3603085              -9.8045 (LUMO)
        49                         -0.3203086              -8.7160
        50                         -0.2999601              -8.1623
        51                         -0.1942654              -5.2862
        52                         -0.1824882              -4.9658
        53                         -0.1680150              -4.5719
        54                         -0.1465821              -3.9887
        55                         -0.1321859              -3.5970
        56                         -0.1196952              -3.2571
        57                         -0.1145171              -3.1162
        58                         -0.1110272              -3.0212
       ...                                ...                  ...
       100                          0.6967068              18.9584
      -------------------------------------------------------------
                  HL-Gap            0.0622124 Eh            1.6929 eV

Wiberg/Mayer (AO) data.
largest (>0.10) Wiberg bond orders for each atom

     #   Z sym  total        # sym  WBO       # sym  WBO       # sym  WBO
 ---------------------------------------------------------------------------
     1   6 C    3.808 --    18 H    0.977    20 H    0.976    19 H    0.960
                             2 O    0.833
     2   8 O    2.341 --     3 C    1.326     1 C    0.833     5 O    0.108
     3   6 C    3.774 --     2 O    1.326     5 O    1.273     4 C    1.020
     4   6 C    3.961 --     3 C    1.020    23 H    0.970    21 H    0.961
                            22 H    0.926
     5   8 O    2.353 --     3 C    1.273     6 C    0.862     2 O    0.108
     6   6 C    3.835 --    16 C    1.499     7 N    1.213     5 O    0.862
     7   7 N    3.032 --     8 C    1.511     6 C    1.213
     8   6 C    3.909 --     7 N    1.511    13 N    1.207     9 C    0.984
     9   6 C    3.966 --    12 N    0.996    10 C    0.990     8 C    0.984
                            11 C    0.961
    10   6 C    3.992 --     9 C    0.990    25 H    0.985    24 H    0.982
                            26 H    0.982
    11   6 C    3.990 --    29 H    0.984    27 H    0.984    28 H    0.980
                             9 C    0.961
    12   7 N    2.953 --     9 C    0.996    31 H    0.940    30 H    0.940
    13   7 N    3.471 --     8 C    1.207    14 C    1.111    32 H    0.875
                            15 O    0.129
    14   6 C    3.915 --    15 O    1.595    13 N    1.111    16 C    1.076
    15   8 O    1.916 --    14 C    1.595    13 N    0.129
    16   6 C    3.928 --     6 C    1.499    17 O    1.092    14 C    1.076
    17   8 O    2.061 --    16 C    1.092    33 H    0.803
    18   1 H    0.999 --     1 C    0.977
    19   1 H    1.018 --     1 C    0.960
    20   1 H    0.999 --     1 C    0.976
    21   1 H    0.988 --     4 C    0.961
    22   1 H    0.983 --     4 C    0.926
    23   1 H    0.988 --     4 C    0.970
    24   1 H    0.999 --    10 C    0.982
    25   1 H    1.004 --    10 C    0.985
    26   1 H    0.999 --    10 C    0.982
    27   1 H    1.003 --    11 C    0.984
    28   1 H    0.998 --    11 C    0.980
    29   1 H    0.999 --    11 C    0.984
    30   1 H    0.971 --    12 N    0.940
    31   1 H    0.954 --    12 N    0.940
    32   1 H    0.922 --    13 N    0.875
    33   1 H    0.834 --    17 O    0.803
 ---------------------------------------------------------------------------

           -------------------------------------------------
          | TOTAL ENERGY              -57.842920258208 Eh   |
          | GRADIENT NORM               0.000613275278 Eh/α |
          | HOMO-LUMO GAP               1.692885551924 eV   |
           -------------------------------------------------

 * finished run on 2023/06/20 at 15:06:39.596
