   * xtb version 6.5.1 (579679a) compiled by 'ehlert@majestix' on 2022-07-11
          program call               : /lustre/hpc/kemi/ree/PhD/git/ReactivityQM/dep/xtb-6.5.1/bin/xtb --gfn 1 /lustre/hpc/kemi/ree/PhD/git/ReactivityQM/calculations/R02methylcation/reac01prodN09/conf04/R02methylcation_reac01prodN09_conf04_gfn1.xyz --opt --vfukui --chrg 0 --uhf 0 --alpb DMSO

   ID    Z sym.   atoms
    1    6 C      1, 3, 4, 6, 8-11, 13, 15, 18, 19, 22, 24
    2    8 O      2, 5, 14, 20, 23, 25
    3    7 N      7, 12, 16, 17, 21
    4    1 H      26-42

      * Solvation model:               ALPB
        Solvent                        DMSO
        Solvent mass                       7.8130E+01 g/mol
          :  Hamiltonian                  GFN1-xTB          :
 * total energy  :   -82.8655599 Eh     change       -0.3412183E-08 Eh
 * total energy  :   -82.8786887 Eh     change       -0.1312876E-01 Eh
 * total energy  :   -82.8853415 Eh     change       -0.6652835E-02 Eh
 * total energy  :   -82.8871295 Eh     change       -0.1787959E-02 Eh
 * total energy  :   -82.8888945 Eh     change       -0.1764985E-02 Eh
 * total energy  :   -82.8908348 Eh     change       -0.1940300E-02 Eh
 * total energy  :   -82.8931805 Eh     change       -0.2345680E-02 Eh
 * total energy  :   -82.8962557 Eh     change       -0.3075244E-02 Eh
 * total energy  :   -82.9003958 Eh     change       -0.4140090E-02 Eh
 * total energy  :   -82.9061854 Eh     change       -0.5789610E-02 Eh
 * total energy  :   -83.0047226 Eh     change       -0.5832388E-05 Eh
 * total energy  :   -83.0047278 Eh     change       -0.5271284E-05 Eh
 * total energy  :   -83.0047336 Eh     change       -0.5795527E-05 Eh
 * total energy  :   -83.0047411 Eh     change       -0.7444992E-05 Eh
 * total energy  :   -83.0047498 Eh     change       -0.8733330E-05 Eh
 * total energy  :   -83.0047581 Eh     change       -0.8347088E-05 Eh
 * total energy  :   -83.0047648 Eh     change       -0.6619258E-05 Eh
 * total energy  :   -83.0047700 Eh     change       -0.5242336E-05 Eh
 * total energy  :   -83.0047746 Eh     change       -0.4589435E-05 Eh
   *** GEOMETRY OPTIMIZATION CONVERGED AFTER 117 ITERATIONS ***

 final structure:
================
42
 xtb: 6.5.1 (579679a)
C           -3.19870447312521        3.26653997749464       -1.63778819246799
O           -2.95798769180388        2.37170608744012       -0.53931883263972
C           -2.37632176390991        1.22525605731663       -0.81428295411128
C           -2.18671390399589        1.20007371342855        1.73587724565438
O           -2.05056063886813        0.85179647656466       -1.90925004672778
C           -2.17865615169106        0.35530365482548        0.46279665532163
N           -0.89201337111962       -0.28177330539736        0.30471217920113
C           -0.78159596282128       -1.39182154420879       -0.29764164989602
C            0.58845657831673       -2.00132564673674       -0.52387383359981
C            0.69991800232778       -3.31404783547524        0.26486000054183
C            0.82656612052693       -2.22563557274794       -2.02389053107961
N            1.55768145531279       -1.03310290281227       -0.01917053704806
C            2.88798096128621       -1.22805460597475       -0.03029660427965
O            3.45500759340820       -2.23336659876354       -0.42963685993872
C            3.64255087999215       -0.06417722779315        0.50279730582822
N            4.92561946171862        0.03741723584403        0.65976417620681
N            5.16442438006946        1.28461685877746        1.15498786167572
C            4.01257053826323        1.86840365754186        1.26802542383405
C            3.73733088938982        3.23785636399471        1.75392239436920
O            3.00671508675832        1.06910790142369        0.87397801223361
N           -1.86310802042363       -2.12955422987735       -0.75969601244719
C           -3.16251252920543       -1.85105020626513       -0.45678539387721
O           -4.08181423462791       -2.54101423047033       -0.83310929687969
C           -3.35152283762242       -0.60748736086748        0.42051199244204
O           -4.38667907259627       -0.39966204829651        0.99601644241694
H           -3.84299512889292        2.78342092235323       -2.37481874148624
H           -2.24998208931451        3.54111012559548       -2.10209963900590
H           -3.68562850261905        4.14263462486187       -1.21609316000798
H           -1.95084168460486        0.56535101253979        2.58766141646480
H           -1.44012004464909        1.98618926202784        1.65949089790752
H           -3.16949061572310        1.64457404595041        1.87996215114883
H           -0.07230939138611       -4.00755925694742       -0.06103565425721
H            1.67488718594119       -3.76645424724708        0.09216105896021
H            0.57797320155547       -3.11881544665536        1.32901391054661
H            1.83194784567511       -2.61298560505411       -2.17939306432293
H            0.71643970185037       -1.28520568642810       -2.56164965863346
H            0.11271062451624       -2.94730120415374       -2.41433854024149
H            1.17839349883092       -0.16620975381857        0.34024176750144
H            4.67487529586275        3.74280900179184        1.97398233428166
H            3.12493854735559        3.19808053572438        2.65446985410063
H            3.18817717412397        3.79721804137919        0.99721856733616
H           -1.70560791409327       -2.96286304087183       -1.30647444502465

          :  Hamiltonian                  GFN1-xTB          :
         :: total energy             -83.004774598221 Eh    ::
         :: gradient norm              0.000213792291 Eh/a0 ::
         :: HOMO-LUMO gap              2.418181627303 eV    ::
         :: SCC energy               -83.792715201673 Eh    ::
         :: -> Gsolv                  -0.054363467172 Eh    ::
         :: repulsion energy           0.814643166555 Eh    ::

    * Orbital Energies and Occupations

         #    Occupation            Energy/Eh            Energy/eV
      -------------------------------------------------------------
         1        2.0000           -0.8652095             -23.5435
       ...           ...                  ...                  ...
        55        2.0000           -0.5110440             -13.9062
        56        2.0000           -0.5054993             -13.7553
        57        2.0000           -0.5044739             -13.7274
        58        2.0000           -0.5031855             -13.6924
        59        2.0000           -0.4923188             -13.3967
        60        2.0000           -0.4798191             -13.0565
        61        2.0000           -0.4712447             -12.8232
        62        2.0000           -0.4636241             -12.6159
        63        2.0000           -0.4619255             -12.5696
        64        2.0000           -0.4588382             -12.4856
        65        2.0000           -0.4514228             -12.2838
        66        2.0000           -0.4476401             -12.1809
        67        2.0000           -0.4420472             -12.0287 (HOMO)
        68                         -0.3531807              -9.6105 (LUMO)
        69                         -0.3095444              -8.4231
        70                         -0.2981422              -8.1129
        71                         -0.2703763              -7.3573
        72                         -0.2567720              -6.9871
        73                         -0.2261411              -6.1536
        74                         -0.1975424              -5.3754
        75                         -0.1461747              -3.9776
        76                         -0.1430438              -3.8924
        77                         -0.1420754              -3.8661
        78                         -0.1258986              -3.4259
       ...                                ...                  ...
       134                          0.7589260              20.6514
      -------------------------------------------------------------
                  HL-Gap            0.0888665 Eh            2.4182 eV

Wiberg/Mayer (AO) data.
largest (>0.10) Wiberg bond orders for each atom

     #   Z sym  total        # sym  WBO       # sym  WBO       # sym  WBO
 ---------------------------------------------------------------------------
     1   6 C    3.852 --    28 H    0.985    26 H    0.980    27 H    0.980
                             2 O    0.874
     2   8 O    2.233 --     3 C    1.159     1 C    0.874     5 O    0.140
     3   6 C    3.845 --     5 O    1.696     2 O    1.159     6 C    0.863
     4   6 C    3.984 --    30 H    0.984    29 H    0.983     6 C    0.983
                            31 H    0.982
     5   8 O    1.964 --     3 C    1.696     2 O    0.140
     6   6 C    3.962 --     4 C    0.983     7 N    0.978    24 C    0.949
                             3 C    0.863
     7   7 N    3.048 --     8 C    1.752     6 C    0.978
     8   6 C    3.926 --     7 N    1.752    21 N    1.071     9 C    0.980
     9   6 C    3.939 --     8 C    0.980    11 C    0.979    10 C    0.977
                            12 N    0.937
    10   6 C    3.986 --    34 H    0.985    32 H    0.984    33 H    0.977
                             9 C    0.977
    11   6 C    3.987 --    36 H    0.985    37 H    0.982     9 C    0.979
                            35 H    0.978
    12   7 N    3.360 --    13 C    1.269     9 C    0.937    38 H    0.876
                            14 O    0.179
    13   6 C    3.919 --    14 O    1.577    12 N    1.269    15 C    0.990
    14   8 O    1.897 --    13 C    1.577    12 N    0.179
    15   6 C    3.872 --    16 N    1.624    20 O    1.047    13 C    0.990
    16   7 N    2.999 --    15 C    1.624    17 N    1.197
    17   7 N    2.982 --    18 C    1.613    16 N    1.197
    18   6 C    3.869 --    17 N    1.613    20 O    1.072    19 C    1.031
    19   6 C    3.987 --    18 C    1.031    39 H    0.982    41 H    0.964
                            40 H    0.962
    20   8 O    2.315 --    18 C    1.072    15 C    1.047
    21   7 N    3.429 --    22 C    1.184     8 C    1.071    42 H    0.880
                            23 O    0.149
    22   6 C    3.892 --    23 O    1.676    21 N    1.184    24 C    0.906
    23   8 O    1.960 --    22 C    1.676    21 N    0.149
    24   6 C    3.848 --    25 O    1.813     6 C    0.949    22 C    0.906
    25   8 O    2.028 --    24 C    1.813
    26   1 H    1.004 --     1 C    0.980
    27   1 H    1.003 --     1 C    0.980
    28   1 H    1.007 --     1 C    0.985
    29   1 H    1.001 --     4 C    0.983
    30   1 H    1.003 --     4 C    0.984
    31   1 H    1.007 --     4 C    0.982
    32   1 H    0.999 --    10 C    0.984
    33   1 H    1.008 --    10 C    0.977
    34   1 H    1.001 --    10 C    0.985
    35   1 H    1.007 --    11 C    0.978
    36   1 H    1.000 --    11 C    0.985
    37   1 H    0.998 --    11 C    0.982
    38   1 H    0.955 --    12 N    0.876
    39   1 H    0.998 --    19 C    0.982
    40   1 H    0.997 --    19 C    0.962
    41   1 H    0.997 --    19 C    0.964
    42   1 H    0.928 --    21 N    0.880
 ---------------------------------------------------------------------------

           -------------------------------------------------
          | TOTAL ENERGY              -83.004774598221 Eh   |
          | GRADIENT NORM               0.000213792291 Eh/α |
          | HOMO-LUMO GAP               2.418181627303 eV   |
           -------------------------------------------------

 * finished run on 2023/06/21 at 17:40:56.868
