   * xtb version 6.5.1 (579679a) compiled by 'ehlert@majestix' on 2022-07-11
          program call               : /lustre/hpc/kemi/ree/PhD/git/ReactivityQM/dep/xtb-6.5.1/bin/xtb --gfn 1 /lustre/hpc/kemi/ree/PhD/git/ReactivityQM/calculations/R02/reac01/conf01/R02_reac01_conf01_gfn1.xyz --opt --vfukui --chrg 0 --uhf 0 --alpb DMSO

   ID    Z sym.   atoms
    1    6 C      1, 3, 5, 7-10, 12, 14, 17, 18, 21, 23
    2    8 O      2, 4, 13, 19, 22, 24
    3    7 N      6, 11, 15, 16, 20
    4    1 H      25-39

      * Solvation model:               ALPB
        Solvent                        DMSO
        Solvent mass                       7.8130E+01 g/mol
          :  Hamiltonian                  GFN1-xTB          :
 * total energy  :   -79.8112982 Eh     change       -0.1413980E-10 Eh
 * total energy  :   -79.8227231 Eh     change       -0.1142494E-01 Eh
 * total energy  :   -79.8270879 Eh     change       -0.4364786E-02 Eh
 * total energy  :   -79.8278079 Eh     change       -0.7200362E-03 Eh
 * total energy  :   -79.8281263 Eh     change       -0.3183778E-03 Eh
 * total energy  :   -79.8282484 Eh     change       -0.1221120E-03 Eh
 * total energy  :   -79.8283654 Eh     change       -0.1169774E-03 Eh
 * total energy  :   -79.8284621 Eh     change       -0.9670350E-04 Eh
 * total energy  :   -79.8285378 Eh     change       -0.7571808E-04 Eh
 * total energy  :   -79.8285867 Eh     change       -0.4886501E-04 Eh
 * total energy  :   -79.8292076 Eh     change       -0.5195115E-05 Eh
 * total energy  :   -79.8292149 Eh     change       -0.7292775E-05 Eh
 * total energy  :   -79.8292329 Eh     change       -0.1799795E-04 Eh
 * total energy  :   -79.8292405 Eh     change       -0.7579277E-05 Eh
 * total energy  :   -79.8292489 Eh     change       -0.8431483E-05 Eh
 * total energy  :   -79.8292635 Eh     change       -0.1456336E-04 Eh
 * total energy  :   -79.8292733 Eh     change       -0.9823436E-05 Eh
 * total energy  :   -79.8292768 Eh     change       -0.3476552E-05 Eh
 * total energy  :   -79.8292794 Eh     change       -0.2582116E-05 Eh
   *** GEOMETRY OPTIMIZATION CONVERGED AFTER 53 ITERATIONS ***

 final structure:
================
39
 xtb: 6.5.1 (579679a)
C            6.38504811628366        1.86261351988115       -0.34000343519626
O            5.24073128996012        1.32045080031592        0.32550381170015
C            4.22881681625674        0.93899257136112       -0.44984597453173
O            4.24557280618021        1.03209338133697       -1.65619925985650
C            3.07042007964341        0.38693769285833        0.31489966450924
N            2.02476466831964       -0.00620954043110       -0.48657470716525
C            0.95327150176338       -0.48913984951542        0.03739384154499
C           -0.18219666926267       -0.96204494967000       -0.84404499353212
C            0.00123632374180       -0.43673909377064       -2.27081535882324
C           -0.20691084032547       -2.49798120109459       -0.81435128192132
N           -1.42407507420746       -0.42963046961892       -0.27120974995341
C           -2.64668427319006       -0.69049723074274       -0.78901952069414
O           -2.88294966026401       -1.46631102066302       -1.69611624794385
C           -3.69129637741461        0.10052039903901       -0.09006703833235
N           -3.48965248552521        0.97944047393776        0.84590658072874
N           -4.71131571090644        1.47229775562434        1.19156074177067
C           -5.58111355951164        0.86366414149165        0.44219665874818
C           -7.04880018670916        1.04920966915851        0.42970959282554
O           -4.99793338820388       -0.01268712663429       -0.38856236620102
N            0.80505968324650       -0.64124934030116        1.38921181559390
C            1.77981019622427       -0.28839755744707        2.28921226968567
O            1.64820846105867       -0.42287098736266        3.49655097628108
C            2.98650158504539        0.26433529239611        1.67519239699513
O            3.95222367854199        0.61784823609395        2.52976298471888
H            7.11856713414741        2.08412237529029        0.43241127312129
H            6.11020432488082        2.77495486988076       -0.87488996658829
H            6.78722050610480        1.13495717922865       -1.04904941058027
H           -0.80337794297401       -0.80086689851020       -2.90648326649230
H           -0.00539540231945        0.65217132075461       -2.26878846761526
H            0.95551410308143       -0.78401230674143       -2.66393034344331
H           -0.42802442134206       -2.84720644706846        0.19230664687371
H           -0.96655359589502       -2.87493034848830       -1.49609250067580
H            0.76603822577850       -2.88103447704053       -1.11851071132386
H           -1.35674495027479        0.30720237915999        0.41422204964945
H           -7.35948153481579        1.49634841394517       -0.51526363862345
H           -7.54691206212807        0.08501146304072        0.52667738865058
H           -7.34200572500584        1.69979348359062        1.25016261675395
H           -0.04439579272140       -1.03218599248078        1.76718594546377
H            3.65661115274670        0.43063541920221        3.43975198388521

          :  Hamiltonian                  GFN1-xTB          :
         :: total energy             -79.829279357215 Eh    ::
         :: gradient norm              0.000597925724 Eh/a0 ::
         :: HOMO-LUMO gap              2.939254690715 eV    ::
         :: SCC energy               -80.578268033977 Eh    ::
         :: -> Gsolv                  -0.055532726969 Eh    ::
         :: repulsion energy           0.772139886081 Eh    ::

    * Orbital Energies and Occupations

         #    Occupation            Energy/Eh            Energy/eV
      -------------------------------------------------------------
         1        2.0000           -0.8647326             -23.5306
       ...           ...                  ...                  ...
        52        2.0000           -0.5069683             -13.7953
        53        2.0000           -0.5030282             -13.6881
        54        2.0000           -0.4984717             -13.5641
        55        2.0000           -0.4916066             -13.3773
        56        2.0000           -0.4882667             -13.2864
        57        2.0000           -0.4839793             -13.1697
        58        2.0000           -0.4695842             -12.7780
        59        2.0000           -0.4631406             -12.6027
        60        2.0000           -0.4619826             -12.5712
        61        2.0000           -0.4541707             -12.3586
        62        2.0000           -0.4533668             -12.3367
        63        2.0000           -0.4493820             -12.2283
        64        2.0000           -0.4353383             -11.8462 (HOMO)
        65                         -0.3273227              -8.9069 (LUMO)
        66                         -0.3128281              -8.5125
        67                         -0.2879956              -7.8368
        68                         -0.2579030              -7.0179
        69                         -0.2431964              -6.6177
        70                         -0.2008335              -5.4650
        71                         -0.1616562              -4.3989
        72                         -0.1423683              -3.8740
        73                         -0.1391219              -3.7857
        74                         -0.1313193              -3.5734
        75                         -0.1246188              -3.3910
       ...                                ...                  ...
       126                          0.7292365              19.8435
      -------------------------------------------------------------
                  HL-Gap            0.1080156 Eh            2.9393 eV

Wiberg/Mayer (AO) data.
largest (>0.10) Wiberg bond orders for each atom

     #   Z sym  total        # sym  WBO       # sym  WBO       # sym  WBO
 ---------------------------------------------------------------------------
     1   6 C    3.871 --    25 H    0.986    27 H    0.979    26 H    0.979
                             2 O    0.896
     2   8 O    2.205 --     3 C    1.117     1 C    0.896     4 O    0.135
     3   6 C    3.852 --     4 O    1.657     2 O    1.117     5 C    0.997
     4   8 O    1.920 --     3 C    1.657     2 O    0.135
     5   6 C    3.963 --    23 C    1.508     6 N    1.173     3 C    0.997
     6   7 N    3.029 --     7 C    1.602     5 C    1.173
     7   6 C    3.929 --     6 N    1.602    20 N    1.157     8 C    0.981
     8   6 C    3.933 --     9 C    0.991     7 C    0.981    10 C    0.976
                            11 N    0.921
     9   6 C    3.989 --     8 C    0.991    29 H    0.985    30 H    0.983
                            28 H    0.982
    10   6 C    3.987 --    33 H    0.985    31 H    0.984    32 H    0.977
                             8 C    0.976
    11   7 N    3.330 --    12 C    1.239     8 C    0.921    34 H    0.894
                            13 O    0.174
    12   6 C    3.915 --    13 O    1.602    11 N    1.239    14 C    0.990
    13   8 O    1.918 --    12 C    1.602    11 N    0.174
    14   6 C    3.876 --    15 N    1.609    19 O    1.065    12 C    0.990
    15   7 N    3.018 --    14 C    1.609    16 N    1.202
    16   7 N    2.981 --    17 C    1.603    15 N    1.202
    17   6 C    3.870 --    16 N    1.603    19 O    1.084    18 C    1.032
    18   6 C    3.986 --    17 C    1.032    37 H    0.982    36 H    0.966
                            35 H    0.960
    19   8 O    2.332 --    17 C    1.084    14 C    1.065
    20   7 N    3.465 --     7 C    1.157    21 C    1.140    38 H    0.881
                            22 O    0.134
    21   6 C    3.910 --    22 O    1.578    20 N    1.140    23 C    1.060
    22   8 O    1.902 --    21 C    1.578    20 N    0.134
    23   6 C    3.920 --     5 C    1.508    24 O    1.109    21 C    1.060
    24   8 O    2.087 --    23 C    1.109    39 H    0.806
    25   1 H    1.011 --     1 C    0.986
    26   1 H    1.007 --     1 C    0.979
    27   1 H    1.007 --     1 C    0.979
    28   1 H    1.007 --     9 C    0.982
    29   1 H    1.005 --     9 C    0.985
    30   1 H    1.009 --     9 C    0.983
    31   1 H    1.001 --    10 C    0.984
    32   1 H    1.009 --    10 C    0.977
    33   1 H    1.001 --    10 C    0.985
    34   1 H    0.951 --    11 N    0.894
    35   1 H    0.997 --    18 C    0.960
    36   1 H    0.996 --    18 C    0.966
    37   1 H    0.998 --    18 C    0.982
    38   1 H    0.925 --    20 N    0.881
    39   1 H    0.845 --    24 O    0.806
 ---------------------------------------------------------------------------

           -------------------------------------------------
          | TOTAL ENERGY              -79.829279357215 Eh   |
          | GRADIENT NORM               0.000597925724 Eh/α |
          | HOMO-LUMO GAP               2.939254690715 eV   |
           -------------------------------------------------

 * finished run on 2023/06/20 at 14:52:03.868
