                         Program Version 5.0.1 -  RELEASE  -
|  1> # ORCA input file
|  2> ! SP r2SCAN-3c CPCM
|  3>
|  4> %maxcore 1875.0
|  5> %pal nprocs 4 end
|  6> %cpcm smd true SMDsolvent "DMSO" end
|  7>
|  8> *xyz 1 1
|  9> C      -4.319821    0.444809   -2.693148
| 10> N      -3.082912    0.792026   -1.985239
| 11> C      -2.679300    0.199526   -0.823130
| 12> C      -3.518791   -0.845151   -0.097743
| 13> C      -2.696318   -1.444337    1.054919
| 14> C      -4.780996   -0.185045    0.474402
| 15> N      -3.894835   -1.913689   -1.012490
| 16> N      -1.566922    0.537782   -0.240390
| 17> C      -0.766955    1.503985   -0.773317
| 18> C       0.487042    1.808229   -0.056360
| 19> O       1.291949    2.653563   -0.447521
| 20> N       0.676069    1.090279    1.069482
| 21> C       1.869508    1.257580    1.880239
| 22> C       2.894593    0.250308    1.458164
| 23> C       3.393650    0.278094    0.133280
| 24> C       4.313861   -0.630480   -0.285151
| 25> C       4.942308   -1.552183    0.685266
| 26> C       6.313312   -0.899422    1.063580
| 27> F       5.251430   -2.757486    0.119770
| 28> C       4.208638   -1.712187    1.957817
| 29> C       3.296757   -0.777991    2.341950
| 30> C      -1.112695    2.162854   -1.925877
| 31> O      -0.375146    3.122494   -2.485774
| 32> C      -2.357028    1.812897   -2.604637
| 33> O      -2.770183    2.340061   -3.626141
| 34> H      -5.089176    1.180569   -2.457449
| 35> H      -4.643704   -0.550512   -2.404260
| 36> H      -4.117370    0.469427   -3.764607
| 37> H      -2.445860   -0.671086    1.778703
| 38> H      -1.774892   -1.877805    0.671951
| 39> H      -3.276977   -2.221800    1.547911
| 40> H      -5.438282    0.162738   -0.319879
| 41> H      -4.502337    0.662234    1.099633
| 42> H      -5.322854   -0.907216    1.083104
| 43> H      -4.542836   -2.544543   -0.564281
| 44> H      -3.079707   -2.430807   -1.307209
| 45> H       0.040004    0.337938    1.288812
| 46> H       2.250278    2.269283    1.695519
| 47> H       1.604947    1.144609    2.932081
| 48> H       3.001604    1.020061   -0.553327
| 49> H       4.685300   -0.647182   -1.302812
| 50> H       6.161029    0.068759    1.531214
| 51> H       6.895339   -0.788656    0.151531
| 52> H       6.825740   -1.570217    1.749102
| 53> H       4.488178   -2.539888    2.598386
| 54> H       2.825067   -0.845091    3.315362
| 55> H       0.439296    3.268948   -1.951438
| 56> **                         ****END OF INPUT****

CARTESIAN COORDINATES (ANGSTROEM)
---------------------------------
  C     -4.319821    0.444809   -2.693148
  N     -3.082912    0.792026   -1.985239
  C     -2.679300    0.199526   -0.823130
  C     -3.518791   -0.845151   -0.097743
  C     -2.696318   -1.444337    1.054919
  C     -4.780996   -0.185045    0.474402
  N     -3.894835   -1.913689   -1.012490
  N     -1.566922    0.537782   -0.240390
  C     -0.766955    1.503985   -0.773317
  C      0.487042    1.808229   -0.056360
  O      1.291949    2.653563   -0.447521
  N      0.676069    1.090279    1.069482
  C      1.869508    1.257580    1.880239
  C      2.894593    0.250308    1.458164
  C      3.393650    0.278094    0.133280
  C      4.313861   -0.630480   -0.285151
  C      4.942308   -1.552183    0.685266
  C      6.313312   -0.899422    1.063580
  F      5.251430   -2.757486    0.119770
  C      4.208638   -1.712187    1.957817
  C      3.296757   -0.777991    2.341950
  C     -1.112695    2.162854   -1.925877
  O     -0.375146    3.122494   -2.485774
  C     -2.357028    1.812897   -2.604637
  O     -2.770183    2.340061   -3.626141
  H     -5.089176    1.180569   -2.457449
  H     -4.643704   -0.550512   -2.404260
  H     -4.117370    0.469427   -3.764607
  H     -2.445860   -0.671086    1.778703
  H     -1.774892   -1.877805    0.671951
  H     -3.276977   -2.221800    1.547911
  H     -5.438282    0.162738   -0.319879
  H     -4.502337    0.662234    1.099633
  H     -5.322854   -0.907216    1.083104
  H     -4.542836   -2.544543   -0.564281
  H     -3.079707   -2.430807   -1.307209
  H      0.040004    0.337938    1.288812
  H      2.250278    2.269283    1.695519
  H      1.604947    1.144609    2.932081
  H      3.001604    1.020061   -0.553327
  H      4.685300   -0.647182   -1.302812
  H      6.161029    0.068759    1.531214
  H      6.895339   -0.788656    0.151531
  H      6.825740   -1.570217    1.749102
  H      4.488178   -2.539888    2.598386
  H      2.825067   -0.845091    3.315362
  H      0.439296    3.268948   -1.951438

 Total Charge           Charge          ....    1
 Multiplicity           Mult            ....    1
 Number of Electrons    NEL             ....  184
 Basis Dimension        Dim             ....  625

ORBITAL ENERGIES
----------------

  NO   OCC          E(Eh)            E(eV)
   0   2.0000     -24.506299      -666.8503
   1   2.0000     -18.994464      -516.8656
   2   2.0000     -18.949791      -515.6500
   3   2.0000     -18.928811      -515.0791
   4   2.0000     -14.236386      -387.3918
   5   2.0000     -14.211479      -386.7140
   6   2.0000     -14.164015      -385.4224
   7   2.0000     -14.135656      -384.6508
   8   2.0000     -10.166668      -276.6491
   9   2.0000     -10.155183      -276.3366
  10   2.0000     -10.144034      -276.0332
  11   2.0000     -10.130293      -275.6593
  12   2.0000     -10.121538      -275.4210
  13   2.0000     -10.120740      -275.3993
  14   2.0000     -10.107767      -275.0463
  15   2.0000     -10.104345      -274.9532
  16   2.0000     -10.096580      -274.7419
  17   2.0000     -10.087492      -274.4946
  18   2.0000     -10.083311      -274.3808
  19   2.0000     -10.080851      -274.3139
  20   2.0000     -10.078843      -274.2593
  21   2.0000     -10.058740      -273.7122
  22   2.0000     -10.050873      -273.4982
  23   2.0000     -10.020576      -272.6737
  24   2.0000     -10.011032      -272.4140
  25   2.0000      -1.199008       -32.6267
  26   2.0000      -1.055184       -28.7130
  27   2.0000      -1.031758       -28.0756
  28   2.0000      -1.017945       -27.6997
  29   2.0000      -0.964916       -26.2567
  30   2.0000      -0.923258       -25.1231
  31   2.0000      -0.886352       -24.1189
  32   2.0000      -0.875892       -23.8342
  33   2.0000      -0.866058       -23.5666
  34   2.0000      -0.795006       -21.6332
  35   2.0000      -0.772687       -21.0259
  36   2.0000      -0.765962       -20.8429
  37   2.0000      -0.726264       -19.7627
  38   2.0000      -0.717496       -19.5241
  39   2.0000      -0.698656       -19.0114
  40   2.0000      -0.664961       -18.0945
  41   2.0000      -0.656061       -17.8523
  42   2.0000      -0.636786       -17.3278
  43   2.0000      -0.632080       -17.1998
  44   2.0000      -0.627702       -17.0806
  45   2.0000      -0.603040       -16.4096
  46   2.0000      -0.577359       -15.7107
  47   2.0000      -0.560493       -15.2518
  48   2.0000      -0.540959       -14.7203
  49   2.0000      -0.535579       -14.5738
  50   2.0000      -0.526130       -14.3167
  51   2.0000      -0.508540       -13.8381
  52   2.0000      -0.500456       -13.6181
  53   2.0000      -0.484373       -13.1805
  54   2.0000      -0.469646       -12.7797
  55   2.0000      -0.465815       -12.6755
  56   2.0000      -0.463399       -12.6097
  57   2.0000      -0.456795       -12.4300
  58   2.0000      -0.450532       -12.2596
  59   2.0000      -0.441183       -12.0052
  60   2.0000      -0.439239       -11.9523
  61   2.0000      -0.425812       -11.5869
  62   2.0000      -0.420683       -11.4474
  63   2.0000      -0.418021       -11.3749
  64   2.0000      -0.409126       -11.1329
  65   2.0000      -0.403080       -10.9684
  66   2.0000      -0.400171       -10.8892
  67   2.0000      -0.397476       -10.8159
  68   2.0000      -0.392261       -10.6740
  69   2.0000      -0.389632       -10.6024
  70   2.0000      -0.379232       -10.3194
  71   2.0000      -0.375768       -10.2252
  72   2.0000      -0.372131       -10.1262
  73   2.0000      -0.367862       -10.0100
  74   2.0000      -0.359952        -9.7948
  75   2.0000      -0.353865        -9.6292
  76   2.0000      -0.350634        -9.5412
  77   2.0000      -0.346112        -9.4182
  78   2.0000      -0.343530        -9.3479
  79   2.0000      -0.339506        -9.2384
  80   2.0000      -0.331227        -9.0132
  81   2.0000      -0.329223        -8.9586
  82   2.0000      -0.324655        -8.8343
  83   2.0000      -0.313487        -8.5304
  84   2.0000      -0.284345        -7.7374
  85   2.0000      -0.274218        -7.4618
  86   2.0000      -0.272353        -7.4111
  87   2.0000      -0.257610        -7.0099
  88   2.0000      -0.247154        -6.7254
  89   2.0000      -0.238608        -6.4928
  90   2.0000      -0.211358        -5.7514
  91   2.0000      -0.204776        -5.5722
  92   0.0000      -0.183120        -4.9830
  93   0.0000      -0.090795        -2.4707
  94   0.0000      -0.069544        -1.8924
  95   0.0000      -0.039746        -1.0815
  96   0.0000       0.002877         0.0783

MULLIKEN ATOMIC CHARGES
-----------------------
   0 C :   -0.482839
   1 N :    0.243352
   2 C :    0.033538
   3 C :    0.251394
   4 C :   -0.601953
   5 C :   -0.523077
   6 N :   -0.681568
   7 N :   -0.144796
   8 C :    0.112420
   9 C :    0.123656
  10 O :   -0.544057
  11 N :   -0.095606
  12 C :   -0.398566
  13 C :    0.354610
  14 C :   -0.205301
  15 C :   -0.064475
  16 C :    0.292935
  17 C :   -0.472171
  18 F :   -0.238591
  19 C :   -0.023365
  20 C :   -0.244989
  21 C :    0.061051
  22 O :   -0.357298
  23 C :    0.097166
  24 O :   -0.430353
  25 H :    0.197186
  26 H :    0.232121
  27 H :    0.186610
  28 H :    0.177316
  29 H :    0.177577
  30 H :    0.170804
  31 H :    0.178596
  32 H :    0.184782
  33 H :    0.181472
  34 H :    0.292233
  35 H :    0.285721
  36 H :    0.323158
  37 H :    0.244725
  38 H :    0.207676
  39 H :    0.223949
  40 H :    0.229151
  41 H :    0.213420
  42 H :    0.205240
  43 H :    0.206410
  44 H :    0.231360
  45 H :    0.213496
  46 H :    0.375880
Sum of atomic charges:    1.0000000

LOEWDIN ATOMIC CHARGES
----------------------
   0 C :   -0.096432
   1 N :   -0.626531
   2 C :    0.373258
   3 C :    0.064837
   4 C :   -0.362348
   5 C :   -0.352507
   6 N :   -0.707599
   7 N :   -0.601082
   8 C :    0.196527
   9 C :    0.376395
  10 O :   -0.522004
  11 N :   -0.571373
  12 C :    0.018831
  13 C :    0.114195
  14 C :   -0.122665
  15 C :    0.019541
  16 C :    0.136407
  17 C :   -0.302822
  18 F :   -0.316743
  19 C :    0.030861
  20 C :   -0.125397
  21 C :    0.281653
  22 O :   -0.443357
  23 C :    0.379620
  24 O :   -0.459830
  25 H :    0.191442
  26 H :    0.217126
  27 H :    0.203505
  28 H :    0.167606
  29 H :    0.169806
  30 H :    0.162170
  31 H :    0.171660
  32 H :    0.172409
  33 H :    0.170618
  34 H :    0.255664
  35 H :    0.253618
  36 H :    0.304292
  37 H :    0.236025
  38 H :    0.214894
  39 H :    0.213729
  40 H :    0.214790
  41 H :    0.189176
  42 H :    0.188092
  43 H :    0.187834
  44 H :    0.215787
  45 H :    0.205216
  46 H :    0.313109

  Mayer bond orders larger than 0.100000
B(  0-C ,  1-N ) :   0.8448 B(  0-C , 25-H ) :   0.9394 B(  0-C , 26-H ) :   0.9195
B(  0-C , 27-H ) :   0.9391 B(  1-N ,  2-C ) :   1.2696 B(  1-N , 23-C ) :   1.0752
B(  2-C ,  3-C ) :   0.9003 B(  2-C ,  7-N ) :   1.6700 B(  2-C , 21-C ) :   0.1095
B(  3-C ,  4-C ) :   0.9569 B(  3-C ,  5-C ) :   0.9269 B(  3-C ,  6-N ) :   0.7599
B(  3-C ,  7-N ) :  -0.1245 B(  4-C , 28-H ) :   0.9810 B(  4-C , 29-H ) :   0.9668
B(  4-C , 30-H ) :   0.9656 B(  5-C , 31-H ) :   0.9463 B(  5-C , 32-H ) :   0.9738
B(  5-C , 33-H ) :   0.9616 B(  6-N , 34-H ) :   0.9141 B(  6-N , 35-H ) :   0.9108
B(  7-N ,  8-C ) :   1.0029 B(  8-C ,  9-C ) :   0.9824 B(  8-C , 21-C ) :   1.2546
B(  9-C , 10-O ) :   1.6654 B(  9-C , 11-N ) :   1.2434 B( 10-O , 12-C ) :   0.1190
B( 11-N , 12-C ) :   0.8226 B( 11-N , 36-H ) :   0.8856 B( 12-C , 13-C ) :   0.8725
B( 12-C , 37-H ) :   0.9437 B( 12-C , 38-H ) :   0.9629 B( 13-C , 14-C ) :   1.2205
B( 13-C , 20-C ) :   1.2590 B( 14-C , 15-C ) :   1.5486 B( 14-C , 39-H ) :   0.9152
B( 15-C , 16-C ) :   1.0076 B( 15-C , 40-H ) :   0.9229 B( 16-C , 17-C ) :   0.9311
B( 16-C , 18-F ) :   0.8281 B( 16-C , 19-C ) :   1.0258 B( 17-C , 41-H ) :   0.9369
B( 17-C , 42-H ) :   0.9323 B( 17-C , 43-H ) :   0.9346 B( 19-C , 20-C ) :   1.5231
B( 19-C , 44-H ) :   0.9201 B( 20-C , 45-H ) :   0.9276 B( 21-C , 22-O ) :   1.1492
B( 21-C , 23-C ) :   1.0155 B( 22-O , 46-H ) :   0.7687 B( 23-C , 24-O ) :   1.8985

Dispersion correction           -0.021137958
FINAL SINGLE POINT ENERGY     -1205.198670078295

DIPOLE MOMENT
-------------
                                X             Y             Z
Electronic contribution:     18.90331       5.87948      -6.67967
Nuclear contribution   :    -13.53832      -9.42261      12.10227
                        -----------------------------------------
Total Dipole Moment    :      5.36499      -3.54313       5.42260
                        -----------------------------------------
Magnitude (a.u.)       :      8.41079
Magnitude (Debye)      :     21.37854

Rotational constants in cm-1:     0.012419     0.003501     0.003127
Rotational constants in MHz :   372.323177   104.965357    93.752221

                             ****ORCA TERMINATED NORMALLY****
TOTAL RUN TIME: 0 days 0 hours 2 minutes 26 seconds 84 msec
