   * xtb version 6.5.1 (579679a) compiled by 'ehlert@majestix' on 2022-07-11
          program call               : /lustre/hpc/kemi/ree/PhD/git/ReactivityQM/dep/xtb-6.5.1/bin/xtb --gfn 1 /lustre/hpc/kemi/ree/PhD/git/ReactivityQM/calculations/RaltegravirCLI/reac02prodN11/conf02/RaltegravirCLI_reac02prodN11_conf02_gfn1.xyz --opt --vfukui --chrg 1 --uhf 0 --alpb DMSO

   ID    Z sym.   atoms
    1    6 C      1, 3-6, 9, 10, 13-18, 20-22, 24
    2    7 N      2, 7, 8, 12
    3    8 O      11, 23, 25
    4    9 F      19
    5    1 H      26-47

      * Solvation model:               ALPB
        Solvent                        DMSO
        Solvent mass                       7.8130E+01 g/mol
          :  Hamiltonian                  GFN1-xTB          :
 * total energy  :   -79.4643411 Eh     change       -0.5323386E-10 Eh
 * total energy  :   -79.4712470 Eh     change       -0.6905873E-02 Eh
 * total energy  :   -79.4735435 Eh     change       -0.2296532E-02 Eh
 * total energy  :   -79.4741375 Eh     change       -0.5940241E-03 Eh
 * total energy  :   -79.4748385 Eh     change       -0.7010036E-03 Eh
 * total energy  :   -79.4752365 Eh     change       -0.3979690E-03 Eh
 * total energy  :   -79.4755914 Eh     change       -0.3549272E-03 Eh
 * total energy  :   -79.4758483 Eh     change       -0.2568867E-03 Eh
 * total energy  :   -79.4760694 Eh     change       -0.2210552E-03 Eh
 * total energy  :   -79.4762928 Eh     change       -0.2233888E-03 Eh
 * total energy  :   -79.4767071 Eh     change       -0.2294926E-04 Eh
 * total energy  :   -79.4767259 Eh     change       -0.1875583E-04 Eh
 * total energy  :   -79.4767387 Eh     change       -0.1285919E-04 Eh
 * total energy  :   -79.4767572 Eh     change       -0.1847160E-04 Eh
 * total energy  :   -79.4767643 Eh     change       -0.7082358E-05 Eh
 * total energy  :   -79.4767802 Eh     change       -0.1594019E-04 Eh
 * total energy  :   -79.4767863 Eh     change       -0.6066955E-05 Eh
 * total energy  :   -79.4767945 Eh     change       -0.8182619E-05 Eh
 * total energy  :   -79.4767982 Eh     change       -0.3701100E-05 Eh
   *** GEOMETRY OPTIMIZATION CONVERGED AFTER 22 ITERATIONS ***

 final structure:
================
47
 xtb: 6.5.1 (579679a)
C           -4.31982104253493        0.44480941858185       -2.69314775273172
N           -3.08291173492654        0.79202646020012       -1.98523877621030
C           -2.67929973859749        0.19952559533900       -0.82312998412386
C           -3.51879082064387       -0.84515061479206       -0.09774308681964
C           -2.69631812197834       -1.44433661638786        1.05491946035486
C           -4.78099557014775       -0.18504453005429        0.47440176296787
N           -3.89483538116657       -1.91368868074432       -1.01249032265673
N           -1.56692220284235        0.53778217647717       -0.24038956688884
C           -0.76695533283765        1.50398514723223       -0.77331695742664
C            0.48704221242327        1.80822914846295       -0.05635991927418
O            1.29194931421715        2.65356269832759       -0.44752148320087
N            0.67606937260182        1.09027865165840        1.06948230461737
C            1.86950807239304        1.25757991655836        1.88023941160412
C            2.89459255551371        0.25030751648288        1.45816403805096
C            3.39364987692622        0.27809421656556        0.13327990119014
C            4.31386131377328       -0.63048004906285       -0.28515092255184
C            4.94230794064838       -1.55218319792973        0.68526597121352
C            6.31331169369429       -0.89942178896960        1.06357964043191
F            5.25142970497889       -2.75748597426868        0.11977028721367
C            4.20863769422871       -1.71218738519721        1.95781700475676
C            3.29675656191763       -0.77799087141711        2.34194966426385
C           -1.11269496173738        2.16285351830727       -1.92587671667828
O           -0.37514638804068        3.12249446977818       -2.48577423055729
C           -2.35702831129409        1.81289679452329       -2.60463682727634
O           -2.77018313936842        2.34006129589420       -3.62614091865989
H           -5.08917570626255        1.18056903600340       -2.45744927862918
H           -4.64370412187793       -0.55051210776527       -2.40425973734389
H           -4.11736989757850        0.46942697719182       -3.76460668028098
H           -2.44586021759923       -0.67108635249684        1.77870261794968
H           -1.77489188764677       -1.87780497319140        0.67195112465207
H           -3.27697690876746       -2.22180018047814        1.54791148884471
H           -5.43828222863315        0.16273812214500       -0.31987879772409
H           -4.50233710510697        0.66223426708271        1.09963294787003
H           -5.32285385866608       -0.90721577598561        1.08310382582580
H           -4.54283558436562       -2.54454255361644       -0.56428127670673
H           -3.07970726120422       -2.43080685798633       -1.30720947263547
H            0.04000408552493        0.33793812174798        1.28881169244481
H            2.25027844738445        2.26928264800192        1.69551890399510
H            1.60494687657838        1.14460855395754        2.93208120547589
H            3.00160444323492        1.02006059572236       -0.55332737251525
H            4.68529953155962       -0.64718151297431       -1.30281172907992
H            6.16102922552828        0.06875897551166        1.53121368985121
H            6.89533868683822       -0.78865606904430        0.15153068082263
H            6.82573980471226       -1.57021687689502        1.74910176524153
H            4.48817758811423       -2.53988751930826        2.59838575400404
H            2.82506748916410       -0.84509113619845        3.31536234223257
H            0.43929603187422        3.26894830300872       -1.95143767590085

          :  Hamiltonian                  GFN1-xTB          :
         :: total energy             -79.476798192034 Eh    ::
         :: gradient norm              0.000271177696 Eh/a0 ::
         :: HOMO-LUMO gap              0.134484990185 eV    ::
         :: SCC energy               -80.354318213841 Eh    ::
         :: -> Gsolv                  -0.111706803751 Eh    ::
         :: repulsion energy           0.907781990787 Eh    ::

    * Orbital Energies and Occupations

         #    Occupation            Energy/Eh            Energy/eV
      -------------------------------------------------------------
         1        2.0000           -0.8941632             -24.3314
       ...           ...                  ...                  ...
        55        2.0000           -0.5207066             -14.1691
        56        2.0000           -0.5180985             -14.0982
        57        2.0000           -0.5123695             -13.9423
        58        2.0000           -0.5075134             -13.8101
        59        2.0000           -0.5059219             -13.7668
        60        2.0000           -0.4976366             -13.5414
        61        2.0000           -0.4877947             -13.2736
        62        2.0000           -0.4797851             -13.0556
        63        2.0000           -0.4675937             -12.7239
        64        2.0000           -0.4648159             -12.6483
        65        2.0000           -0.4479423             -12.1891
        66        1.9989           -0.4318032             -11.7500
        67        1.8624           -0.4271087             -11.6222 (HOMO)
        68        0.1387           -0.4221665             -11.4877 (LUMO)
        69                         -0.3273252              -8.9070
        70                         -0.3247714              -8.8375
        71                         -0.2888005              -7.8587
        72                         -0.2527718              -6.8783
        73                         -0.2439934              -6.6394
        74                         -0.1622280              -4.4144
        75                         -0.1562498              -4.2518
        76                         -0.1507766              -4.1028
        77                         -0.1414428              -3.8489
        78                         -0.1404700              -3.8224
       ...                                ...                  ...
       144                          0.7055692              19.1995
      -------------------------------------------------------------
                  HL-Gap            0.0049422 Eh            0.1345 eV

Wiberg/Mayer (AO) data.
largest (>0.10) Wiberg bond orders for each atom

     #   Z sym  total        # sym  WBO       # sym  WBO       # sym  WBO
 ---------------------------------------------------------------------------
     1   6 C    3.909 --    28 H    0.975    26 H    0.975    27 H    0.964
                             2 N    0.927
     2   7 N    3.508 --     3 C    1.197    24 C    1.105     1 C    0.927
                            25 O    0.132
     3   6 C    3.914 --     8 N    1.536     2 N    1.197     4 C    0.974
     4   6 C    3.952 --     6 C    0.983     5 C    0.981     7 N    0.980
                             3 C    0.974
     5   6 C    3.974 --    31 H    0.984    30 H    0.984     4 C    0.981
                            29 H    0.981
     6   6 C    3.989 --    33 H    0.985     4 C    0.983    34 H    0.982
                            32 H    0.982
     7   7 N    2.957 --     4 C    0.980    36 H    0.930    35 H    0.927
     8   7 N    3.034 --     3 C    1.536     9 C    1.197
     9   6 C    3.952 --    22 C    1.463     8 N    1.197    10 C    1.025
    10   6 C    3.898 --    11 O    1.536    12 N    1.247     9 C    1.025
    11   8 O    1.918 --    10 C    1.536    12 N    0.152
    12   7 N    3.339 --    10 C    1.247    13 C    0.939    37 H    0.885
                            11 O    0.152
    13   6 C    3.946 --    14 C    1.024    39 H    0.972    12 N    0.939
                            38 H    0.937
    14   6 C    3.841 --    21 C    1.294    15 C    1.287    13 C    1.024
    15   6 C    3.983 --    16 C    1.631    14 C    1.287    40 H    0.955
    16   6 C    3.884 --    15 C    1.631    17 C    1.039    41 H    0.961
    17   6 C    3.882 --    20 C    1.042    16 C    1.039    19 F    0.899
                            18 C    0.851
    18   6 C    3.933 --    42 H    0.982    43 H    0.974    44 H    0.974
                            17 C    0.851
    19   9 F    1.007 --    17 C    0.899
    20   6 C    3.875 --    21 C    1.624    17 C    1.042    45 H    0.961
    21   6 C    3.986 --    20 C    1.624    14 C    1.294    46 H    0.960
    22   6 C    3.903 --     9 C    1.463    23 O    1.125    24 C    1.069
    23   8 O    2.084 --    22 C    1.125    47 H    0.777
    24   6 C    3.908 --    25 O    1.587     2 N    1.105    22 C    1.069
    25   8 O    1.891 --    24 C    1.587     2 N    0.132
    26   1 H    1.001 --     1 C    0.975
    27   1 H    1.020 --     1 C    0.964
    28   1 H    1.007 --     1 C    0.975
    29   1 H    1.008 --     5 C    0.981
    30   1 H    1.008 --     5 C    0.984
    31   1 H    1.001 --     5 C    0.984
    32   1 H    1.001 --     6 C    0.982
    33   1 H    1.001 --     6 C    0.985
    34   1 H    0.998 --     6 C    0.982
    35   1 H    0.942 --     7 N    0.927
    36   1 H    0.945 --     7 N    0.930
    37   1 H    0.949 --    12 N    0.885
    38   1 H    0.995 --    13 C    0.937
    39   1 H    0.995 --    13 C    0.972
    40   1 H    1.000 --    15 C    0.955
    41   1 H    0.989 --    16 C    0.961
    42   1 H    0.994 --    18 C    0.982
    43   1 H    0.993 --    18 C    0.974
    44   1 H    0.993 --    18 C    0.974
    45   1 H    0.988 --    20 C    0.961
    46   1 H    0.990 --    21 C    0.960
    47   1 H    0.852 --    23 O    0.777
 ---------------------------------------------------------------------------

           -------------------------------------------------
          | TOTAL ENERGY              -79.476798192034 Eh   |
          | GRADIENT NORM               0.000271177696 Eh/α |
          | HOMO-LUMO GAP               0.134484990185 eV   |
           -------------------------------------------------

 * finished run on 2023/06/20 at 15:31:43.500
