   * xtb version 6.5.1 (579679a) compiled by 'ehlert@majestix' on 2022-07-11
          program call               : /lustre/hpc/kemi/ree/PhD/git/ReactivityQM/dep/xtb-6.5.1/bin/xtb --gfn 1 /lustre/hpc/kemi/ree/PhD/git/ReactivityQM/calculations/R01/reac02prodE04/conf03/R01_reac02prodE04_conf03_gfn1.xyz --opt --vfukui --chrg -1 --uhf 0 --alpb DMSO

   ID    Z sym.   atoms
    1    6 C      1, 3, 5, 6, 8, 11-14, 17
    2    8 O      2, 4, 7, 9
    3    7 N      10, 15, 16
    4    1 H      18-33

      * Solvation model:               ALPB
        Solvent                        DMSO
        Solvent mass                       7.8130E+01 g/mol
          :  Hamiltonian                  GFN1-xTB          :
 * total energy  :   -58.4746968 Eh     change       -0.4525305E-09 Eh
 * total energy  :   -58.4894481 Eh     change       -0.1475131E-01 Eh
 * total energy  :   -58.4986630 Eh     change       -0.9214929E-02 Eh
 * total energy  :   -58.5004291 Eh     change       -0.1766121E-02 Eh
 * total energy  :   -58.5023679 Eh     change       -0.1938819E-02 Eh
 * total energy  :   -58.5033181 Eh     change       -0.9501031E-03 Eh
 * total energy  :   -58.5046041 Eh     change       -0.1286077E-02 Eh
 * total energy  :   -58.5056510 Eh     change       -0.1046841E-02 Eh
 * total energy  :   -58.5067329 Eh     change       -0.1081968E-02 Eh
 * total energy  :   -58.5074711 Eh     change       -0.7381900E-03 Eh
 * total energy  :   -58.5098053 Eh     change       -0.3712783E-04 Eh
 * total energy  :   -58.5098355 Eh     change       -0.3017868E-04 Eh
 * total energy  :   -58.5098549 Eh     change       -0.1938122E-04 Eh
 * total energy  :   -58.5098696 Eh     change       -0.1476875E-04 Eh
 * total energy  :   -58.5098900 Eh     change       -0.2038666E-04 Eh
 * total energy  :   -58.5098985 Eh     change       -0.8498058E-05 Eh
 * total energy  :   -58.5099131 Eh     change       -0.1456287E-04 Eh
 * total energy  :   -58.5099169 Eh     change       -0.3823268E-05 Eh
 * total energy  :   -58.5099202 Eh     change       -0.3304145E-05 Eh
   *** GEOMETRY OPTIMIZATION CONVERGED AFTER 27 ITERATIONS ***

 final structure:
================
33
 xtb: 6.5.1 (579679a)
C            4.74811143011469        0.97914005433896       -0.91516276241582
O            3.71555501818743        0.12993892535975       -0.45587006697035
C            2.45596194160835        0.76192006796068       -0.31762560933482
O            2.36993693165265        1.98286540970284       -0.60464767346213
C            1.47298061648729       -0.09766990676832        0.13654504672438
C            1.63807683069978       -1.53284939504658        0.45260989590388
O            2.77277127932826       -1.92967456136317        1.20311211354357
C            0.62464172872958       -2.39550211963448        0.21735871342257
O            0.39335983414364       -3.60985191554546        0.45341001596500
N           -0.52866587227837       -1.67290500484941       -0.47743626846865
C           -0.87055864281585       -0.44687005353275       -0.02191208495424
C           -2.35044089602125       -0.07275102179176        0.05812666877253
C           -2.68418763537060        0.95061636985185       -1.03732589318303
C           -3.26299893861192       -1.29609037746392       -0.12551227466082
N           -2.63217375385601        0.52068056665393        1.36915271850822
N            0.12113986644865        0.37582125083626        0.24819718644066
C           -0.05331543558885        1.76274393452360        0.67326473373009
H            4.93499962482895        1.79928610823998       -0.21042871738537
H            4.50287337850761        1.41267929493628       -1.89332493615365
H            5.65159234248836        0.37452069919803       -1.00933304818125
H            3.56375519187863       -1.57791501757584        0.76802753311575
H           -1.29346023691050       -2.31766974238354       -0.61191790289878
H           -2.40214811767519        0.55617982485827       -2.01315823030751
H           -3.75497766784295        1.14854452503897       -1.03771013419905
H           -2.16313386334386        1.89132069735303       -0.87235324781360
H           -4.29310183455947       -0.98704900769222        0.04404116620809
H           -3.01985029995109       -2.07656225716544        0.59427719908306
H           -3.19306393203281       -1.69639111351302       -1.13587634875575
H           -3.55384935642374        0.93058445411428        1.34264897615903
H           -2.65017515521062       -0.20740900385803        2.07194885075479
H           -1.00089091296052        1.88593486671662        1.19205969928561
H            0.75946923653270        2.03156160435996        1.34776295613690
H           -0.01823370018212        2.42281984414026       -0.19520227460855

          :  Hamiltonian                  GFN1-xTB          :
         :: total energy             -58.509920198636 Eh    ::
         :: gradient norm              0.000869305236 Eh/a0 ::
         :: HOMO-LUMO gap              1.064020833131 eV    ::
         :: SCC energy               -59.053193787072 Eh    ::
         :: -> Gsolv                  -0.122711650236 Eh    ::
         :: repulsion energy           0.562896208705 Eh    ::

    * Orbital Energies and Occupations

         #    Occupation            Energy/Eh            Energy/eV
      -------------------------------------------------------------
         1        2.0000           -0.7825683             -21.2948
       ...           ...                  ...                  ...
        36        2.0000           -0.4833469             -13.1525
        37        2.0000           -0.4756932             -12.9443
        38        2.0000           -0.4750010             -12.9254
        39        2.0000           -0.4652320             -12.6596
        40        2.0000           -0.4581876             -12.4679
        41        2.0000           -0.4355344             -11.8515
        42        2.0000           -0.4328016             -11.7771
        43        2.0000           -0.4151981             -11.2981
        44        2.0000           -0.4065384             -11.0625
        45        2.0000           -0.3988065             -10.8521
        46        2.0000           -0.3766796             -10.2500
        47        2.0000           -0.3527495              -9.5988
        48        2.0000           -0.2889684              -7.8632 (HOMO)
        49                         -0.2498663              -6.7992 (LUMO)
        50                         -0.1572558              -4.2791
        51                         -0.1216757              -3.3110
        52                         -0.1186520              -3.2287
        53                         -0.1130576              -3.0765
        54                         -0.1084261              -2.9504
        55                         -0.1009979              -2.7483
        56                         -0.0989263              -2.6919
        57                         -0.0731688              -1.9910
        58                         -0.0645324              -1.7560
        59                         -0.0534267              -1.4538
       ...                                ...                  ...
       100                          0.7806100              21.2415
      -------------------------------------------------------------
                  HL-Gap            0.0391020 Eh            1.0640 eV

Wiberg/Mayer (AO) data.
largest (>0.10) Wiberg bond orders for each atom

     #   Z sym  total        # sym  WBO       # sym  WBO       # sym  WBO
 ---------------------------------------------------------------------------
     1   6 C    3.916 --    20 H    0.987    18 H    0.981    19 H    0.981
                             2 O    0.947
     2   8 O    2.072 --     1 C    0.947     3 C    0.916
     3   6 C    3.880 --     5 C    1.420     4 O    1.392     2 O    0.916
     4   8 O    1.751 --     3 C    1.392     5 C    0.139
     5   6 C    3.773 --     3 C    1.420     6 C    1.029    16 N    0.956
                             4 O    0.139
     6   6 C    3.808 --     8 C    1.577     5 C    1.029     7 O    0.937
                             9 O    0.187
     7   8 O    1.898 --     6 C    0.937    21 H    0.864
     8   6 C    3.895 --     6 C    1.577     9 O    1.382    10 N    0.783
     9   8 O    1.725 --     8 C    1.382     6 C    0.187
    10   7 N    3.269 --    11 C    1.250    22 H    0.916     8 C    0.783
                            16 N    0.127
    11   6 C    3.934 --    16 N    1.441    10 N    1.250    12 C    0.971
    12   6 C    3.966 --    14 C    0.994    13 C    0.987    15 N    0.977
                            11 C    0.971
    13   6 C    3.995 --    12 C    0.987    23 H    0.986    24 H    0.984
                            25 H    0.982
    14   6 C    3.995 --    12 C    0.994    26 H    0.982    27 H    0.982
                            28 H    0.982
    15   7 N    2.991 --    12 C    0.977    29 H    0.943    30 H    0.943
    16   7 N    3.555 --    11 C    1.441     5 C    0.956    17 C    0.941
                            10 N    0.127
    17   6 C    3.945 --    32 H    0.983    33 H    0.974    31 H    0.971
                            16 N    0.941
    18   1 H    1.021 --     1 C    0.981
    19   1 H    1.022 --     1 C    0.981
    20   1 H    1.019 --     1 C    0.987
    21   1 H    0.914 --     7 O    0.864
    22   1 H    0.972 --    10 N    0.916
    23   1 H    1.004 --    13 C    0.986
    24   1 H    1.001 --    13 C    0.984
    25   1 H    1.006 --    13 C    0.982
    26   1 H    1.004 --    14 C    0.982
    27   1 H    1.002 --    14 C    0.982
    28   1 H    1.002 --    14 C    0.982
    29   1 H    0.958 --    15 N    0.943
    30   1 H    0.959 --    15 N    0.943
    31   1 H    1.031 --    17 C    0.971
    32   1 H    1.019 --    17 C    0.983
    33   1 H    1.029 --    17 C    0.974
 ---------------------------------------------------------------------------

           -------------------------------------------------
          | TOTAL ENERGY              -58.509920198636 Eh   |
          | GRADIENT NORM               0.000869305236 Eh/α |
          | HOMO-LUMO GAP               1.064020833131 eV   |
           -------------------------------------------------

 * finished run on 2023/06/20 at 14:59:03.614
