   * xtb version 6.5.1 (579679a) compiled by 'ehlert@majestix' on 2022-07-11
          program call               : /lustre/hpc/kemi/ree/PhD/git/ReactivityQM/dep/xtb-6.5.1/bin/xtb --gfn 1 /lustre/hpc/kemi/ree/PhD/git/ReactivityQM/calculations/R01/reac02prodE03/conf04/R01_reac02prodE03_conf04_gfn1.xyz --opt --vfukui --chrg -1 --uhf 0 --alpb DMSO

   ID    Z sym.   atoms
    1    6 C      1, 3, 5, 6, 8-11, 14, 16
    2    8 O      2, 4, 15, 17
    3    7 N      7, 12, 13
    4    1 H      18-33

      * Solvation model:               ALPB
        Solvent                        DMSO
        Solvent mass                       7.8130E+01 g/mol
          :  Hamiltonian                  GFN1-xTB          :
 * total energy  :   -58.5309106 Eh     change       -0.4462208E-11 Eh
 * total energy  :   -58.5448263 Eh     change       -0.1391567E-01 Eh
 * total energy  :   -58.5487376 Eh     change       -0.3911253E-02 Eh
 * total energy  :   -58.5493366 Eh     change       -0.5990492E-03 Eh
 * total energy  :   -58.5497123 Eh     change       -0.3756664E-03 Eh
 * total energy  :   -58.5498259 Eh     change       -0.1136482E-03 Eh
 * total energy  :   -58.5499108 Eh     change       -0.8489871E-04 Eh
 * total energy  :   -58.5499615 Eh     change       -0.5066311E-04 Eh
 * total energy  :   -58.5500147 Eh     change       -0.5321350E-04 Eh
 * total energy  :   -58.5500691 Eh     change       -0.5437796E-04 Eh
 * total energy  :   -58.5514699 Eh     change       -0.1167557E-04 Eh
 * total energy  :   -58.5514774 Eh     change       -0.7568198E-05 Eh
 * total energy  :   -58.5514960 Eh     change       -0.1859012E-04 Eh
 * total energy  :   -58.5515037 Eh     change       -0.7642836E-05 Eh
 * total energy  :   -58.5515179 Eh     change       -0.1417800E-04 Eh
 * total energy  :   -58.5515232 Eh     change       -0.5363929E-05 Eh
 * total energy  :   -58.5515320 Eh     change       -0.8818353E-05 Eh
 * total energy  :   -58.5515406 Eh     change       -0.8604166E-05 Eh
 * total energy  :   -58.5515455 Eh     change       -0.4877564E-05 Eh
   *** GEOMETRY OPTIMIZATION CONVERGED AFTER 42 ITERATIONS ***

 final structure:
================
33
 xtb: 6.5.1 (579679a)
C            3.32440316528656        1.57338345237063        0.49303688512354
O            2.15520654017822        0.82641925979016        0.17088813696448
C            2.36001861380633       -0.38367108835285       -0.38983683040515
O            3.48329895007270       -0.79844360983919       -0.61955851741715
C            1.07763411988405       -1.20867976671387       -0.55282892952138
C            1.27954287509367       -2.24542663513105       -1.66582994555346
N           -0.04974320469704       -0.34842497359372       -0.90226373067407
C           -0.78001199107349        0.13091044179116        0.03386478845816
C           -1.93360887255966        1.05154813145557       -0.34469180223539
C           -3.25867572211109        0.28727115486400       -0.16302129568076
C           -1.93014214179981        2.32490044102040        0.50973769937924
N           -1.76467264089844        1.45191380721834       -1.73960428327482
N           -0.60649145595232       -0.12724049686902        1.36018305387668
C            0.11222908377897       -1.32270792951929        1.77504185411699
O           -0.11063690764732       -1.75721338441064        2.94161931595504
C            0.91082219380145       -1.84054422545227        0.80446487934544
O            1.65514823613962       -3.02799585247241        1.03293244176813
H            3.96445432955746        1.01318792886867        1.18182500728172
H            3.89394764376438        1.80165300616122       -0.41304404054289
H            2.99430782078852        2.49852816791342        0.96280785880417
H            1.39694684428027       -1.74270767130364       -2.62534222362849
H            0.41136113325950       -2.90095662792075       -1.71579487705578
H            2.16758757384041       -2.84403832678207       -1.46483708928424
H           -3.38242691220210       -0.02129659021163        0.87462809842589
H           -3.26788512914832       -0.59758308683357       -0.79888220443198
H           -4.09675876099671        0.92459864783000       -0.44087169758359
H           -0.98755241083002        2.85719114092290        0.37933010466590
H           -2.06528135637235        2.09228251354393        1.56452887155029
H           -2.74420208335111        2.97699246905175        0.19608557307685
H           -1.67443385634887        0.61772943859429       -2.31232796396304
H           -2.59465263796889        1.94188574259844       -2.04065391518200
H           -1.33234122878644        0.14720198447261        2.00210452416297
H            1.39260718921178       -3.35066646306164        1.90631325347600

          :  Hamiltonian                  GFN1-xTB          :
         :: total energy             -58.551545523333 Eh    ::
         :: gradient norm              0.000875702494 Eh/a0 ::
         :: HOMO-LUMO gap              1.977472340204 eV    ::
         :: SCC energy               -59.094415002119 Eh    ::
         :: -> Gsolv                  -0.111498505168 Eh    ::
         :: repulsion energy           0.562570500900 Eh    ::

    * Orbital Energies and Occupations

         #    Occupation            Energy/Eh            Energy/eV
      -------------------------------------------------------------
         1        2.0000           -0.8105696             -22.0567
       ...           ...                  ...                  ...
        36        2.0000           -0.4834568             -13.1555
        37        2.0000           -0.4778579             -13.0032
        38        2.0000           -0.4761268             -12.9561
        39        2.0000           -0.4698767             -12.7860
        40        2.0000           -0.4634714             -12.6117
        41        2.0000           -0.4538996             -12.3512
        42        2.0000           -0.4494172             -12.2293
        43        2.0000           -0.4334924             -11.7959
        44        2.0000           -0.3928285             -10.6894
        45        2.0000           -0.3911518             -10.6438
        46        2.0000           -0.3829334             -10.4201
        47        2.0000           -0.3719058             -10.1201
        48        2.0000           -0.3071145              -8.3570 (HOMO)
        49                         -0.2344437              -6.3795 (LUMO)
        50                         -0.2116626              -5.7596
        51                         -0.1300334              -3.5384
        52                         -0.1262983              -3.4368
        53                         -0.1142712              -3.1095
        54                         -0.1081282              -2.9423
        55                         -0.0964361              -2.6242
        56                         -0.0914204              -2.4877
        57                         -0.0683885              -1.8609
        58                         -0.0664693              -1.8087
        59                         -0.0659188              -1.7937
       ...                                ...                  ...
       100                          0.7063023              19.2195
      -------------------------------------------------------------
                  HL-Gap            0.0726708 Eh            1.9775 eV

Wiberg/Mayer (AO) data.
largest (>0.10) Wiberg bond orders for each atom

     #   Z sym  total        # sym  WBO       # sym  WBO       # sym  WBO
 ---------------------------------------------------------------------------
     1   6 C    3.894 --    20 H    0.987    19 H    0.981    18 H    0.981
                             2 O    0.916
     2   8 O    2.169 --     3 C    1.072     1 C    0.916     4 O    0.115
     3   6 C    3.809 --     4 O    1.626     2 O    1.072     5 C    0.922
     4   8 O    1.895 --     3 C    1.626     2 O    0.115
     5   6 C    3.967 --     6 C    0.988     7 N    0.973    16 C    0.954
                             3 C    0.922
     6   6 C    3.997 --    21 H    0.988     5 C    0.988    22 H    0.987
                            23 H    0.985
     7   7 N    2.974 --     8 C    1.679     5 C    0.973    13 N    0.156
     8   6 C    3.946 --     7 N    1.679    13 N    1.179     9 C    0.971
     9   6 C    3.968 --    11 C    0.993    12 N    0.988    10 C    0.978
                             8 C    0.971
    10   6 C    3.995 --    25 H    0.986    26 H    0.985    24 H    0.984
                             9 C    0.978
    11   6 C    3.996 --     9 C    0.993    27 H    0.986    29 H    0.985
                            28 H    0.984
    12   7 N    2.955 --     9 C    0.988    31 H    0.953    30 H    0.943
    13   7 N    3.300 --     8 C    1.179    32 H    0.914    14 C    0.909
                             7 N    0.156
    14   6 C    3.919 --    16 C    1.516    15 O    1.359    13 N    0.909
    15   8 O    1.703 --    14 C    1.359    16 C    0.169
    16   6 C    3.791 --    14 C    1.516     5 C    0.954    17 O    0.941
                            15 O    0.169
    17   8 O    1.913 --    16 C    0.941    33 H    0.859
    18   1 H    1.012 --     1 C    0.981
    19   1 H    1.012 --     1 C    0.981
    20   1 H    1.015 --     1 C    0.987
    21   1 H    1.011 --     6 C    0.988
    22   1 H    1.012 --     6 C    0.987
    23   1 H    1.017 --     6 C    0.985
    24   1 H    1.004 --    10 C    0.984
    25   1 H    1.007 --    10 C    0.986
    26   1 H    1.005 --    10 C    0.985
    27   1 H    1.010 --    11 C    0.986
    28   1 H    1.005 --    11 C    0.984
    29   1 H    1.004 --    11 C    0.985
    30   1 H    0.983 --    12 N    0.943
    31   1 H    0.967 --    12 N    0.953
    32   1 H    0.967 --    13 N    0.914
    33   1 H    0.892 --    17 O    0.859
 ---------------------------------------------------------------------------

           -------------------------------------------------
          | TOTAL ENERGY              -58.551545523333 Eh   |
          | GRADIENT NORM               0.000875702494 Eh/α |
          | HOMO-LUMO GAP               1.977472340204 eV   |
           -------------------------------------------------

 * finished run on 2023/06/20 at 14:58:45.098
