   * xtb version 6.5.1 (579679a) compiled by 'ehlert@majestix' on 2022-07-11
          program call               : /lustre/hpc/kemi/ree/PhD/git/ReactivityQM/dep/xtb-6.5.1/bin/xtb --gfn 1 /lustre/hpc/kemi/ree/PhD/git/ReactivityQM/calculations/RaltegravirCLI/reac02prodE06/conf20/RaltegravirCLI_reac02prodE06_conf20_gfn1.xyz --opt --vfukui --chrg -1 --uhf 0 --alpb DMSO

   ID    Z sym.   atoms
    1    6 C      1, 3-6, 9, 10, 13-18, 20-22, 24
    2    7 N      2, 7, 8, 12
    3    8 O      11, 23, 25
    4    9 F      19
    5    1 H      26-47

      * Solvation model:               ALPB
        Solvent                        DMSO
        Solvent mass                       7.8130E+01 g/mol
          :  Hamiltonian                  GFN1-xTB          :
 * total energy  :   -80.1740049 Eh     change       -0.1065814E-11 Eh
 * total energy  :   -80.1807840 Eh     change       -0.6779072E-02 Eh
 * total energy  :   -80.1824621 Eh     change       -0.1678084E-02 Eh
 * total energy  :   -80.1827870 Eh     change       -0.3249464E-03 Eh
 * total energy  :   -80.1830478 Eh     change       -0.2607293E-03 Eh
 * total energy  :   -80.1831784 Eh     change       -0.1306591E-03 Eh
 * total energy  :   -80.1832805 Eh     change       -0.1020798E-03 Eh
 * total energy  :   -80.1833509 Eh     change       -0.7040761E-04 Eh
 * total energy  :   -80.1834243 Eh     change       -0.7339926E-04 Eh
 * total energy  :   -80.1835496 Eh     change       -0.1252671E-03 Eh
 * total energy  :   -80.1879874 Eh     change       -0.5216615E-04 Eh
 * total energy  :   -80.1880348 Eh     change       -0.4739862E-04 Eh
 * total energy  :   -80.1880675 Eh     change       -0.3268332E-04 Eh
 * total energy  :   -80.1880931 Eh     change       -0.2557446E-04 Eh
 * total energy  :   -80.1881089 Eh     change       -0.1583666E-04 Eh
 * total energy  :   -80.1881200 Eh     change       -0.1105357E-04 Eh
 * total energy  :   -80.1881272 Eh     change       -0.7227900E-05 Eh
 * total energy  :   -80.1881333 Eh     change       -0.6103698E-05 Eh
 * total energy  :   -80.1881370 Eh     change       -0.3673631E-05 Eh
   *** GEOMETRY OPTIMIZATION CONVERGED AFTER 92 ITERATIONS ***

 final structure:
================
47
 xtb: 6.5.1 (579679a)
C           -4.20325814077229       -0.73950274440493       -2.32581714397011
N           -3.00237795814336       -0.61543007937183       -1.50332886774840
C           -2.98681235159476       -0.21624946707348       -0.18524587292700
C           -4.26478371201632        0.15448645927781        0.56213057633566
C           -3.93687732534565        0.36312544451884        2.05022326567601
C           -4.85185677188261        1.45323591360731       -0.00809066277298
N           -5.25390049142575       -0.91675516542946        0.42669043553744
N           -1.88475002825654       -0.10625772856779        0.47956110310259
C           -0.65860740195862       -0.39491088438464       -0.06885407120531
C            0.47509358988268       -0.24244604812631        0.87315657312372
O            0.33879445240823        0.30795309775720        1.97460744379694
N            1.65417908018854       -0.78178892584937        0.48305128940726
C            2.84915551513967       -0.68030642161570        1.28600301509431
C            3.84240860917168        0.46449717026058        0.80695118617137
C            3.05036518240874        1.79309331148284        0.78507737387114
C            4.95772595381940        0.53597764593757        1.82022694857990
C            6.24196326453968        0.15954816259243        1.53860393764668
C            6.59000410227579       -0.24112387330645        0.24903561409215
F            7.89398432452943       -0.60304754737586       -0.01246557290567
C            5.66683763509482       -0.22294837649775       -0.79845009505756
C            4.37045312871229        0.14026041933867       -0.56733131563616
C           -0.61490215394099       -0.78601178856204       -1.39246484462091
O            0.54011518501000       -1.06965256895919       -2.06366524645174
C           -1.80932620932751       -0.89534124119094       -2.17117195801999
O           -1.80122371474965       -1.22563738912317       -3.36743662086864
H           -4.05122107311230       -1.55835685017445       -3.03051227067717
H           -5.06741790849836       -0.95310234655866       -1.70281524628766
H           -4.36436740304973        0.18182656651131       -2.88828843521496
H           -3.22979751142315        1.18323712610220        2.17353469919455
H           -4.85155551227322        0.59650524016808        2.59197382262465
H           -3.49954529909245       -0.54228803151630        2.46932504784774
H           -4.09952411040238        2.24154899097128        0.00649667009224
H           -5.70050751853427        1.76752179476308        0.59800671410567
H           -5.19610673672436        1.31425307384402       -1.03052045254951
H           -6.12469381646823       -0.61355764339432        0.83777964060675
H           -4.94485833403006       -1.73600702634018        0.93372880824120
H            1.74359749126450       -1.19893205430509       -0.42887813516528
H            2.56151234600440       -0.48753224644846        2.32519082644146
H            3.38928463432940       -1.63017933728323        1.23884158658280
H            3.73057387184441        2.61301214275306        0.55364080926825
H            2.58593507622927        1.98283678735483        1.75408046584802
H            2.27283991168523        1.76247103823262        0.02092358813417
H            4.69197721297049        0.87174898099128        2.81784956542006
H            7.00622315023928        0.19398235437927        2.30919293000845
H            5.99714070144238       -0.47703509255210       -1.80093896148703
H            3.65716582293231        0.17306365170260       -1.38478466371000
H            0.29093924090158       -1.31978549413486       -2.97200049957273

          :  Hamiltonian                  GFN1-xTB          :
         :: total energy             -80.188136958282 Eh    ::
         :: gradient norm              0.000451689222 Eh/a0 ::
         :: HOMO-LUMO gap              0.261557427425 eV    ::
         :: SCC energy               -81.044197830318 Eh    ::
         :: -> Gsolv                  -0.102565570436 Eh    ::
         :: repulsion energy           0.886666115442 Eh    ::

    * Orbital Energies and Occupations

         #    Occupation            Energy/Eh            Energy/eV
      -------------------------------------------------------------
         1        2.0000           -0.8011020             -21.7991
       ...           ...                  ...                  ...
        56        2.0000           -0.4559450             -12.4069
        57        2.0000           -0.4420035             -12.0275
        58        2.0000           -0.4405473             -11.9879
        59        2.0000           -0.4385416             -11.9333
        60        2.0000           -0.4306866             -11.7196
        61        2.0000           -0.4222690             -11.4905
        62        2.0000           -0.4160815             -11.3222
        63        2.0000           -0.4091041             -11.1323
        64        2.0000           -0.4050902             -11.0231
        65        2.0000           -0.4027472             -10.9593
        66        2.0000           -0.3951142             -10.7516
        67        2.0000           -0.3947375             -10.7414
        68        1.9874           -0.2977035              -8.1009 (HOMO)
        69        0.0126           -0.2880914              -7.8394 (LUMO)
        70                         -0.2502612              -6.8100
        71                         -0.2097102              -5.7065
        72                         -0.1994441              -5.4271
        73                         -0.1286137              -3.4998
        74                         -0.1272089              -3.4615
        75                         -0.1217593              -3.3132
        76                         -0.1153199              -3.1380
        77                         -0.1086318              -2.9560
        78                         -0.0933383              -2.5399
        79                         -0.0895236              -2.4361
       ...                                ...                  ...
       144                          0.7040018              19.1569
      -------------------------------------------------------------
                  HL-Gap            0.0096121 Eh            0.2616 eV

Wiberg/Mayer (AO) data.
largest (>0.10) Wiberg bond orders for each atom

     #   Z sym  total        # sym  WBO       # sym  WBO       # sym  WBO
 ---------------------------------------------------------------------------
     1   6 C    3.933 --    28 H    0.978    26 H    0.977    27 H    0.971
                             2 N    0.938
     2   7 N    3.426 --     3 C    1.152    24 C    1.088     1 C    0.938
                            25 O    0.113
     3   6 C    3.905 --     8 N    1.584     2 N    1.152     4 C    0.975
     4   6 C    3.965 --     5 C    0.992     6 C    0.987     7 N    0.977
                             3 C    0.975
     5   6 C    3.995 --     4 C    0.992    30 H    0.986    31 H    0.984
                            29 H    0.983
     6   6 C    3.994 --     4 C    0.987    32 H    0.986    33 H    0.984
                            34 H    0.982
     7   7 N    2.991 --     4 C    0.977    36 H    0.943    35 H    0.942
     8   7 N    3.025 --     3 C    1.584     9 C    1.178
     9   6 C    3.899 --    22 C    1.417     8 N    1.178    10 C    1.039
    10   6 C    3.899 --    11 O    1.505    12 N    1.236     9 C    1.039
    11   8 O    1.810 --    10 C    1.505    12 N    0.159
    12   7 N    3.360 --    10 C    1.236    13 C    0.966    37 H    0.899
                            11 O    0.159
    13   6 C    3.926 --    39 H    0.979    38 H    0.975    12 N    0.966
                            14 C    0.899
    14   6 C    3.983 --    21 C    1.023    16 C    1.021    15 C    0.977
                            13 C    0.899
    15   6 C    3.990 --    40 H    0.988    42 H    0.986    41 H    0.985
                            14 C    0.977
    16   6 C    3.855 --    17 C    1.588    14 C    1.021    43 H    0.976
    17   6 C    3.993 --    16 C    1.588    18 C    1.318    44 H    0.971
    18   6 C    3.654 --    17 C    1.318    20 C    1.308    19 F    0.858
    19   9 F    0.948 --    18 C    0.858
    20   6 C    3.994 --    21 C    1.600    18 C    1.308    45 H    0.971
    21   6 C    3.911 --    20 C    1.600    14 C    1.023    46 H    0.974
    22   6 C    3.854 --     9 C    1.417    24 C    1.161    23 O    1.035
    23   8 O    2.024 --    22 C    1.035    47 H    0.816
    24   6 C    3.871 --    25 O    1.485    22 C    1.161     2 N    1.088
    25   8 O    1.814 --    24 C    1.485     2 N    0.113
    26   1 H    1.012 --     1 C    0.977
    27   1 H    1.031 --     1 C    0.971
    28   1 H    1.004 --     1 C    0.978
    29   1 H    1.015 --     5 C    0.983
    30   1 H    1.005 --     5 C    0.986
    31   1 H    1.012 --     5 C    0.984
    32   1 H    1.004 --     6 C    0.986
    33   1 H    1.001 --     6 C    0.984
    34   1 H    1.005 --     6 C    0.982
    35   1 H    0.957 --     7 N    0.942
    36   1 H    0.959 --     7 N    0.943
    37   1 H    0.960 --    12 N    0.899
    38   1 H    1.020 --    13 C    0.975
    39   1 H    1.024 --    13 C    0.979
    40   1 H    1.020 --    15 C    0.988
    41   1 H    1.014 --    15 C    0.985
    42   1 H    1.010 --    15 C    0.986
    43   1 H    1.003 --    16 C    0.976
    44   1 H    1.006 --    17 C    0.971
    45   1 H    1.006 --    20 C    0.971
    46   1 H    1.004 --    21 C    0.974
    47   1 H    0.862 --    23 O    0.816
 ---------------------------------------------------------------------------

           -------------------------------------------------
          | TOTAL ENERGY              -80.188136958282 Eh   |
          | GRADIENT NORM               0.000451689222 Eh/α |
          | HOMO-LUMO GAP               0.261557427425 eV   |
           -------------------------------------------------

 * finished run on 2023/06/20 at 15:03:41.865
