   * xtb version 6.5.1 (579679a) compiled by 'ehlert@majestix' on 2022-07-11
          program call               : /lustre/hpc/kemi/ree/PhD/git/ReactivityQM/dep/xtb-6.5.1/bin/xtb --gfn 1 /lustre/hpc/kemi/ree/PhD/git/ReactivityQM/calculations/R02oxygendeprot/reac01prodE14/conf08/R02oxygendeprot_reac01prodE14_conf08_gfn1.xyz --opt --vfukui --chrg -2 --uhf 0 --alpb DMSO

   ID    Z sym.   atoms
    1    6 C      1, 3, 5, 7-10, 12, 14, 17, 18, 21, 23, 24
    2    8 O      2, 4, 13, 19, 22, 25
    3    7 N      6, 11, 15, 16, 20
    4    1 H      26-42

      * Solvation model:               ALPB
        Solvent                        DMSO
        Solvent mass                       7.8130E+01 g/mol
          :  Hamiltonian                  GFN1-xTB          :
 * total energy  :   -83.5851421 Eh     change       -0.1774936E-10 Eh
 * total energy  :   -83.6010716 Eh     change       -0.1592943E-01 Eh
 * total energy  :   -83.6074988 Eh     change       -0.6427244E-02 Eh
 * total energy  :   -83.6086458 Eh     change       -0.1146960E-02 Eh
 * total energy  :   -83.6092308 Eh     change       -0.5850139E-03 Eh
 * total energy  :   -83.6094994 Eh     change       -0.2686346E-03 Eh
 * total energy  :   -83.6097347 Eh     change       -0.2352677E-03 Eh
 * total energy  :   -83.6099233 Eh     change       -0.1886403E-03 Eh
 * total energy  :   -83.6100641 Eh     change       -0.1408149E-03 Eh
 * total energy  :   -83.6101812 Eh     change       -0.1171044E-03 Eh
 * total energy  :   -83.6109775 Eh     change       -0.9749965E-05 Eh
 * total energy  :   -83.6109888 Eh     change       -0.1136595E-04 Eh
 * total energy  :   -83.6109966 Eh     change       -0.7768228E-05 Eh
 * total energy  :   -83.6110068 Eh     change       -0.1020794E-04 Eh
 * total energy  :   -83.6110121 Eh     change       -0.5332686E-05 Eh
 * total energy  :   -83.6110195 Eh     change       -0.7412439E-05 Eh
 * total energy  :   -83.6110268 Eh     change       -0.7240205E-05 Eh
 * total energy  :   -83.6110322 Eh     change       -0.5383027E-05 Eh
 * total energy  :   -83.6110367 Eh     change       -0.4515794E-05 Eh
   *** GEOMETRY OPTIMIZATION CONVERGED AFTER 41 ITERATIONS ***

 final structure:
================
42
 xtb: 6.5.1 (579679a)
C           -6.01914604624523        1.72361142772176        0.47606546372687
O           -5.04077513664455        0.85779051933066       -0.05429858885750
C           -3.80825213956228        0.86864787501707        0.62430391391720
O           -3.70056019718630        1.63007858869405        1.61102189899363
C           -2.81138382507415        0.03654754211047        0.08911837681428
N           -1.65856321988304        0.02360962690312        0.84196331617255
C           -0.62542317204361       -0.65691271681687        0.50755677567642
C            0.60830310316895       -0.69852206632534        1.38351637044492
C            0.85735245058624       -2.13105612233510        1.88052470166438
C            0.44097850085643        0.26709391360710        2.56150674397254
N            1.75449237046746       -0.26520386341566        0.55552801706007
C            3.02642756749255       -0.18111692855766        0.98575087054729
O            3.43531304482718       -0.50448662308477        2.09583862032735
C            3.90661672642017        0.35694006854802       -0.07928331883499
N            3.52589907082304        0.73518356717053       -1.26804134860573
N            4.64679057474173        1.15294010313324       -1.92615088676097
C            5.63623255414721        1.00504135835348       -1.10274346203262
C            7.06384394331632        1.31141666346275       -1.34533446120017
O            5.24043271652915        0.50841097207714        0.08165580629517
N           -0.55779340439812       -1.38380614665578       -0.70077559570027
C           -1.55788035203955       -1.28851307887194       -1.63202699887166
O           -1.30282588084506       -1.58317655058067       -2.80644246553100
C           -2.99108748820465       -1.00658047078369       -1.06117324572801
C           -3.80444037346084       -0.38133270141331       -2.24877959294222
O           -3.48339201635545       -2.18531855920578       -0.64484799399110
H           -6.91440706005790        1.62768967801549       -0.14122226399988
H           -6.27033840285521        1.46258289763036        1.51290747972708
H           -5.68379764820903        2.76898059082551        0.45838131846522
H           -0.01076446948068       -2.47249014732826        2.44399779157895
H            1.73200685720109       -2.17144857798254        2.52673567563020
H            1.01422251648895       -2.79836312159806        1.03407227644082
H            1.29677726431679        0.20865379511245        3.23113876555981
H            0.34410309809790        1.28803824697121        2.19246745037393
H           -0.46338812787302        0.00959745005360        3.11267448612518
H            1.55860207316113        0.09358094966284       -0.36874067196427
H            7.41810749325933        2.04686036037565       -0.62382666187983
H            7.66425706277168        0.40966207909224       -1.22945480498200
H            7.18749346487557        1.70199901626280       -2.35203086165986
H            0.35096541255456       -1.64825969210717       -1.04210070609165
H           -3.54088810112312        0.66518256439001       -2.40685920046488
H           -3.59382659780783       -0.94164710809675       -3.16130529481443
H           -4.87028520675613       -0.46190737936282       -2.04468369459540

          :  Hamiltonian                  GFN1-xTB          :
         :: total energy             -83.611036676791 Eh    ::
         :: gradient norm              0.000467197996 Eh/a0 ::
         :: HOMO-LUMO gap              0.159136899962 eV    ::
         :: SCC energy               -84.345876259324 Eh    ::
         :: -> Gsolv                  -0.299629389113 Eh    ::
         :: repulsion energy           0.760504649634 Eh    ::

    * Orbital Energies and Occupations

         #    Occupation            Energy/Eh            Energy/eV
      -------------------------------------------------------------
         1        2.0000           -0.8469693             -23.0472
       ...           ...                  ...                  ...
        56        2.0000           -0.4426576             -12.0453
        57        2.0000           -0.4370787             -11.8935
        58        2.0000           -0.4319007             -11.7526
        59        2.0000           -0.4255324             -11.5793
        60        2.0000           -0.4222434             -11.4898
        61        2.0000           -0.4165889             -11.3360
        62        2.0000           -0.4004356             -10.8964
        63        2.0000           -0.3928913             -10.6911
        64        2.0000           -0.3842486             -10.4559
        65        2.0000           -0.3706332             -10.0854
        66        2.0000           -0.3083200              -8.3898
        67        1.9963           -0.3010605              -8.1923
        68        1.9138           -0.2980363              -8.1100 (HOMO)
        69        0.0899           -0.2921881              -7.9508 (LUMO)
        70                         -0.2433932              -6.6231
        71                         -0.2128632              -5.7923
        72                         -0.1786021              -4.8600
        73                         -0.1729766              -4.7069
        74                         -0.1369105              -3.7255
        75                         -0.1142256              -3.1082
        76                         -0.1043689              -2.8400
        77                         -0.1018203              -2.7707
        78                         -0.0998565              -2.7172
        79                         -0.0856630              -2.3310
       ...                                ...                  ...
       134                          0.7278091              19.8047
      -------------------------------------------------------------
                  HL-Gap            0.0058482 Eh            0.1591 eV

Wiberg/Mayer (AO) data.
largest (>0.10) Wiberg bond orders for each atom

     #   Z sym  total        # sym  WBO       # sym  WBO       # sym  WBO
 ---------------------------------------------------------------------------
     1   6 C    3.922 --    26 H    0.987    27 H    0.980    28 H    0.980
                             2 O    0.953
     2   8 O    2.083 --     1 C    0.953     3 C    0.933
     3   6 C    3.845 --     4 O    1.445     5 C    1.330     2 O    0.933
     4   8 O    1.741 --     3 C    1.445     5 C    0.106
     5   6 C    3.813 --     3 C    1.330     6 N    1.189    23 C    0.917
                             4 O    0.106
     6   7 N    3.048 --     7 C    1.617     5 C    1.189
     7   6 C    3.886 --     6 N    1.617    20 N    1.003     8 C    0.979
     8   6 C    3.923 --    10 C    0.994     9 C    0.986     7 C    0.979
                            11 N    0.899
     9   6 C    3.990 --    29 H    0.986     8 C    0.986    31 H    0.985
                            30 H    0.982
    10   6 C    3.994 --     8 C    0.994    33 H    0.986    32 H    0.985
                            34 H    0.984
    11   7 N    3.337 --    12 C    1.265    35 H    0.901     8 C    0.899
                            13 O    0.176
    12   6 C    3.892 --    13 O    1.550    11 N    1.265    14 C    1.000
    13   8 O    1.856 --    12 C    1.550    11 N    0.176
    14   6 C    3.829 --    15 N    1.582    19 O    1.048    12 C    1.000
    15   7 N    2.965 --    14 C    1.582    16 N    1.190
    16   7 N    2.980 --    17 C    1.618    15 N    1.190
    17   6 C    3.864 --    16 N    1.618    19 O    1.076    18 C    1.029
    18   6 C    3.989 --    17 C    1.029    38 H    0.984    36 H    0.966
                            37 H    0.966
    19   8 O    2.300 --    17 C    1.076    14 C    1.048
    20   7 N    3.347 --    21 C    1.171     7 C    1.003    39 H    0.915
                            22 O    0.116
    21   6 C    3.814 --    22 O    1.562    20 N    1.171    23 C    0.882
    22   8 O    1.830 --    21 C    1.562    20 N    0.116
    23   6 C    3.963 --    25 O    1.121    24 C    0.945     5 C    0.917
                            21 C    0.882
    24   6 C    3.988 --    40 H    0.991    42 H    0.987    41 H    0.985
                            23 C    0.945
    25   8 O    1.414 --    23 C    1.121
    26   1 H    1.020 --     1 C    0.987
    27   1 H    1.022 --     1 C    0.980
    28   1 H    1.022 --     1 C    0.980
    29   1 H    1.007 --     9 C    0.986
    30   1 H    1.014 --     9 C    0.982
    31   1 H    1.008 --     9 C    0.985
    32   1 H    1.012 --    10 C    0.985
    33   1 H    1.015 --    10 C    0.986
    34   1 H    1.019 --    10 C    0.984
    35   1 H    0.964 --    11 N    0.901
    36   1 H    0.998 --    18 C    0.966
    37   1 H    0.998 --    18 C    0.966
    38   1 H    1.000 --    18 C    0.984
    39   1 H    0.967 --    20 N    0.915
    40   1 H    1.017 --    24 C    0.991
    41   1 H    1.026 --    24 C    0.985
    42   1 H    1.034 --    24 C    0.987
 ---------------------------------------------------------------------------

           -------------------------------------------------
          | TOTAL ENERGY              -83.611036676791 Eh   |
          | GRADIENT NORM               0.000467197996 Eh/α |
          | HOMO-LUMO GAP               0.159136899962 eV   |
           -------------------------------------------------

 * finished run on 2023/06/21 at 17:16:28.724
