   * xtb version 6.5.1 (579679a) compiled by 'ehlert@majestix' on 2022-07-11
          program call               : /lustre/hpc/kemi/ree/PhD/git/ReactivityQM/dep/xtb-6.5.1/bin/xtb --gfn 1 /lustre/hpc/kemi/ree/PhD/git/ReactivityQM/calculations/R02/reac01prodN10/conf12/R02_reac01prodN10_conf12_gfn1.xyz --opt --vfukui --chrg 1 --uhf 0 --alpb DMSO

   ID    Z sym.   atoms
    1    6 C      1, 3, 5, 6, 8, 11-15, 17, 19, 22, 23
    2    8 O      2, 4, 7, 9, 18, 24
    3    7 N      10, 16, 20, 21, 25
    4    1 H      26-43

      * Solvation model:               ALPB
        Solvent                        DMSO
        Solvent mass                       7.8130E+01 g/mol
          :  Hamiltonian                  GFN1-xTB          :
 * total energy  :   -83.0920258 Eh     change       -0.1521983E-10 Eh
 * total energy  :   -83.1090906 Eh     change       -0.1706477E-01 Eh
 * total energy  :   -83.1159998 Eh     change       -0.6909169E-02 Eh
 * total energy  :   -83.1173982 Eh     change       -0.1398416E-02 Eh
 * total energy  :   -83.1186248 Eh     change       -0.1226588E-02 Eh
 * total energy  :   -83.1194458 Eh     change       -0.8209841E-03 Eh
 * total energy  :   -83.1202592 Eh     change       -0.8133855E-03 Eh
 * total energy  :   -83.1209443 Eh     change       -0.6851716E-03 Eh
 * total energy  :   -83.1213436 Eh     change       -0.3992788E-03 Eh
 * total energy  :   -83.1215747 Eh     change       -0.2310434E-03 Eh
 * total energy  :   -83.1229387 Eh     change       -0.1444225E-04 Eh
 * total energy  :   -83.1229467 Eh     change       -0.7999671E-05 Eh
 * total energy  :   -83.1229559 Eh     change       -0.9211734E-05 Eh
 * total energy  :   -83.1229638 Eh     change       -0.7910181E-05 Eh
 * total energy  :   -83.1229690 Eh     change       -0.5194218E-05 Eh
 * total energy  :   -83.1229775 Eh     change       -0.8515490E-05 Eh
 * total energy  :   -83.1229836 Eh     change       -0.6083486E-05 Eh
 * total energy  :   -83.1229901 Eh     change       -0.6516137E-05 Eh
 * total energy  :   -83.1229945 Eh     change       -0.4383373E-05 Eh
   *** GEOMETRY OPTIMIZATION CONVERGED AFTER 49 ITERATIONS ***

 final structure:
================
43
 xtb: 6.5.1 (579679a)
C           -3.71929870092250       -3.08250016159207       -2.41574095036863
O           -3.53404456629918       -2.03367523554286       -1.44837415345473
C           -2.35696774112570       -1.44867099105248       -1.42509834801219
O           -1.43185403040464       -1.71029677348627       -2.14678472554167
C           -2.25807561765043       -0.36892896076639       -0.35943286534103
C           -3.22427500032373       -0.11907671163225        0.63792340500825
O           -4.32063862956702       -0.77845150207771        0.76107257075871
C           -3.01336413568758        0.98340581551481        1.61697851421828
O           -3.85355154933929        1.22404744995660        2.45761798023324
N           -1.85786678523151        1.66221681594000        1.44448279286109
C           -0.84580374020057        1.33615508749313        0.49283784425341
C           -0.37128129284129        2.59263777653017       -0.24367515109145
C            0.44006496015675        0.65728383066707        1.34096517934200
C           -0.01489718777401       -0.69897851135854        1.86629795508994
C            0.79496414163728        1.58356251316394        2.49561171721994
N            1.49203105566490        0.46011527882501        0.41413487792989
C            2.50207432406602        1.34359333206385        0.11852206961559
O            2.60979971018342        2.45523486804706        0.59030871301756
C            3.46289879669421        0.77778302061990       -0.84340995129440
N            4.54406378661452        1.32932840096992       -1.30582164513570
N            5.11075764808559        0.43494101756154       -2.15088911477868
C            4.34513032779173       -0.61605992637863       -2.15934121633295
C            4.53638961494478       -1.86904360270579       -2.91803640636218
O            3.28408218010573       -0.46071780431612       -1.35298121175248
N           -1.16747396251263        0.35410217116584       -0.41637276358519
H           -4.73096453054494       -3.45487690455331       -2.27175715500550
H           -3.59432257601649       -2.67989106995950       -3.42276563199847
H           -2.98682116773416       -3.87269696655447       -2.24219770775537
H           -4.85014300133172       -0.45086187693855        1.52395496138168
H           -1.71002621939344        2.45718114891287        2.05043522973813
H            0.33671897374732        2.30753748360761       -1.01776679541621
H            0.09062464777311        3.30019036401850        0.43913731065930
H           -1.24182749035477        3.05427671007631       -0.70625381791567
H           -0.95232632479826       -0.60722416006327        2.41085342921244
H           -0.13898702669897       -1.41447638619766        1.05609864794604
H            0.74580708706139       -1.07260358973800        2.55112873379173
H            0.85244563941000        2.62885590353242        2.20519859895533
H            0.05300739069856        1.47423856655713        3.28388729103064
H            1.76918744725261        1.28594455287782        2.88326712982655
H            1.47017633639731       -0.40563897414667       -0.10762348328500
H            5.44232785402509       -1.80183306178126       -3.51711824311285
H            3.67798749611220       -2.04656474566135       -3.56554750079242
H            4.61427185831703       -2.70956319158771       -2.22788411375678

          :  Hamiltonian                  GFN1-xTB          :
         :: total energy             -83.122994517947 Eh    ::
         :: gradient norm              0.000714294795 Eh/a0 ::
         :: HOMO-LUMO gap              0.980262793269 eV    ::
         :: SCC energy               -83.914290124748 Eh    ::
         :: -> Gsolv                  -0.116040354452 Eh    ::
         :: repulsion energy           0.819679218528 Eh    ::

    * Orbital Energies and Occupations

         #    Occupation            Energy/Eh            Energy/eV
      -------------------------------------------------------------
         1        2.0000           -0.8975173             -24.4227
       ...           ...                  ...                  ...
        55        2.0000           -0.5323263             -14.4853
        56        2.0000           -0.5291445             -14.3988
        57        2.0000           -0.5223423             -14.2137
        58        2.0000           -0.5215589             -14.1923
        59        2.0000           -0.5175107             -14.0822
        60        2.0000           -0.5163855             -14.0516
        61        2.0000           -0.5105475             -13.8927
        62        2.0000           -0.4979003             -13.5486
        63        2.0000           -0.4929249             -13.4132
        64        2.0000           -0.4895156             -13.3204
        65        2.0000           -0.4816708             -13.1069
        66        2.0000           -0.4687836             -12.7563
        67        2.0000           -0.4679242             -12.7329 (HOMO)
        68                         -0.4319002             -11.7526 (LUMO)
        69                         -0.3570994              -9.7172
        70                         -0.3355959              -9.1320
        71                         -0.2789725              -7.5912
        72                         -0.2708895              -7.3713
        73                         -0.2267942              -6.1714
        74                         -0.2204568              -5.9989
        75                         -0.1602336              -4.3602
        76                         -0.1548044              -4.2124
        77                         -0.1491233              -4.0579
        78                         -0.1487166              -4.0468
       ...                                ...                  ...
       136                          0.7239765              19.7004
      -------------------------------------------------------------
                  HL-Gap            0.0360240 Eh            0.9803 eV

Wiberg/Mayer (AO) data.
largest (>0.10) Wiberg bond orders for each atom

     #   Z sym  total        # sym  WBO       # sym  WBO       # sym  WBO
 ---------------------------------------------------------------------------
     1   6 C    3.847 --    26 H    0.985    28 H    0.978    27 H    0.978
                             2 O    0.874
     2   8 O    2.229 --     3 C    1.160     1 C    0.874     4 O    0.150
     3   6 C    3.865 --     4 O    1.690     2 O    1.160     5 C    0.943
     4   8 O    1.957 --     3 C    1.690     2 O    0.150
     5   6 C    3.952 --    25 N    1.512     6 C    1.245     3 C    0.943
     6   6 C    3.834 --     7 O    1.310     5 C    1.245     8 C    0.984
     7   8 O    2.237 --     6 C    1.310    29 H    0.754
     8   6 C    3.919 --     9 O    1.615    10 N    1.221     6 C    0.984
     9   8 O    1.945 --     8 C    1.615    10 N    0.183
    10   7 N    3.435 --     8 C    1.221    11 C    0.988    30 H    0.869
                             9 O    0.183
    11   6 C    3.904 --    25 N    1.150    10 N    0.988    12 C    0.940
                            13 C    0.682
    12   6 C    3.967 --    31 H    0.980    32 H    0.976    33 H    0.975
                            11 C    0.940
    13   6 C    3.904 --    16 N    1.035    14 C    1.003    15 C    0.997
                            11 C    0.682
    14   6 C    3.985 --    13 C    1.003    35 H    0.980    34 H    0.980
                            36 H    0.967
    15   6 C    3.977 --    13 C    0.997    38 H    0.981    37 H    0.970
                            39 H    0.961
    16   7 N    3.384 --    17 C    1.155    13 C    1.035    40 H    0.882
                            18 O    0.135
    17   6 C    3.901 --    18 O    1.630    16 N    1.155    19 C    1.016
    18   8 O    1.934 --    17 C    1.630    16 N    0.135
    19   6 C    3.876 --    20 N    1.598    24 O    1.045    17 C    1.016
    20   7 N    3.003 --    19 C    1.598    21 N    1.223
    21   7 N    2.981 --    22 C    1.584    20 N    1.223
    22   6 C    3.856 --    21 N    1.584    24 O    1.078    23 C    1.035
    23   6 C    3.983 --    22 C    1.035    41 H    0.981    42 H    0.960
                            43 H    0.959
    24   8 O    2.322 --    22 C    1.078    19 C    1.045
    25   7 N    3.030 --     5 C    1.512    11 C    1.150
    26   1 H    1.007 --     1 C    0.985
    27   1 H    1.002 --     1 C    0.978
    28   1 H    1.002 --     1 C    0.978
    29   1 H    0.802 --     7 O    0.754
    30   1 H    0.908 --    10 N    0.869
    31   1 H    1.000 --    12 C    0.980
    32   1 H    1.001 --    12 C    0.976
    33   1 H    0.995 --    12 C    0.975
    34   1 H    0.997 --    14 C    0.980
    35   1 H    0.997 --    14 C    0.980
    36   1 H    0.992 --    14 C    0.967
    37   1 H    1.008 --    15 C    0.970
    38   1 H    0.997 --    15 C    0.981
    39   1 H    0.989 --    15 C    0.961
    40   1 H    0.933 --    16 N    0.882
    41   1 H    0.997 --    23 C    0.981
    42   1 H    0.994 --    23 C    0.960
    43   1 H    0.994 --    23 C    0.959
 ---------------------------------------------------------------------------

           -------------------------------------------------
          | TOTAL ENERGY              -83.122994517947 Eh   |
          | GRADIENT NORM               0.000714294795 Eh/α |
          | HOMO-LUMO GAP               0.980262793269 eV   |
           -------------------------------------------------

 * finished run on 2023/06/20 at 15:31:02.322
