   * xtb version 6.5.1 (579679a) compiled by 'ehlert@majestix' on 2022-07-11
          program call               : /lustre/hpc/kemi/ree/PhD/git/ReactivityQM/dep/xtb-6.5.1/bin/xtb --gfn 1 /lustre/hpc/kemi/ree/PhD/git/ReactivityQM/calculations/R01/reac02prodN02/conf14/R01_reac02prodN02_conf14_gfn1.xyz --opt --vfukui --chrg 1 --uhf 0 --alpb DMSO

   ID    Z sym.   atoms
    1    6 C      1, 3-6, 8, 9, 12, 13, 15
    2    7 N      2, 7, 17
    3    8 O      10, 11, 14, 16
    4    1 H      18-33

      * Solvation model:               ALPB
        Solvent                        DMSO
        Solvent mass                       7.8130E+01 g/mol
          :  Hamiltonian                  GFN1-xTB          :
 * total energy  :   -57.8615252 Eh     change       -0.5528022E-11 Eh
 * total energy  :   -57.8712471 Eh     change       -0.9721944E-02 Eh
 * total energy  :   -57.8739450 Eh     change       -0.2697869E-02 Eh
 * total energy  :   -57.8743255 Eh     change       -0.3805275E-03 Eh
 * total energy  :   -57.8745457 Eh     change       -0.2201363E-03 Eh
 * total energy  :   -57.8746424 Eh     change       -0.9676199E-04 Eh
 * total energy  :   -57.8747468 Eh     change       -0.1043273E-03 Eh
 * total energy  :   -57.8748101 Eh     change       -0.6329992E-04 Eh
 * total energy  :   -57.8748430 Eh     change       -0.3295090E-04 Eh
 * total energy  :   -57.8748718 Eh     change       -0.2881618E-04 Eh
 * total energy  :   -57.8748855 Eh     change       -0.1363590E-04 Eh
 * total energy  :   -57.8749019 Eh     change       -0.1646543E-04 Eh
 * total energy  :   -57.8749088 Eh     change       -0.6864340E-05 Eh
 * total energy  :   -57.8749161 Eh     change       -0.7334890E-05 Eh
 * total energy  :   -57.8749218 Eh     change       -0.5672729E-05 Eh
 * total energy  :   -57.8749256 Eh     change       -0.3845229E-05 Eh
   *** GEOMETRY OPTIMIZATION CONVERGED AFTER 16 ITERATIONS ***

 final structure:
================
33
 xtb: 6.5.1 (579679a)
C           -1.74448740168590        2.18548145562397        0.54143717636124
N           -1.92150933462224        1.33444775424937       -0.66105894214414
C           -2.05575331114337       -0.14464328803795       -0.41725005554768
C           -2.47164454901902       -0.76483252489342       -1.75559347645435
C           -3.09752212516061       -0.41346389431787        0.66525515380120
C           -0.67271757594556       -0.62588042492461       -0.04627207837545
N            0.32488856658717        0.16242040541670       -0.24577343719432
C            1.60724418198185       -0.25437764876496        0.03907806484177
C            2.63060707877706        0.80336778821682       -0.22076815333753
O            2.33590116050841        1.92038392878755       -0.58108177456794
O            3.87571274517987        0.39811901395566       -0.01431137083952
C            4.91060542638782        1.36279439661809       -0.24236863272440
C            1.82904958696905       -1.51563518757388        0.51854837653837
O            3.03111945031403       -2.00499113622704        0.81927592806941
C            0.70438787023025       -2.42824314409818        0.74116601470762
O            0.83985636251890       -3.56118548059507        1.16552224022228
N           -0.52867287926827       -1.89238388779823        0.43023495352161
H           -2.65170661952849        2.15571992446797        1.13702470708921
H           -0.89211628666305        1.81369874164400        1.10522576800783
H           -1.55672861901285        3.19873042597985        0.19305439867507
H           -2.73352947892730        1.65905388986669       -1.17705343346356
H           -1.08865114743177        1.45463783439929       -1.24711226451677
H           -3.46389631389680       -0.41623950512997       -2.03588134666100
H           -1.76061513662624       -0.49302990239084       -2.53448543221110
H           -2.49288263258230       -1.84886825810240       -1.65902398958187
H           -4.00859665221768        0.14117600429989        0.44841770078412
H           -3.33734252901253       -1.47535181817047        0.67471965384996
H           -2.72605916338485       -0.13128007693487        1.64856852530522
H            4.90867477711949        1.66939321712382       -1.29106554751364
H            5.85083537620448        0.87618279887717        0.00988868637853
H            4.75105962260734        2.23822531245378        0.39146624035232
H            2.93647863099851       -2.91868310962106        1.14813630274506
H           -1.33199008025470       -2.48474460439935        0.57372404388320

          :  Hamiltonian                  GFN1-xTB          :
         :: total energy             -57.874925645500 Eh    ::
         :: gradient norm              0.000879387033 Eh/a0 ::
         :: HOMO-LUMO gap              3.011219113918 eV    ::
         :: SCC energy               -58.457110275234 Eh    ::
         :: -> Gsolv                  -0.117805551115 Eh    ::
         :: repulsion energy           0.601418937714 Eh    ::

    * Orbital Energies and Occupations

         #    Occupation            Energy/Eh            Energy/eV
      -------------------------------------------------------------
         1        2.0000           -0.8863492             -24.1188
       ...           ...                  ...                  ...
        35        2.0000           -0.5583171             -15.1926
        36        2.0000           -0.5524766             -15.0337
        37        2.0000           -0.5484691             -14.9246
        38        2.0000           -0.5458110             -14.8523
        39        2.0000           -0.5337445             -14.5239
        40        2.0000           -0.5308748             -14.4458
        41        2.0000           -0.5210029             -14.1772
        42        2.0000           -0.5080371             -13.8244
        43        2.0000           -0.5033722             -13.6975
        44        2.0000           -0.4988655             -13.5748
        45        2.0000           -0.4819802             -13.1153
        46        2.0000           -0.4705388             -12.8040
        47        2.0000           -0.4500193             -12.2456 (HOMO)
        48                         -0.3393591              -9.2344 (LUMO)
        49                         -0.3074381              -8.3658
        50                         -0.2541253              -6.9151
        51                         -0.1812324              -4.9316
        52                         -0.1754969              -4.7755
        53                         -0.1706888              -4.6447
        54                         -0.1639559              -4.4615
        55                         -0.1454550              -3.9580
        56                         -0.1424193              -3.8754
        57                         -0.1375895              -3.7440
        58                         -0.1229273              -3.3450
       ...                                ...                  ...
       100                          0.7232319              19.6801
      -------------------------------------------------------------
                  HL-Gap            0.1106603 Eh            3.0112 eV

Wiberg/Mayer (AO) data.
largest (>0.10) Wiberg bond orders for each atom

     #   Z sym  total        # sym  WBO       # sym  WBO       # sym  WBO
 ---------------------------------------------------------------------------
     1   6 C    3.894 --    18 H    0.984    19 H    0.982    20 H    0.980
                             2 N    0.917
     2   7 N    3.603 --     1 C    0.917    21 H    0.892     3 C    0.890
                            22 H    0.877
     3   6 C    3.906 --     5 C    0.996     6 C    0.986     4 C    0.982
                             2 N    0.890
     4   6 C    3.980 --     3 C    0.982    24 H    0.981    23 H    0.979
                            25 H    0.978
     5   6 C    3.982 --     3 C    0.996    28 H    0.981    26 H    0.980
                            27 H    0.975
     6   6 C    3.942 --     7 N    1.591    17 N    1.178     3 C    0.986
     7   7 N    3.051 --     6 C    1.591     8 C    1.160
     8   6 C    3.957 --    13 C    1.510     7 N    1.160     9 C    0.994
     9   6 C    3.856 --    10 O    1.655    11 O    1.129     8 C    0.994
    10   8 O    1.919 --     9 C    1.655    11 O    0.138
    11   8 O    2.213 --     9 C    1.129    12 C    0.891    10 O    0.138
    12   6 C    3.865 --    30 H    0.986    31 H    0.979    29 H    0.979
                            11 O    0.891
    13   6 C    3.922 --     8 C    1.510    14 O    1.123    15 C    1.053
    14   8 O    2.100 --    13 C    1.123    32 H    0.801
    15   6 C    3.906 --    16 O    1.602    17 N    1.121    13 C    1.053
    16   8 O    1.923 --    15 C    1.602    17 N    0.132
    17   7 N    3.466 --     6 C    1.178    15 C    1.121    33 H    0.877
                            16 O    0.132
    18   1 H    0.994 --     1 C    0.984
    19   1 H    1.003 --     1 C    0.982
    20   1 H    0.989 --     1 C    0.980
    21   1 H    0.917 --     2 N    0.892
    22   1 H    0.943 --     2 N    0.877
    23   1 H    0.992 --     4 C    0.979
    24   1 H    0.994 --     4 C    0.981
    25   1 H    0.994 --     4 C    0.978
    26   1 H    0.992 --     5 C    0.980
    27   1 H    0.994 --     5 C    0.975
    28   1 H    0.996 --     5 C    0.981
    29   1 H    1.006 --    12 C    0.979
    30   1 H    1.010 --    12 C    0.986
    31   1 H    1.006 --    12 C    0.979
    32   1 H    0.838 --    14 O    0.801
    33   1 H    0.918 --    17 N    0.877
 ---------------------------------------------------------------------------

           -------------------------------------------------
          | TOTAL ENERGY              -57.874925645500 Eh   |
          | GRADIENT NORM               0.000879387033 Eh/α |
          | HOMO-LUMO GAP               3.011219113918 eV   |
           -------------------------------------------------

 * finished run on 2023/06/20 at 15:03:49.215
