   * xtb version 6.5.1 (579679a) compiled by 'ehlert@majestix' on 2022-07-11
          program call               : /lustre/hpc/kemi/ree/PhD/git/ReactivityQM/dep/xtb-6.5.1/bin/xtb --gfn 1 /lustre/hpc/kemi/ree/PhD/git/ReactivityQM/calculations/R02/reac01prodN01/conf09/R02_reac01prodN01_conf09_gfn1.xyz --opt --vfukui --chrg 1 --uhf 0 --alpb DMSO

   ID    Z sym.   atoms
    1    6 C      1, 3, 5, 7-10, 12, 14, 17, 18, 20, 22, 24
    2    8 O      2, 4, 13, 19, 23, 25
    3    7 N      6, 11, 15, 16, 21
    4    1 H      26-43

      * Solvation model:               ALPB
        Solvent                        DMSO
        Solvent mass                       7.8130E+01 g/mol
          :  Hamiltonian                  GFN1-xTB          :
 * total energy  :   -83.0836369 Eh     change       -0.1827516E-10 Eh
 * total energy  :   -83.1027336 Eh     change       -0.1909671E-01 Eh
 * total energy  :   -83.1120628 Eh     change       -0.9329141E-02 Eh
 * total energy  :   -83.1150278 Eh     change       -0.2965031E-02 Eh
 * total energy  :   -83.1167874 Eh     change       -0.1759555E-02 Eh
 * total energy  :   -83.1175797 Eh     change       -0.7923317E-03 Eh
 * total energy  :   -83.1181349 Eh     change       -0.5551985E-03 Eh
 * total energy  :   -83.1184892 Eh     change       -0.3542812E-03 Eh
 * total energy  :   -83.1187020 Eh     change       -0.2128406E-03 Eh
 * total energy  :   -83.1188665 Eh     change       -0.1644740E-03 Eh
 * total energy  :   -83.1204240 Eh     change       -0.1613012E-04 Eh
 * total energy  :   -83.1204338 Eh     change       -0.9822240E-05 Eh
 * total energy  :   -83.1204416 Eh     change       -0.7825856E-05 Eh
 * total energy  :   -83.1204494 Eh     change       -0.7769881E-05 Eh
 * total energy  :   -83.1204576 Eh     change       -0.8235384E-05 Eh
 * total energy  :   -83.1204657 Eh     change       -0.8088687E-05 Eh
 * total energy  :   -83.1204719 Eh     change       -0.6225155E-05 Eh
 * total energy  :   -83.1204774 Eh     change       -0.5498384E-05 Eh
 * total energy  :   -83.1204791 Eh     change       -0.1694431E-05 Eh
   *** GEOMETRY OPTIMIZATION CONVERGED AFTER 44 ITERATIONS ***

 final structure:
================
43
 xtb: 6.5.1 (579679a)
C            4.58289783171352       -0.70581211613594       -3.65579821075384
O            4.43895941297107       -0.38394322800652       -2.26817620707968
C            3.19910313743260       -0.32700238550422       -1.79595248890143
O            2.21536736634689       -0.53110601604944       -2.47191072085702
C            3.12997498530030        0.01714003365732       -0.34457877455093
N            1.84119648160835        0.08532891108764        0.13171824694109
C            1.61351248935691        0.37726946565389        1.36488564227592
C            0.18559186033003        0.45213351215077        1.86389274488202
C           -0.05271781658146       -0.58572166432401        2.96816042422654
C           -0.13595888269125        1.87143294106389        2.34965264236776
N           -0.64948147863342        0.13186032595742        0.70255725610258
C           -1.97878715039345        0.09950313285119        0.72386821241368
O           -2.70964876803133        0.31636205930767        1.67373025562805
C           -2.53008986205856       -0.24945395534957       -0.62400682599993
N           -1.91237295453430       -0.50376278716933       -1.71359210255685
N           -2.83173451598524       -0.76383690029796       -2.69220136906643
C           -4.00552869244998       -0.66729465995912       -2.19716912382548
C           -5.31193443827868       -0.85241493520352       -2.84680479733912
O           -3.90613804133786       -0.33289510697718       -0.84048302371978
C           -4.96320377537768       -0.09462856408459        0.14443968281933
N            2.61923537610486        0.62700278625244        2.25100767711270
C            3.94906786439367        0.58336357058226        1.89750386008475
O            4.84901741324807        0.80137453144016        2.69124587163349
C            4.18626206199909        0.25594859851369        0.49055957073032
O            5.46764705274149        0.21384337270809        0.11906260213283
H            4.13745099964468       -1.68195166592929       -3.86161347487132
H            5.65136081719245       -0.72458616075784       -3.86162793944449
H            4.09030127218178        0.05299438488550       -4.26831630503337
H            0.15549709475516       -1.58618946299873        2.59262918908518
H            0.59948474491710       -0.37842983525964        3.81387608898600
H           -1.08710044411118       -0.53590648380192        3.30222476117814
H            0.51291623932409        2.12898642510621        3.18393925667677
H            0.01611022075553        2.58636640660569        1.54267790209719
H           -1.17091210310074        1.92065439036403        2.68185651198797
H           -0.14361379175587       -0.06841319626733       -0.15928256241230
H           -5.89480285167483        0.06795821911266       -2.79814245300479
H           -5.14719457113334       -1.12349992890036       -3.88839143969146
H           -5.87718611129318       -1.64099380646971       -2.34952136997132
H           -5.90716361846405       -0.25507945462440       -0.36628670942689
H           -4.85874584120099        0.93128734818383        0.49061081133104
H           -4.81643410875102       -0.80430877851679        0.95567240837161
H            2.41802702899750        0.85690001970087        3.21238381182431
H            6.03176806652093        0.41952365740301        0.88758146761589

          :  Hamiltonian                  GFN1-xTB          :
         :: total energy             -83.120479125058 Eh    ::
         :: gradient norm              0.000354700870 Eh/a0 ::
         :: HOMO-LUMO gap              2.114551492161 eV    ::
         :: SCC energy               -83.925720736509 Eh    ::
         :: -> Gsolv                  -0.119573907918 Eh    ::
         :: repulsion energy           0.831553575873 Eh    ::

    * Orbital Energies and Occupations

         #    Occupation            Energy/Eh            Energy/eV
      -------------------------------------------------------------
         1        2.0000           -0.9685951             -26.3568
       ...           ...                  ...                  ...
        55        2.0000           -0.5201825             -14.1549
        56        2.0000           -0.5187772             -14.1166
        57        2.0000           -0.5179597             -14.0944
        58        2.0000           -0.5156240             -14.0308
        59        2.0000           -0.5102011             -13.8833
        60        2.0000           -0.5036479             -13.7050
        61        2.0000           -0.4992059             -13.5841
        62        2.0000           -0.4952400             -13.4762
        63        2.0000           -0.4941697             -13.4470
        64        2.0000           -0.4795478             -13.0492
        65        2.0000           -0.4724007             -12.8547
        66        2.0000           -0.4631161             -12.6020
        67        2.0000           -0.4424249             -12.0390 (HOMO)
        68                         -0.3647165              -9.9244 (LUMO)
        69                         -0.3336405              -9.0788
        70                         -0.3142368              -8.5508
        71                         -0.2967363              -8.0746
        72                         -0.2494717              -6.7885
        73                         -0.2442264              -6.6457
        74                         -0.1904936              -5.1836
        75                         -0.1762761              -4.7967
        76                         -0.1686223              -4.5884
        77                         -0.1495726              -4.0701
        78                         -0.1427782              -3.8852
       ...                                ...                  ...
       136                          0.7235734              19.6894
      -------------------------------------------------------------
                  HL-Gap            0.0777083 Eh            2.1146 eV

Wiberg/Mayer (AO) data.
largest (>0.10) Wiberg bond orders for each atom

     #   Z sym  total        # sym  WBO       # sym  WBO       # sym  WBO
 ---------------------------------------------------------------------------
     1   6 C    3.869 --    27 H    0.986    26 H    0.980    28 H    0.979
                             2 O    0.894
     2   8 O    2.210 --     3 C    1.124     1 C    0.894     4 O    0.136
     3   6 C    3.853 --     4 O    1.652     2 O    1.124     5 C    0.997
     4   8 O    1.916 --     3 C    1.652     2 O    0.136
     5   6 C    3.960 --    24 C    1.509     6 N    1.165     3 C    0.997
     6   7 N    3.059 --     7 C    1.593     5 C    1.165
     7   6 C    3.934 --     6 N    1.593    21 N    1.171     8 C    0.983
     8   6 C    3.925 --     7 C    0.983     9 C    0.978    10 C    0.977
                            11 N    0.920
     9   6 C    3.985 --    29 H    0.984    30 H    0.982    31 H    0.978
                             8 C    0.978
    10   6 C    3.985 --    33 H    0.984    32 H    0.982    34 H    0.978
                             8 C    0.977
    11   7 N    3.401 --    12 C    1.317     8 C    0.920    35 H    0.863
                            13 O    0.197
    12   6 C    3.929 --    13 O    1.573    11 N    1.317    14 C    0.967
    13   8 O    1.935 --    12 C    1.573    11 N    0.197
    14   6 C    3.800 --    15 N    1.707    12 C    0.967    19 O    0.885
    15   7 N    3.044 --    14 C    1.707    16 N    1.146
    16   7 N    3.024 --    17 C    1.698    15 N    1.146
    17   6 C    3.803 --    16 N    1.698    18 C    1.044    19 O    0.876
    18   6 C    3.969 --    17 C    1.044    37 H    0.969    38 H    0.951
                            36 H    0.950
    19   8 O    2.654 --    14 C    0.885    17 C    0.876    20 C    0.746
    20   6 C    3.723 --    39 H    0.974    40 H    0.968    41 H    0.967
                            19 O    0.746
    21   7 N    3.466 --     7 C    1.171    22 C    1.131    42 H    0.879
                            23 O    0.133
    22   6 C    3.909 --    23 O    1.590    21 N    1.131    24 C    1.057
    23   8 O    1.913 --    22 C    1.590    21 N    0.133
    24   6 C    3.921 --     5 C    1.509    25 O    1.116    22 C    1.057
    25   8 O    2.093 --    24 C    1.116    43 H    0.803
    26   1 H    1.007 --     1 C    0.980
    27   1 H    1.010 --     1 C    0.986
    28   1 H    1.007 --     1 C    0.979
    29   1 H    0.999 --     9 C    0.984
    30   1 H    0.997 --     9 C    0.982
    31   1 H    1.003 --     9 C    0.978
    32   1 H    0.997 --    10 C    0.982
    33   1 H    0.999 --    10 C    0.984
    34   1 H    1.003 --    10 C    0.978
    35   1 H    0.957 --    11 N    0.863
    36   1 H    0.988 --    18 C    0.950
    37   1 H    0.989 --    18 C    0.969
    38   1 H    0.988 --    18 C    0.951
    39   1 H    0.990 --    20 C    0.974
    40   1 H    0.999 --    20 C    0.968
    41   1 H    1.000 --    20 C    0.967
    42   1 H    0.923 --    21 N    0.879
    43   1 H    0.841 --    25 O    0.803
 ---------------------------------------------------------------------------

           -------------------------------------------------
          | TOTAL ENERGY              -83.120479125058 Eh   |
          | GRADIENT NORM               0.000354700870 Eh/α |
          | HOMO-LUMO GAP               2.114551492161 eV   |
           -------------------------------------------------

 * finished run on 2023/06/20 at 15:18:19.856
