                         Program Version 5.0.1 -  RELEASE  -
|  1> # ORCA input file
|  2> ! SP r2SCAN-3c CPCM
|  3>
|  4> %maxcore 1875.0
|  5> %pal nprocs 4 end
|  6> %cpcm smd true SMDsolvent "DMSO" end
|  7>
|  8> *xyz 0 1
|  9> C      -3.001679    2.652314    2.075387
| 10> O      -2.432928    1.574000    1.318798
| 11> C      -3.242045    0.559626    1.038772
| 12> O      -4.398732    0.531067    1.421892
| 13> C      -2.634797   -0.574849    0.306198
| 14> C      -3.248585   -1.801086    0.360567
| 15> O      -4.420270   -2.025057    0.949034
| 16> C      -2.594292   -2.992348   -0.230914
| 17> O      -3.143945   -4.081068   -0.299696
| 18> N      -1.312662   -2.784287   -0.674205
| 19> C      -0.768390   -1.604861   -0.735846
| 20> C       0.648703   -1.602619   -1.305406
| 21> C       0.611654   -1.366666   -2.819275
| 22> C       1.305607   -2.965537   -1.030152
| 23> N       1.464120   -0.565086   -0.677242
| 24> C       1.591560   -0.483285    0.665590
| 25> O       0.991008   -1.185353    1.462170
| 26> C       2.525279    0.586670    1.091119
| 27> N       2.894635    0.885386    2.297594
| 28> N       3.751636    1.939800    2.196580
| 29> C       3.851119    2.221947    0.934919
| 30> C       4.650024    3.293549    0.302805
| 31> O       3.101060    1.401292    0.180393
| 32> N      -1.406363   -0.472436   -0.356361
| 33> C      -0.927889    0.857598   -0.727818
| 34> H      -2.226282    3.410096    2.160439
| 35> H      -3.301699    2.295944    3.063100
| 36> H      -3.871619    3.053050    1.551664
| 37> H      -4.806755   -1.188167    1.294685
| 38> H       1.620732   -1.427680   -3.222414
| 39> H       0.199065   -0.392258   -3.068053
| 40> H      -0.002991   -2.134916   -3.286635
| 41> H       0.774393   -3.746048   -1.571773
| 42> H       1.278810   -3.192047    0.034723
| 43> H       2.340039   -2.935905   -1.366055
| 44> H       2.045498    0.005784   -1.264880
| 45> H       5.349422    2.862952   -0.414092
| 46> H       3.991628    3.974129   -0.237853
| 47> H       5.197223    3.843283    1.065504
| 48> H      -0.372107    1.307195    0.093596
| 49> H      -0.285493    0.786942   -1.597047
| 50> H      -1.783694    1.478940   -0.979815
| 51> **                         ****END OF INPUT****

CARTESIAN COORDINATES (ANGSTROEM)
---------------------------------
  C     -3.001679    2.652314    2.075387
  O     -2.432928    1.574000    1.318798
  C     -3.242045    0.559626    1.038772
  O     -4.398732    0.531067    1.421892
  C     -2.634797   -0.574849    0.306198
  C     -3.248585   -1.801086    0.360567
  O     -4.420270   -2.025057    0.949034
  C     -2.594292   -2.992348   -0.230914
  O     -3.143945   -4.081068   -0.299696
  N     -1.312662   -2.784287   -0.674205
  C     -0.768390   -1.604861   -0.735846
  C      0.648703   -1.602619   -1.305406
  C      0.611654   -1.366666   -2.819275
  C      1.305607   -2.965537   -1.030152
  N      1.464120   -0.565086   -0.677242
  C      1.591560   -0.483285    0.665590
  O      0.991008   -1.185353    1.462170
  C      2.525279    0.586670    1.091119
  N      2.894635    0.885386    2.297594
  N      3.751636    1.939800    2.196580
  C      3.851119    2.221947    0.934919
  C      4.650024    3.293549    0.302805
  O      3.101060    1.401292    0.180393
  N     -1.406363   -0.472436   -0.356361
  C     -0.927889    0.857598   -0.727818
  H     -2.226282    3.410096    2.160439
  H     -3.301699    2.295944    3.063100
  H     -3.871619    3.053050    1.551664
  H     -4.806755   -1.188167    1.294685
  H      1.620732   -1.427680   -3.222414
  H      0.199065   -0.392258   -3.068053
  H     -0.002991   -2.134916   -3.286635
  H      0.774393   -3.746048   -1.571773
  H      1.278810   -3.192047    0.034723
  H      2.340039   -2.935905   -1.366055
  H      2.045498    0.005784   -1.264880
  H      5.349422    2.862952   -0.414092
  H      3.991628    3.974129   -0.237853
  H      5.197223    3.843283    1.065504
  H     -0.372107    1.307195    0.093596
  H     -0.285493    0.786942   -1.597047
  H     -1.783694    1.478940   -0.979815

 Total Charge           Charge          ....    0
 Multiplicity           Mult            ....    1
 Number of Electrons    NEL             ....  184
 Basis Dimension        Dim             ....  615

ORBITAL ENERGIES
----------------

  NO   OCC          E(Eh)            E(eV)
   0   2.0000     -19.067013      -518.8398
   1   2.0000     -19.017328      -517.4878
   2   2.0000     -18.994872      -516.8767
   3   2.0000     -18.962125      -515.9857
   4   2.0000     -18.938963      -515.3554
   5   2.0000     -18.917867      -514.7813
   6   2.0000     -14.245385      -387.6366
   7   2.0000     -14.206325      -386.5738
   8   2.0000     -14.203301      -386.4915
   9   2.0000     -14.198450      -386.3595
  10   2.0000     -14.150869      -385.0647
  11   2.0000     -10.186547      -277.1900
  12   2.0000     -10.159142      -276.4443
  13   2.0000     -10.148547      -276.1560
  14   2.0000     -10.144511      -276.0462
  15   2.0000     -10.131154      -275.6827
  16   2.0000     -10.128941      -275.6225
  17   2.0000     -10.123543      -275.4756
  18   2.0000     -10.107013      -275.0258
  19   2.0000     -10.106186      -275.0033
  20   2.0000     -10.083752      -274.3928
  21   2.0000     -10.065588      -273.8986
  22   2.0000     -10.046153      -273.3697
  23   2.0000     -10.030071      -272.9321
  24   2.0000     -10.017663      -272.5945
  25   2.0000      -1.156596       -31.4726
  26   2.0000      -1.098155       -29.8823
  27   2.0000      -1.051067       -28.6010
  28   2.0000      -1.028490       -27.9866
  29   2.0000      -1.006167       -27.3792
  30   2.0000      -0.998547       -27.1718
  31   2.0000      -0.979487       -26.6532
  32   2.0000      -0.976784       -26.5796
  33   2.0000      -0.917196       -24.9582
  34   2.0000      -0.877488       -23.8777
  35   2.0000      -0.833030       -22.6679
  36   2.0000      -0.788141       -21.4464
  37   2.0000      -0.759461       -20.6660
  38   2.0000      -0.715259       -19.4632
  39   2.0000      -0.714080       -19.4311
  40   2.0000      -0.691370       -18.8131
  41   2.0000      -0.669763       -18.2252
  42   2.0000      -0.664886       -18.0925
  43   2.0000      -0.649037       -17.6612
  44   2.0000      -0.629189       -17.1211
  45   2.0000      -0.604065       -16.4374
  46   2.0000      -0.589167       -16.0320
  47   2.0000      -0.563578       -15.3357
  48   2.0000      -0.560681       -15.2569
  49   2.0000      -0.552609       -15.0372
  50   2.0000      -0.532037       -14.4775
  51   2.0000      -0.516562       -14.0564
  52   2.0000      -0.496387       -13.5074
  53   2.0000      -0.488256       -13.2861
  54   2.0000      -0.477344       -12.9892
  55   2.0000      -0.474256       -12.9052
  56   2.0000      -0.461726       -12.5642
  57   2.0000      -0.461150       -12.5485
  58   2.0000      -0.451509       -12.2862
  59   2.0000      -0.440942       -11.9987
  60   2.0000      -0.432575       -11.7710
  61   2.0000      -0.420465       -11.4414
  62   2.0000      -0.412509       -11.2249
  63   2.0000      -0.407001       -11.0751
  64   2.0000      -0.404258       -11.0004
  65   2.0000      -0.400819       -10.9069
  66   2.0000      -0.395483       -10.7616
  67   2.0000      -0.387265       -10.5380
  68   2.0000      -0.383837       -10.4447
  69   2.0000      -0.382121       -10.3980
  70   2.0000      -0.377909       -10.2834
  71   2.0000      -0.372217       -10.1285
  72   2.0000      -0.362430        -9.8622
  73   2.0000      -0.360790        -9.8176
  74   2.0000      -0.353051        -9.6070
  75   2.0000      -0.349183        -9.5018
  76   2.0000      -0.345615        -9.4047
  77   2.0000      -0.340165        -9.2564
  78   2.0000      -0.332974        -9.0607
  79   2.0000      -0.328833        -8.9480
  80   2.0000      -0.318537        -8.6678
  81   2.0000      -0.315696        -8.5905
  82   2.0000      -0.292368        -7.9557
  83   2.0000      -0.275600        -7.4995
  84   2.0000      -0.270921        -7.3721
  85   2.0000      -0.268838        -7.3154
  86   2.0000      -0.264098        -7.1865
  87   2.0000      -0.255260        -6.9460
  88   2.0000      -0.248698        -6.7674
  89   2.0000      -0.243264        -6.6195
  90   2.0000      -0.221559        -6.0289
  91   2.0000      -0.209311        -5.6957
  92   0.0000      -0.094131        -2.5614
  93   0.0000      -0.089035        -2.4228
  94   0.0000      -0.048507        -1.3199
  95   0.0000      -0.021517        -0.5855
  96   0.0000       0.005351         0.1456

MULLIKEN ATOMIC CHARGES
-----------------------
   0 C :   -0.324859
   1 O :   -0.171941
   2 C :    0.235393
   3 O :   -0.473868
   4 C :   -0.009692
   5 C :    0.093649
   6 O :   -0.357129
   7 C :   -0.041050
   8 O :   -0.369992
   9 N :   -0.186456
  10 C :    0.187390
  11 C :   -0.023253
  12 C :   -0.507228
  13 C :   -0.610327
  14 N :   -0.129116
  15 C :   -0.126495
  16 O :   -0.420516
  17 C :    0.420005
  18 N :   -0.163386
  19 N :   -0.287845
  20 C :    0.396719
  21 C :   -0.634085
  22 O :   -0.057718
  23 N :    0.394652
  24 C :   -0.418272
  25 H :    0.183031
  26 H :    0.184009
  27 H :    0.182193
  28 H :    0.371123
  29 H :    0.194133
  30 H :    0.184175
  31 H :    0.201736
  32 H :    0.189764
  33 H :    0.200600
  34 H :    0.186015
  35 H :    0.320858
  36 H :    0.201141
  37 H :    0.201898
  38 H :    0.205460
  39 H :    0.201455
  40 H :    0.193032
  41 H :    0.184796
Sum of atomic charges:   -0.0000000

LOEWDIN ATOMIC CHARGES
----------------------
   0 C :   -0.026979
   1 O :   -0.587479
   2 C :    0.413448
   3 O :   -0.459997
   4 C :    0.210171
   5 C :    0.293171
   6 O :   -0.439192
   7 C :    0.337866
   8 O :   -0.443530
   9 N :   -0.537572
  10 C :    0.381890
  11 C :    0.111036
  12 C :   -0.338035
  13 C :   -0.334708
  14 N :   -0.592111
  15 C :    0.375260
  16 O :   -0.437422
  17 C :    0.411505
  18 N :   -0.332906
  19 N :   -0.359251
  20 C :    0.379733
  21 C :   -0.317091
  22 O :   -0.390521
  23 N :   -0.682401
  24 C :   -0.050529
  25 H :    0.189959
  26 H :    0.186837
  27 H :    0.187391
  28 H :    0.312809
  29 H :    0.176837
  30 H :    0.170477
  31 H :    0.180437
  32 H :    0.178107
  33 H :    0.181774
  34 H :    0.168627
  35 H :    0.300979
  36 H :    0.191978
  37 H :    0.192509
  38 H :    0.191419
  39 H :    0.200253
  40 H :    0.201018
  41 H :    0.204234

  Mayer bond orders larger than 0.100000
B(  0-C ,  1-O ) :   0.8238 B(  0-C , 25-H ) :   0.9585 B(  0-C , 26-H ) :   0.9508
B(  0-C , 27-H ) :   0.9508 B(  1-O ,  2-C ) :   1.1724 B(  2-C ,  3-O ) :   1.7166
B(  2-C ,  4-C ) :   1.0456 B(  4-C ,  5-C ) :   1.3468 B(  4-C , 23-N ) :   1.0519
B(  5-C ,  6-O ) :   1.1415 B(  5-C ,  7-C ) :   0.9445 B(  6-O , 28-H ) :   0.7658
B(  7-C ,  8-O ) :   2.0815 B(  7-C ,  9-N ) :   1.1445 B(  9-N , 10-C ) :   1.5029
B( 10-C , 11-C ) :   0.7530 B( 10-C , 23-N ) :   1.3339 B( 11-C , 12-C ) :   0.9930
B( 11-C , 13-C ) :   0.9096 B( 11-C , 14-N ) :   0.8080 B( 12-C , 29-H ) :   0.9613
B( 12-C , 30-H ) :   0.9333 B( 12-C , 31-H ) :   0.9652 B( 13-C , 32-H ) :   0.9602
B( 13-C , 33-H ) :   0.9645 B( 13-C , 34-H ) :   0.9720 B( 14-N , 15-C ) :   1.1503
B( 14-N , 35-H ) :   0.8928 B( 15-C , 16-O ) :   1.8847 B( 15-C , 17-C ) :   0.7816
B( 15-C , 19-N ) :   0.1006 B( 16-O , 17-C ) :  -0.1096 B( 17-C , 18-N ) :   1.7307
B( 17-C , 20-C ) :   0.1197 B( 17-C , 22-O ) :   1.0755 B( 18-N , 19-N ) :   1.2628
B( 19-N , 20-C ) :   1.6197 B( 20-C , 21-C ) :   0.8243 B( 20-C , 22-O ) :   1.0665
B( 21-C , 36-H ) :   0.9440 B( 21-C , 37-H ) :   0.9412 B( 21-C , 38-H ) :   0.9897
B( 23-N , 24-C ) :   0.8715 B( 24-C , 39-H ) :   0.9325 B( 24-C , 40-H ) :   0.9204
B( 24-C , 41-H ) :   0.9275

Dispersion correction           -0.020041354
FINAL SINGLE POINT ENERGY     -1268.644780672856

DIPOLE MOMENT
-------------
                                X             Y             Z
Electronic contribution:     -7.37508      -6.27780       8.82196
Nuclear contribution   :     10.12290      12.25225     -12.24525
                        -----------------------------------------
Total Dipole Moment    :      2.74782       5.97445      -3.42329
                        -----------------------------------------
Magnitude (a.u.)       :      7.41374
Magnitude (Debye)      :     18.84422

Rotational constants in cm-1:     0.011225     0.005078     0.003972
Rotational constants in MHz :   336.519770   152.248647   119.083140

                             ****ORCA TERMINATED NORMALLY****
TOTAL RUN TIME: 0 days 0 hours 2 minutes 35 seconds 792 msec
