   * xtb version 6.5.1 (579679a) compiled by 'ehlert@majestix' on 2022-07-11
          program call               : /lustre/hpc/kemi/ree/PhD/git/ReactivityQM/dep/xtb-6.5.1/bin/xtb --gfn 1 /lustre/hpc/kemi/ree/PhD/git/ReactivityQM/calculations/R02deprot/reac01prodN06/conf10/R02deprot_reac01prodN06_conf10_gfn1.xyz --opt --vfukui --chrg 0 --uhf 0 --alpb DMSO

   ID    Z sym.   atoms
    1    6 C      1, 3, 5, 6, 8, 11-14, 16, 18, 21, 22, 25
    2    8 O      2, 4, 7, 9, 17, 23
    3    7 N      10, 15, 19, 20, 24
    4    1 H      26-42

      * Solvation model:               ALPB
        Solvent                        DMSO
        Solvent mass                       7.8130E+01 g/mol
          :  Hamiltonian                  GFN1-xTB          :
 * total energy  :   -82.9832806 Eh     change       -0.3255707E-10 Eh
 * total energy  :   -82.9962328 Eh     change       -0.1295211E-01 Eh
 * total energy  :   -83.0013641 Eh     change       -0.5131303E-02 Eh
 * total energy  :   -83.0025303 Eh     change       -0.1166264E-02 Eh
 * total energy  :   -83.0033919 Eh     change       -0.8616048E-03 Eh
 * total energy  :   -83.0039368 Eh     change       -0.5448772E-03 Eh
 * total energy  :   -83.0043266 Eh     change       -0.3898400E-03 Eh
 * total energy  :   -83.0045363 Eh     change       -0.2096959E-03 Eh
 * total energy  :   -83.0046324 Eh     change       -0.9601440E-04 Eh
 * total energy  :   -83.0046867 Eh     change       -0.5431781E-04 Eh
 * total energy  :   -83.0051077 Eh     change       -0.1809184E-04 Eh
 * total energy  :   -83.0051189 Eh     change       -0.1126540E-04 Eh
 * total energy  :   -83.0051268 Eh     change       -0.7806027E-05 Eh
 * total energy  :   -83.0051352 Eh     change       -0.8449295E-05 Eh
 * total energy  :   -83.0051440 Eh     change       -0.8818769E-05 Eh
 * total energy  :   -83.0051507 Eh     change       -0.6669369E-05 Eh
 * total energy  :   -83.0051572 Eh     change       -0.6465171E-05 Eh
 * total energy  :   -83.0051629 Eh     change       -0.5759190E-05 Eh
 * total energy  :   -83.0051667 Eh     change       -0.3831991E-05 Eh
   *** GEOMETRY OPTIMIZATION CONVERGED AFTER 35 ITERATIONS ***

 final structure:
================
42
 xtb: 6.5.1 (579679a)
C           -3.00167872364776        2.65231359688577        2.07538747555841
O           -2.43292777768449        1.57399983100149        1.31879814032093
C           -3.24204456234659        0.55962554224597        1.03877231678610
O           -4.39873181445982        0.53106678417113        1.42189158485030
C           -2.63479712618966       -0.57484946665858        0.30619849508812
C           -3.24858547949287       -1.80108596869220        0.36056742254042
O           -4.42026971038395       -2.02505671086494        0.94903351014886
C           -2.59429206227650       -2.99234844436840       -0.23091383936744
O           -3.14394488077236       -4.08106752690108       -0.29969550094230
N           -1.31266182595639       -2.78428700364030       -0.67420489019355
C           -0.76838990641412       -1.60486145851453       -0.73584588440169
C            0.64870336780022       -1.60261944807318       -1.30540552772338
C            0.61165395988022       -1.36666645524463       -2.81927526052920
C            1.30560715934616       -2.96553687415893       -1.03015213035058
N            1.46411973129074       -0.56508637667253       -0.67724230606317
C            1.59156010938727       -0.48328545645512        0.66558964236428
O            0.99100811105044       -1.18535298986703        1.46216984216257
C            2.52527857366017        0.58666990246829        1.09111947174071
N            2.89463491234424        0.88538577667885        2.29759356587826
N            3.75163560466265        1.93979975546058        2.19657995889041
C            3.85111906910492        2.22194679177037        0.93491892705914
C            4.65002373504378        3.29354930164563        0.30280470008582
O            3.10105975437431        1.40129161816840        0.18039263607003
N           -1.40636254462244       -0.47243606836137       -0.35636102481898
C           -0.92788933669906        0.85759836801003       -0.72781757415070
H           -2.22628215655564        3.41009617230034        2.16043914062592
H           -3.30169888511559        2.29594362732224        3.06309994443434
H           -3.87161906780531        3.05305035080376        1.55166421875715
H           -4.80675463394166       -1.18816661340625        1.29468533705003
H            1.62073221925275       -1.42767973898201       -3.22241438242326
H            0.19906545746885       -0.39225822553278       -3.06805253729603
H           -0.00299065150143       -2.13491605705287       -3.28663457560720
H            0.77439337886026       -3.74604787337529       -1.57177263304920
H            1.27880958037810       -3.19204705346124        0.03472325278048
H            2.34003949454020       -2.93590532728446       -1.36605497990621
H            2.04549768196998        0.00578394976336       -1.26487968980726
H            5.34942211354046        2.86295210551662       -0.41409192326444
H            3.99162783391756        3.97412872587730       -0.23785266644930
H            5.19722348915199        3.84328253742945        1.06550379697085
H           -0.37210747776767        1.30719474232343        0.09359581235269
H           -0.28549319902577        0.78694196557465       -1.59704691049192
H           -1.78369351436326        1.47893969215196       -0.97981495567394

          :  Hamiltonian                  GFN1-xTB          :
         :: total energy             -83.005166747727 Eh    ::
         :: gradient norm              0.000679954027 Eh/a0 ::
         :: HOMO-LUMO gap              2.711735418330 eV    ::
         :: SCC energy               -83.782521650499 Eh    ::
         :: -> Gsolv                  -0.071979009449 Eh    ::
         :: repulsion energy           0.805237794532 Eh    ::

    * Orbital Energies and Occupations

         #    Occupation            Energy/Eh            Energy/eV
      -------------------------------------------------------------
         1        2.0000           -0.8668158             -23.5873
       ...           ...                  ...                  ...
        55        2.0000           -0.5062174             -13.7749
        56        2.0000           -0.5045563             -13.7297
        57        2.0000           -0.4988303             -13.5739
        58        2.0000           -0.4894320             -13.3181
        59        2.0000           -0.4817531             -13.1092
        60        2.0000           -0.4745786             -12.9139
        61        2.0000           -0.4703615             -12.7992
        62        2.0000           -0.4674162             -12.7190
        63        2.0000           -0.4612517             -12.5513
        64        2.0000           -0.4536029             -12.3432
        65        2.0000           -0.4501180             -12.2483
        66        2.0000           -0.4244698             -11.5504
        67        2.0000           -0.4228885             -11.5074 (HOMO)
        68                         -0.3232340              -8.7956 (LUMO)
        69                         -0.3132764              -8.5247
        70                         -0.2902327              -7.8976
        71                         -0.2577172              -7.0128
        72                         -0.2388104              -6.4984
        73                         -0.2009206              -5.4673
        74                         -0.1651757              -4.4947
        75                         -0.1425875              -3.8800
        76                         -0.1417175              -3.8563
        77                         -0.1394337              -3.7942
        78                         -0.1310272              -3.5654
       ...                                ...                  ...
       134                          0.7237849              19.6952
      -------------------------------------------------------------
                  HL-Gap            0.0996544 Eh            2.7117 eV

Wiberg/Mayer (AO) data.
largest (>0.10) Wiberg bond orders for each atom

     #   Z sym  total        # sym  WBO       # sym  WBO       # sym  WBO
 ---------------------------------------------------------------------------
     1   6 C    3.858 --    26 H    0.986    28 H    0.979    27 H    0.979
                             2 O    0.883
     2   8 O    2.218 --     3 C    1.124     1 C    0.883     4 O    0.125
     3   6 C    3.855 --     4 O    1.603     2 O    1.124     5 C    1.036
     4   8 O    1.950 --     3 C    1.603     2 O    0.125
     5   6 C    3.925 --     6 C    1.505    24 N    1.075     3 C    1.036
     6   6 C    3.912 --     5 C    1.505     7 O    1.136     8 C    1.020
     7   8 O    2.099 --     6 C    1.136    29 H    0.771
     8   6 C    3.917 --     9 O    1.606    10 N    1.157     6 C    1.020
     9   8 O    1.887 --     8 C    1.606    10 N    0.102
    10   7 N    3.014 --    11 C    1.511     8 C    1.157     9 O    0.102
    11   6 C    3.930 --    10 N    1.511    24 N    1.252    12 C    0.972
    12   6 C    3.935 --    13 C    0.985    14 C    0.985    11 C    0.972
                            15 N    0.929
    13   6 C    3.989 --    12 C    0.985    32 H    0.983    30 H    0.981
                            31 H    0.976
    14   6 C    3.988 --    35 H    0.986    12 C    0.985    33 H    0.983
                            34 H    0.981
    15   7 N    3.346 --    16 C    1.248    12 C    0.929    36 H    0.891
                            17 O    0.175
    16   6 C    3.917 --    17 O    1.586    15 N    1.248    18 C    0.995
    17   8 O    1.890 --    16 C    1.586    15 N    0.175
    18   6 C    3.873 --    19 N    1.621    23 O    1.047    16 C    0.995
    19   7 N    3.000 --    18 C    1.621    20 N    1.199
    20   7 N    2.982 --    21 C    1.610    19 N    1.199
    21   6 C    3.867 --    20 N    1.610    23 O    1.072    22 C    1.032
    22   6 C    3.986 --    21 C    1.032    39 H    0.982    37 H    0.963
                            38 H    0.962
    23   8 O    2.316 --    21 C    1.072    18 C    1.047
    24   7 N    3.516 --    11 C    1.252     5 C    1.075    25 C    0.928
    25   6 C    3.926 --    42 H    0.979    41 H    0.975    40 H    0.975
                            24 N    0.928
    26   1 H    1.008 --     1 C    0.986
    27   1 H    1.005 --     1 C    0.979
    28   1 H    1.005 --     1 C    0.979
    29   1 H    0.851 --     7 O    0.771
    30   1 H    0.996 --    13 C    0.981
    31   1 H    1.001 --    13 C    0.976
    32   1 H    1.001 --    13 C    0.983
    33   1 H    1.014 --    14 C    0.983
    34   1 H    1.012 --    14 C    0.981
    35   1 H    1.002 --    14 C    0.986
    36   1 H    0.933 --    15 N    0.891
    37   1 H    0.996 --    22 C    0.963
    38   1 H    0.996 --    22 C    0.962
    39   1 H    0.998 --    22 C    0.982
    40   1 H    1.011 --    25 C    0.975
    41   1 H    1.008 --    25 C    0.975
    42   1 H    1.003 --    25 C    0.979
 ---------------------------------------------------------------------------

           -------------------------------------------------
          | TOTAL ENERGY              -83.005166747727 Eh   |
          | GRADIENT NORM               0.000679954027 Eh/α |
          | HOMO-LUMO GAP               2.711735418330 eV   |
           -------------------------------------------------

 * finished run on 2023/06/20 at 18:12:23.733
