   * xtb version 6.5.1 (579679a) compiled by 'ehlert@majestix' on 2022-07-11
          program call               : /lustre/hpc/kemi/ree/PhD/git/ReactivityQM/dep/xtb-6.5.1/bin/xtb --gfn 1 /lustre/hpc/kemi/ree/PhD/git/ReactivityQM/calculations/R02deprot/reac01prodE11/conf06/R02deprot_reac01prodE11_conf06_gfn1.xyz --opt --vfukui --chrg -2 --uhf 0 --alpb DMSO

   ID    Z sym.   atoms
    1    6 C      1, 3, 5, 7-10, 12, 14, 17-19, 22, 24
    2    8 O      2, 4, 13, 20, 23, 25
    3    7 N      6, 11, 15, 16, 21
    4    1 H      26-42

      * Solvation model:               ALPB
        Solvent                        DMSO
        Solvent mass                       7.8130E+01 g/mol
          :  Hamiltonian                  GFN1-xTB          :
 * total energy  :   -83.6387270 Eh     change       -0.2417266E-10 Eh
 * total energy  :   -83.6504541 Eh     change       -0.1172703E-01 Eh
 * total energy  :   -83.6538251 Eh     change       -0.3371045E-02 Eh
 * total energy  :   -83.6543142 Eh     change       -0.4891061E-03 Eh
 * total energy  :   -83.6545778 Eh     change       -0.2635441E-03 Eh
 * total energy  :   -83.6547030 Eh     change       -0.1252830E-03 Eh
 * total energy  :   -83.6548798 Eh     change       -0.1767614E-03 Eh
 * total energy  :   -83.6550372 Eh     change       -0.1574299E-03 Eh
 * total energy  :   -83.6551557 Eh     change       -0.1184873E-03 Eh
 * total energy  :   -83.6552266 Eh     change       -0.7083930E-04 Eh
 * total energy  :   -83.6562968 Eh     change       -0.1051638E-04 Eh
 * total energy  :   -83.6563049 Eh     change       -0.8166944E-05 Eh
 * total energy  :   -83.6563118 Eh     change       -0.6880691E-05 Eh
 * total energy  :   -83.6563185 Eh     change       -0.6672035E-05 Eh
 * total energy  :   -83.6563252 Eh     change       -0.6709818E-05 Eh
 * total energy  :   -83.6563322 Eh     change       -0.6971092E-05 Eh
 * total energy  :   -83.6563392 Eh     change       -0.7053099E-05 Eh
 * total energy  :   -83.6563465 Eh     change       -0.7271867E-05 Eh
 * total energy  :   -83.6563493 Eh     change       -0.2791564E-05 Eh
   *** GEOMETRY OPTIMIZATION CONVERGED AFTER 68 ITERATIONS ***

 final structure:
================
42
 xtb: 6.5.1 (579679a)
C           -7.35703364555628        0.05113253870141        0.47782768909247
O           -6.07565165949848        0.43904801499031       -0.00411144342951
C           -5.04317701749557       -0.34880517382598        0.35195475517053
O           -5.20732703389058       -1.33976351486127        1.03901233233258
C           -3.73572788192928        0.11451489907779       -0.16030059294660
N           -2.66863315462032       -0.64451184093811        0.23591685065788
C           -1.46618490671885       -0.27509420477976       -0.15985933968001
C           -0.32074135132505       -1.15741812636584        0.33547828584448
C           -0.35603492738694       -1.16219187642250        1.87633945937318
C           -0.54070381222520       -2.58133096777365       -0.20245919435119
N            0.93378766448590       -0.61995162729618       -0.16778578752995
C            2.16899033067329       -1.06436315928244        0.30212010640495
O            2.30907044503011       -2.19066358849414        0.82468499802213
C            3.20288875115382       -0.12139721457494        0.06152888765807
N            3.03692944762636        1.08110947431838       -0.46439523497626
N            4.16447891115376        1.73428026419515       -0.52597273328029
C            5.20473561161587        0.86048603240414        0.03792611321848
C            6.28562407598208        0.58347768853178       -1.02198670761893
C            5.82481028978965        1.52678779596918        1.27996871625049
O            4.55171293922107       -0.34629769590745        0.40238949519246
N           -1.16262198383297        0.77243492901671       -0.92559942591919
C           -2.16427553047270        1.56085339701674       -1.37267901475853
O           -2.00225863049714        2.56255517876109       -2.10351279641122
C           -3.52374261276806        1.20829697213011       -0.95957369583651
O           -4.49027542109247        2.03610220224037       -1.42593914159946
H           -8.06705055707521        0.79800265464065        0.12750559386751
H           -7.36064771284558        0.01650453736358        1.57101085002500
H           -7.63063510807037       -0.93442720818315        0.09062336376402
H           -1.34797397923710       -1.46611337039463        2.21017495697528
H           -0.14767104536669       -0.16275841192417        2.25885649897656
H            0.38073169896206       -1.85671530993335        2.27764222823752
H           -1.52764072056204       -2.93351990641961        0.09726874330489
H            0.21497912223648       -3.26020219577693        0.19089012589131
H           -0.48265903451225       -2.57999654443282       -1.29130030199653
H            0.89056721776434        0.37042027185865       -0.40358213222775
H            7.04889621168231       -0.08046389442479       -0.61999385085865
H            6.74773680453396        1.52000622617503       -1.32730008853711
H            5.82684535980842        0.11377122706641       -1.89084556730552
H            6.58408309438868        0.88074143031521        1.71713358612216
H            6.27720285539889        2.47578674342996        1.00000297888489
H            5.04523042010920        1.70901455644995        2.01827972112232
H           -4.02063152462897        2.71065779737368       -1.96272128713608

          :  Hamiltonian                  GFN1-xTB          :
         :: total energy             -83.656349284394 Eh    ::
         :: gradient norm              0.000211047336 Eh/a0 ::
         :: HOMO-LUMO gap              0.899884878701 eV    ::
         :: SCC energy               -84.387032380140 Eh    ::
         :: -> Gsolv                  -0.260706435085 Eh    ::
         :: repulsion energy           0.755826677202 Eh    ::

    * Orbital Energies and Occupations

         #    Occupation            Energy/Eh            Energy/eV
      -------------------------------------------------------------
         1        2.0000           -0.8117761             -22.0896
       ...           ...                  ...                  ...
        56        2.0000           -0.4456627             -12.1271
        57        2.0000           -0.4395553             -11.9609
        58        2.0000           -0.4277851             -11.6406
        59        2.0000           -0.4244209             -11.5491
        60        2.0000           -0.4116958             -11.2028
        61        2.0000           -0.4058619             -11.0441
        62        2.0000           -0.3942639             -10.7285
        63        2.0000           -0.3886782             -10.5765
        64        2.0000           -0.3784990             -10.2995
        65        2.0000           -0.3649581              -9.9310
        66        2.0000           -0.3629482              -9.8763
        67        2.0000           -0.3615004              -9.8369
        68        2.0000           -0.3045251              -8.2865 (HOMO)
        69                         -0.2714549              -7.3867 (LUMO)
        70                         -0.2274110              -6.1882
        71                         -0.2184188              -5.9435
        72                         -0.1839072              -5.0044
        73                         -0.1266816              -3.4472
        74                         -0.1159301              -3.1546
        75                         -0.1003669              -2.7311
        76                         -0.0982526              -2.6736
        77                         -0.0942078              -2.5635
        78                         -0.0910041              -2.4763
        79                         -0.0893093              -2.4302
       ...                                ...                  ...
       134                          0.7433945              20.2288
      -------------------------------------------------------------
                  HL-Gap            0.0330702 Eh            0.8999 eV

Wiberg/Mayer (AO) data.
largest (>0.10) Wiberg bond orders for each atom

     #   Z sym  total        # sym  WBO       # sym  WBO       # sym  WBO
 ---------------------------------------------------------------------------
     1   6 C    3.890 --    26 H    0.987    28 H    0.980    27 H    0.980
                             2 O    0.915
     2   8 O    2.179 --     3 C    1.077     1 C    0.915     4 O    0.122
     3   6 C    3.835 --     4 O    1.630     2 O    1.077     5 C    1.031
     4   8 O    1.892 --     3 C    1.630     2 O    0.122
     5   6 C    3.964 --    24 C    1.473     6 N    1.208     3 C    1.031
     6   7 N    2.995 --     7 C    1.456     5 C    1.208
     7   6 C    3.952 --     6 N    1.456    21 N    1.363     8 C    0.973
     8   6 C    3.956 --    10 C    0.984     9 C    0.979     7 C    0.973
                            11 N    0.955
     9   6 C    3.994 --    30 H    0.987    29 H    0.986    31 H    0.983
                             8 C    0.979
    10   6 C    3.995 --    34 H    0.987    32 H    0.987     8 C    0.984
                            33 H    0.982
    11   7 N    3.211 --    12 C    1.101     8 C    0.955    35 H    0.905
                            13 O    0.109
    12   6 C    3.926 --    13 O    1.453    14 C    1.202    11 N    1.101
    13   8 O    1.791 --    12 C    1.453    11 N    0.109
    14   6 C    3.847 --    15 N    1.416    12 C    1.202    20 O    0.929
                            16 N    0.169
    15   7 N    3.046 --    16 N    1.438    14 C    1.416
    16   7 N    2.860 --    15 N    1.438    17 C    0.984    14 C    0.169
    17   6 C    3.902 --    16 N    0.984    18 C    0.977    19 C    0.976
                            20 O    0.930
    18   6 C    3.994 --    37 H    0.988    36 H    0.987    38 H    0.986
                            17 C    0.977
    19   6 C    3.994 --    40 H    0.988    39 H    0.987    41 H    0.986
                            17 C    0.976
    20   8 O    2.051 --    17 C    0.930    14 C    0.929
    21   7 N    3.000 --     7 C    1.363    22 C    1.259    23 O    0.124
    22   6 C    3.932 --    23 O    1.455    21 N    1.259    24 C    1.080
    23   8 O    1.793 --    22 C    1.455    21 N    0.124
    24   6 C    3.905 --     5 C    1.473    22 C    1.080    25 O    1.063
    25   8 O    2.040 --    24 C    1.063    42 H    0.817
    26   1 H    1.014 --     1 C    0.987
    27   1 H    1.012 --     1 C    0.980
    28   1 H    1.011 --     1 C    0.980
    29   1 H    1.019 --     9 C    0.986
    30   1 H    1.008 --     9 C    0.987
    31   1 H    1.018 --     9 C    0.983
    32   1 H    1.018 --    10 C    0.987
    33   1 H    1.024 --    10 C    0.982
    34   1 H    1.011 --    10 C    0.987
    35   1 H    1.004 --    11 N    0.905
    36   1 H    1.009 --    18 C    0.987
    37   1 H    1.011 --    18 C    0.988
    38   1 H    1.016 --    18 C    0.986
    39   1 H    1.009 --    19 C    0.987
    40   1 H    1.011 --    19 C    0.988
    41   1 H    1.016 --    19 C    0.986
    42   1 H    0.880 --    25 O    0.817
 ---------------------------------------------------------------------------

           -------------------------------------------------
          | TOTAL ENERGY              -83.656349284394 Eh   |
          | GRADIENT NORM               0.000211047336 Eh/α |
          | HOMO-LUMO GAP               0.899884878701 eV   |
           -------------------------------------------------

 * finished run on 2023/06/20 at 17:55:21.554
