   * xtb version 6.5.1 (579679a) compiled by 'ehlert@majestix' on 2022-07-11
          program call               : /lustre/hpc/kemi/ree/PhD/git/ReactivityQM/dep/xtb-6.5.1/bin/xtb --gfn 1 /lustre/hpc/kemi/ree/PhD/git/ReactivityQM/calculations/R02oxygendeprot/reac01prodE09/conf17/R02oxygendeprot_reac01prodE09_conf17_gfn1.xyz --opt --vfukui --chrg -2 --uhf 0 --alpb DMSO

   ID    Z sym.   atoms
    1    6 C      1, 3, 5, 7-10, 12, 14, 16, 17, 20, 22, 24
    2    8 O      2, 4, 13, 15, 23, 25
    3    7 N      6, 11, 18, 19, 21
    4    1 H      26-42

      * Solvation model:               ALPB
        Solvent                        DMSO
        Solvent mass                       7.8130E+01 g/mol
          :  Hamiltonian                  GFN1-xTB          :
 * total energy  :   -83.5975960 Eh     change       -0.1635215E-08 Eh
 * total energy  :   -83.6116712 Eh     change       -0.1407525E-01 Eh
 * total energy  :   -83.6168030 Eh     change       -0.5131788E-02 Eh
 * total energy  :   -83.6183638 Eh     change       -0.1560852E-02 Eh
 * total energy  :   -83.6215174 Eh     change       -0.3153550E-02 Eh
 * total energy  :   -83.6238942 Eh     change       -0.2376835E-02 Eh
 * total energy  :   -83.6263505 Eh     change       -0.2456303E-02 Eh
 * total energy  :   -83.6287852 Eh     change       -0.2434710E-02 Eh
 * total energy  :   -83.6303443 Eh     change       -0.1559013E-02 Eh
 * total energy  :   -83.6313895 Eh     change       -0.1045284E-02 Eh
 * total energy  :   -83.6348541 Eh     change       -0.9395966E-05 Eh
 * total energy  :   -83.6348668 Eh     change       -0.1273521E-04 Eh
 * total energy  :   -83.6348853 Eh     change       -0.1847902E-04 Eh
 * total energy  :   -83.6348952 Eh     change       -0.9976167E-05 Eh
 * total energy  :   -83.6349063 Eh     change       -0.1104847E-04 Eh
 * total energy  :   -83.6349197 Eh     change       -0.1343578E-04 Eh
 * total energy  :   -83.6349291 Eh     change       -0.9341861E-05 Eh
 * total energy  :   -83.6349343 Eh     change       -0.5208556E-05 Eh
 * total energy  :   -83.6349381 Eh     change       -0.3832193E-05 Eh
   *** GEOMETRY OPTIMIZATION CONVERGED AFTER 56 ITERATIONS ***

 final structure:
================
42
 xtb: 6.5.1 (579679a)
C           -5.94378369567354       -1.50526821927248        0.38715691361615
O           -4.73555667167158       -0.76902746163880        0.29420141619556
C           -4.75510244810566        0.29333721252725       -0.57575607547549
O           -5.77449374941962        0.54883300688110       -1.20237675803532
C           -3.48734885112526        0.99456207628231       -0.62666225333793
N           -2.49737021965696        0.48600054508417        0.19915571732125
C           -1.33358852972459        1.02302370285031        0.22259238234404
C           -0.25288522550681        0.54817729181422        1.17806814664509
C           -0.33180896607114        1.45623207846058        2.41903983653995
C           -0.51273753906842       -0.91551940592349        1.56606984997877
N            1.02921650170611        0.71837761384735        0.48907711802113
C            2.21732183550434        0.19164810233718        1.15460431465460
O            2.33049786964298        0.25917084811999        2.42027353347895
C            3.10412447394968       -0.42192220538456        0.31936774914544
O            3.02390249259969       -0.40009143769202       -1.10643395984181
C            4.25129718316169       -0.73683637111964       -1.51648760240047
C            4.50977590516160       -0.81578716143913       -2.98247667122962
N            5.12873450773116       -0.96837250285809       -0.61618495024315
N            4.48930667825429       -0.76260469428068        0.65909165854261
C            4.58339358818045       -2.01740564348908        1.42155126410501
N           -1.02548770962224        2.12160124121054       -0.55327838342110
C           -1.90363071486898        2.73318389743185       -1.40121705889192
O           -1.54559739381792        3.71349343148145       -2.05738349684823
C           -3.28870588173946        2.12852866084474       -1.45790675492634
O           -4.13928533156071        2.64845535343195       -2.20776232665406
H           -5.77192905304739       -2.31681765990171        1.09338834788234
H           -6.22525356780051       -1.91955522921069       -0.58675134023052
H           -6.76112399316334       -0.87171326247790        0.74781401843799
H           -1.34698246764493        1.44331346483282        2.81702698620499
H            0.35334029176186        1.11433712768584        3.19258501358018
H           -0.07189912330475        2.47892298184946        2.14577789773127
H           -1.52664694174981       -1.01785904725226        1.95322853758793
H           -0.40711360351981       -1.55912167011512        0.69280884675530
H            0.19503285607369       -1.23323923042677        2.33058489068154
H            0.96837203636457        0.29898187073349       -0.43607269359269
H            3.83276066383410       -1.53565868440403       -3.44163574161053
H            5.53744383853836       -1.12439625191307       -3.15785429017739
H            4.33901675985362        0.15472719960656       -3.44857455493009
H            5.63540826503399       -2.24872689236064        1.58501547118619
H            4.10340678341355       -2.84853639726273        0.89429042067162
H            4.08981039418315       -1.85439961607685        2.37966042242083
H           -0.08383324707317        2.48795533716763       -0.50857884188569

          :  Hamiltonian                  GFN1-xTB          :
         :: total energy             -83.634938114227 Eh    ::
         :: gradient norm              0.000262377092 Eh/a0 ::
         :: HOMO-LUMO gap              0.779357308632 eV    ::
         :: SCC energy               -84.377683704504 Eh    ::
         :: -> Gsolv                  -0.260626868747 Eh    ::
         :: repulsion energy           0.768206545480 Eh    ::

    * Orbital Energies and Occupations

         #    Occupation            Energy/Eh            Energy/eV
      -------------------------------------------------------------
         1        2.0000           -0.7888964             -21.4670
       ...           ...                  ...                  ...
        56        2.0000           -0.4468806             -12.1602
        57        2.0000           -0.4419457             -12.0260
        58        2.0000           -0.4276622             -11.6373
        59        2.0000           -0.4243719             -11.5477
        60        2.0000           -0.4189896             -11.4013
        61        2.0000           -0.4112520             -11.1907
        62        2.0000           -0.4006158             -10.9013
        63        2.0000           -0.3819229             -10.3927
        64        2.0000           -0.3798089             -10.3351
        65        2.0000           -0.3656836              -9.9508
        66        2.0000           -0.3570298              -9.7153
        67        2.0000           -0.3519771              -9.5778
        68        2.0000           -0.2878617              -7.8331 (HOMO)
        69        0.0000           -0.2592209              -7.0538 (LUMO)
        70                         -0.2208965              -6.0109
        71                         -0.2053566              -5.5880
        72                         -0.1855902              -5.0502
        73                         -0.1293498              -3.5198
        74                         -0.1203177              -3.2740
        75                         -0.1179385              -3.2093
        76                         -0.0971002              -2.6422
        77                         -0.0921575              -2.5077
        78                         -0.0902738              -2.4565
        79                         -0.0877095              -2.3867
       ...                                ...                  ...
       134                          0.7700081              20.9530
      -------------------------------------------------------------
                  HL-Gap            0.0286409 Eh            0.7794 eV

Wiberg/Mayer (AO) data.
largest (>0.10) Wiberg bond orders for each atom

     #   Z sym  total        # sym  WBO       # sym  WBO       # sym  WBO
 ---------------------------------------------------------------------------
     1   6 C    3.904 --    26 H    0.987    28 H    0.980    27 H    0.980
                             2 O    0.932
     2   8 O    2.132 --     3 C    1.016     1 C    0.932     4 O    0.106
     3   6 C    3.848 --     4 O    1.582     5 C    1.131     2 O    1.016
     4   8 O    1.860 --     3 C    1.582     2 O    0.106
     5   6 C    3.919 --    24 C    1.273     6 N    1.145     3 C    1.131
                            25 O    0.130
     6   7 N    3.021 --     7 C    1.633     5 C    1.145
     7   6 C    3.926 --     6 N    1.633    21 N    1.095     8 C    0.976
     8   6 C    3.966 --    10 C    0.989     9 C    0.980     7 C    0.976
                            11 N    0.965
     9   6 C    3.993 --    29 H    0.989    31 H    0.987     8 C    0.980
                            30 H    0.976
    10   6 C    3.996 --     8 C    0.989    33 H    0.987    32 H    0.985
                            34 H    0.984
    11   7 N    3.075 --     8 C    0.965    12 C    0.947    35 H    0.941
    12   6 C    3.932 --    14 C    1.519    13 O    1.337    11 N    0.947
    13   8 O    1.701 --    12 C    1.337    14 C    0.172
    14   6 C    3.658 --    12 C    1.519    19 N    0.947    15 O    0.873
                            13 O    0.172
    15   8 O    2.190 --    16 C    1.087    14 C    0.873    18 N    0.133
    16   6 C    3.906 --    18 N    1.709    15 O    1.087    17 C    1.014
    17   6 C    3.995 --    16 C    1.014    37 H    0.987    36 H    0.973
                            38 H    0.973
    18   7 N    2.947 --    16 C    1.709    19 N    0.987    15 O    0.133
    19   7 N    3.064 --    18 N    0.987    20 C    0.969    14 C    0.947
    20   6 C    3.981 --    39 H    0.989    41 H    0.986    40 H    0.984
                            19 N    0.969
    21   7 N    3.438 --    22 C    1.179     7 C    1.095    42 H    0.893
                            23 O    0.136
    22   6 C    3.883 --    23 O    1.559    21 N    1.179    24 C    0.971
    23   8 O    1.838 --    22 C    1.559    21 N    0.136
    24   6 C    3.944 --    25 O    1.510     5 C    1.273    22 C    0.971
    25   8 O    1.814 --    24 C    1.510     5 C    0.130
    26   1 H    1.017 --     1 C    0.987
    27   1 H    1.015 --     1 C    0.980
    28   1 H    1.015 --     1 C    0.980
    29   1 H    1.009 --     9 C    0.989
    30   1 H    1.032 --     9 C    0.976
    31   1 H    1.012 --     9 C    0.987
    32   1 H    1.019 --    10 C    0.985
    33   1 H    1.008 --    10 C    0.987
    34   1 H    1.016 --    10 C    0.984
    35   1 H    0.982 --    11 N    0.941
    36   1 H    1.003 --    17 C    0.973
    37   1 H    1.006 --    17 C    0.987
    38   1 H    1.004 --    17 C    0.973
    39   1 H    1.025 --    20 C    0.989
    40   1 H    1.021 --    20 C    0.984
    41   1 H    1.034 --    20 C    0.986
    42   1 H    0.964 --    21 N    0.893
 ---------------------------------------------------------------------------

           -------------------------------------------------
          | TOTAL ENERGY              -83.634938114227 Eh   |
          | GRADIENT NORM               0.000262377092 Eh/α |
          | HOMO-LUMO GAP               0.779357308632 eV   |
           -------------------------------------------------

 * finished run on 2023/06/21 at 17:10:44.272
