   * xtb version 6.5.1 (579679a) compiled by 'ehlert@majestix' on 2022-07-11
          program call               : /lustre/hpc/kemi/ree/PhD/git/ReactivityQM/dep/xtb-6.5.1/bin/xtb --gfn 1 /lustre/hpc/kemi/ree/PhD/git/ReactivityQM/calculations/R02deprot/reac01prodN18/conf08/R02deprot_reac01prodN18_conf08_gfn1.xyz --opt --vfukui --chrg 0 --uhf 0 --alpb DMSO

   ID    Z sym.   atoms
    1    6 C      1, 3, 5, 7-10, 12, 13, 15, 18, 19, 22, 24
    2    8 O      2, 4, 14, 20, 23, 25
    3    7 N      6, 11, 16, 17, 21
    4    1 H      26-42

      * Solvation model:               ALPB
        Solvent                        DMSO
        Solvent mass                       7.8130E+01 g/mol
          :  Hamiltonian                  GFN1-xTB          :
 * total energy  :   -82.9367910 Eh     change       -0.8014922E-11 Eh
 * total energy  :   -82.9486567 Eh     change       -0.1186568E-01 Eh
 * total energy  :   -82.9520677 Eh     change       -0.3410989E-02 Eh
 * total energy  :   -82.9527401 Eh     change       -0.6723940E-03 Eh
 * total energy  :   -82.9531950 Eh     change       -0.4549608E-03 Eh
 * total energy  :   -82.9534672 Eh     change       -0.2721898E-03 Eh
 * total energy  :   -82.9537549 Eh     change       -0.2877141E-03 Eh
 * total energy  :   -82.9540693 Eh     change       -0.3143463E-03 Eh
 * total energy  :   -82.9543209 Eh     change       -0.2515661E-03 Eh
 * total energy  :   -82.9544984 Eh     change       -0.1775838E-03 Eh
 * total energy  :   -83.0001169 Eh     change       -0.1202296E-03 Eh
 * total energy  :   -83.0002176 Eh     change       -0.1007374E-03 Eh
 * total energy  :   -83.0002868 Eh     change       -0.6918825E-04 Eh
 * total energy  :   -83.0003476 Eh     change       -0.6077172E-04 Eh
 * total energy  :   -83.0003745 Eh     change       -0.2691502E-04 Eh
 * total energy  :   -83.0003990 Eh     change       -0.2450755E-04 Eh
 * total energy  :   -83.0004100 Eh     change       -0.1105806E-04 Eh
 * total energy  :   -83.0004173 Eh     change       -0.7287669E-05 Eh
 * total energy  :   -83.0004217 Eh     change       -0.4397844E-05 Eh
   *** GEOMETRY OPTIMIZATION CONVERGED AFTER 74 ITERATIONS ***

 final structure:
================
42
 xtb: 6.5.1 (579679a)
C            5.51315265910622        1.86334006015079        0.06942883833773
O            4.19706327409428        1.29953944260428        0.06067240052946
C            3.93763792094990        0.37699461649803        0.97513498783124
O            4.75754796615862       -0.00024744008398        1.79462315114313
C            2.55831095352577       -0.15864929018691        0.91381173270209
N            1.72622584540675        0.36118790306005       -0.04773835948939
C            0.51691346434493       -0.07750334522581       -0.12050896002350
C           -0.45231794145297        0.51333034095861       -1.12765535512115
C            0.32523804079683        1.27082394189547       -2.21682867157421
C           -1.33908496238118        1.52940045459322       -0.39634073632002
N           -1.19651848162836       -0.59932863717282       -1.74804678755943
C           -0.42591751230753       -1.41438440030817       -2.70025377782859
C           -2.53590904241303       -0.80608834500046       -1.82231804570483
O           -3.03429595444295       -1.45954543595239       -2.72761649247156
C           -3.41633501600680       -0.37357854593917       -0.69380608893795
N           -4.62624652020584        0.07596668660135       -0.77522342468838
N           -5.11357601925522        0.13228921749837        0.50160172255380
C           -4.17899686363358       -0.30937931942144        1.27858000968624
C           -4.21293210744729       -0.45878309188944        2.74993741408255
O           -3.07284614379155       -0.65035883177987        0.58582867986586
N            0.03408736746240       -1.03763960906409        0.71616326961304
C            0.76732206192560       -1.64260101572653        1.71841103660968
O            0.27498575752555       -2.49934850171833        2.42964230722144
C            2.14153093710291       -1.12846154433952        1.79362040637143
O            2.91138404330596       -1.65518088308230        2.74531173334068
H            5.57289416920670        2.52394419560416       -0.79297737533713
H            5.66997243976578        2.42653173220704        0.99208204159010
H            6.26117791069263        1.07076996201397       -0.00315557041635
H            0.83003624445163        2.12046845031799       -1.76024407984788
H           -0.36216554913121        1.63112507494120       -2.97965517123928
H            1.08338017286216        0.64273723270997       -2.67813716750559
H           -1.69590484716445        1.14152309322161        0.55291362577349
H           -0.73895565719112        2.41397513098191       -0.18699488620238
H           -2.18353601526996        1.82218263655917       -1.01734956677285
H           -0.92918652294742       -1.33516857217824        0.61781104440999
H           -0.45016036832222       -0.97516335559582       -3.69827395195495
H            0.59944716833368       -1.49365711445630       -2.34721553063143
H           -0.87334604441218       -2.40719774406095       -2.73783628438494
H           -3.47122239732397        0.19581463136192        3.20742165165733
H           -3.97405596134782       -1.48564728445189        3.02609669479630
H           -5.20180721003270       -0.19937968854515        3.12017076026998
H            3.80700574108726       -1.24465380760023        2.72891177562361

          :  Hamiltonian                  GFN1-xTB          :
         :: total energy             -83.000421719202 Eh    ::
         :: gradient norm              0.000831578512 Eh/a0 ::
         :: HOMO-LUMO gap              2.852397657813 eV    ::
         :: SCC energy               -83.777737191616 Eh    ::
         :: -> Gsolv                  -0.052181988791 Eh    ::
         :: repulsion energy           0.805392468447 Eh    ::

    * Orbital Energies and Occupations

         #    Occupation            Energy/Eh            Energy/eV
      -------------------------------------------------------------
         1        2.0000           -0.8674349             -23.6041
       ...           ...                  ...                  ...
        55        2.0000           -0.5039319             -13.7127
        56        2.0000           -0.5021640             -13.6646
        57        2.0000           -0.5001481             -13.6097
        58        2.0000           -0.4911764             -13.3656
        59        2.0000           -0.4877155             -13.2714
        60        2.0000           -0.4814786             -13.1017
        61        2.0000           -0.4686393             -12.7523
        62        2.0000           -0.4641282             -12.6296
        63        2.0000           -0.4549888             -12.3809
        64        2.0000           -0.4543199             -12.3627
        65        2.0000           -0.4493426             -12.2272
        66        2.0000           -0.4390480             -11.9471
        67        2.0000           -0.4314665             -11.7408 (HOMO)
        68                         -0.3266429              -8.8884 (LUMO)
        69                         -0.3030402              -8.2461
        70                         -0.2860167              -7.7829
        71                         -0.2581873              -7.0256
        72                         -0.2429762              -6.6117
        73                         -0.2303757              -6.2688
        74                         -0.1606804              -4.3723
        75                         -0.1438166              -3.9134
        76                         -0.1394962              -3.7959
        77                         -0.1380083              -3.7554
        78                         -0.1309421              -3.5631
       ...                                ...                  ...
       134                          0.7229583              19.6727
      -------------------------------------------------------------
                  HL-Gap            0.1048237 Eh            2.8524 eV

Wiberg/Mayer (AO) data.
largest (>0.10) Wiberg bond orders for each atom

     #   Z sym  total        # sym  WBO       # sym  WBO       # sym  WBO
 ---------------------------------------------------------------------------
     1   6 C    3.866 --    26 H    0.986    28 H    0.979    27 H    0.979
                             2 O    0.892
     2   8 O    2.217 --     3 C    1.136     1 C    0.892     4 O    0.130
     3   6 C    3.849 --     4 O    1.606     2 O    1.136     5 C    1.020
     4   8 O    1.944 --     3 C    1.606     2 O    0.130
     5   6 C    3.963 --    24 C    1.488     6 N    1.172     3 C    1.020
     6   7 N    3.024 --     7 C    1.592     5 C    1.172
     7   6 C    3.934 --     6 N    1.592    21 N    1.174     8 C    0.972
     8   6 C    3.939 --     9 C    0.990    10 C    0.984     7 C    0.972
                            11 N    0.916
     9   6 C    3.989 --     8 C    0.990    30 H    0.985    31 H    0.981
                            29 H    0.980
    10   6 C    3.988 --     8 C    0.984    32 H    0.981    33 H    0.980
                            34 H    0.979
    11   7 N    3.364 --    13 C    1.251    12 C    0.936     8 C    0.916
                            14 O    0.174
    12   6 C    3.936 --    37 H    0.985    36 H    0.981    38 H    0.980
                            11 N    0.936
    13   6 C    3.915 --    14 O    1.596    11 N    1.251    15 C    0.966
    14   8 O    1.906 --    13 C    1.596    11 N    0.174
    15   6 C    3.873 --    16 N    1.647    20 O    1.042    13 C    0.966
    16   7 N    2.997 --    15 C    1.647    17 N    1.179
    17   7 N    2.983 --    18 C    1.634    16 N    1.179
    18   6 C    3.867 --    17 N    1.634    20 O    1.054    19 C    1.031
    19   6 C    3.986 --    18 C    1.031    41 H    0.982    40 H    0.965
                            39 H    0.963
    20   8 O    2.316 --    18 C    1.054    15 C    1.042
    21   7 N    3.466 --     7 C    1.174    22 C    1.122    35 H    0.877
                            23 O    0.135
    22   6 C    3.908 --    23 O    1.605    21 N    1.122    24 C    1.052
    23   8 O    1.903 --    22 C    1.605    21 N    0.135
    24   6 C    3.921 --     5 C    1.488    25 O    1.130    22 C    1.052
    25   8 O    2.097 --    24 C    1.130    42 H    0.775
    26   1 H    1.010 --     1 C    0.986
    27   1 H    1.005 --     1 C    0.979
    28   1 H    1.006 --     1 C    0.979
    29   1 H    1.008 --     9 C    0.980
    30   1 H    0.998 --     9 C    0.985
    31   1 H    1.005 --     9 C    0.981
    32   1 H    1.005 --    10 C    0.981
    33   1 H    1.001 --    10 C    0.980
    34   1 H    1.001 --    10 C    0.979
    35   1 H    0.944 --    21 N    0.877
    36   1 H    1.002 --    12 C    0.981
    37   1 H    1.003 --    12 C    0.985
    38   1 H    1.006 --    12 C    0.980
    39   1 H    0.998 --    19 C    0.963
    40   1 H    0.997 --    19 C    0.965
    41   1 H    0.998 --    19 C    0.982
    42   1 H    0.851 --    25 O    0.775
 ---------------------------------------------------------------------------

           -------------------------------------------------
          | TOTAL ENERGY              -83.000421719202 Eh   |
          | GRADIENT NORM               0.000831578512 Eh/α |
          | HOMO-LUMO GAP               2.852397657813 eV   |
           -------------------------------------------------

 * finished run on 2023/06/20 at 18:29:38.985
