   * xtb version 6.5.1 (579679a) compiled by 'ehlert@majestix' on 2022-07-11
          program call               : /lustre/hpc/kemi/ree/PhD/git/ReactivityQM/dep/xtb-6.5.1/bin/xtb --gfn 1 /lustre/hpc/kemi/ree/PhD/git/ReactivityQM/calculations/R02methylcation/reac01prodE12/conf10/R02methylcation_reac01prodE12_conf10_gfn1.xyz --opt --vfukui --chrg -2 --uhf 0 --alpb DMSO

   ID    Z sym.   atoms
    1    6 C      1, 3, 5, 6, 8, 9, 12-15, 17, 19, 22, 23
    2    8 O      2, 4, 7, 10, 18, 24
    3    7 N      11, 16, 20, 21, 25
    4    1 H      26-42

      * Solvation model:               ALPB
        Solvent                        DMSO
        Solvent mass                       7.8130E+01 g/mol
          :  Hamiltonian                  GFN1-xTB          :
 * total energy  :   -83.5992653 Eh     change       -0.1141700E-09 Eh
 * total energy  :   -83.6135926 Eh     change       -0.1432738E-01 Eh
 * total energy  :   -83.6192093 Eh     change       -0.5616624E-02 Eh
 * total energy  :   -83.6201786 Eh     change       -0.9693531E-03 Eh
 * total energy  :   -83.6209331 Eh     change       -0.7545306E-03 Eh
 * total energy  :   -83.6213351 Eh     change       -0.4019473E-03 Eh
 * total energy  :   -83.6218161 Eh     change       -0.4809773E-03 Eh
 * total energy  :   -83.6222599 Eh     change       -0.4438280E-03 Eh
 * total energy  :   -83.6226213 Eh     change       -0.3613549E-03 Eh
 * total energy  :   -83.6229249 Eh     change       -0.3036750E-03 Eh
 * total energy  :   -83.6452802 Eh     change       -0.1793341E-04 Eh
 * total energy  :   -83.6452995 Eh     change       -0.1926318E-04 Eh
 * total energy  :   -83.6453170 Eh     change       -0.1755032E-04 Eh
 * total energy  :   -83.6453348 Eh     change       -0.1777542E-04 Eh
 * total energy  :   -83.6453471 Eh     change       -0.1224847E-04 Eh
 * total energy  :   -83.6453576 Eh     change       -0.1056387E-04 Eh
 * total energy  :   -83.6453643 Eh     change       -0.6720085E-05 Eh
 * total energy  :   -83.6453698 Eh     change       -0.5465189E-05 Eh
 * total energy  :   -83.6453745 Eh     change       -0.4675150E-05 Eh
   *** GEOMETRY OPTIMIZATION CONVERGED AFTER 84 ITERATIONS ***

 final structure:
================
42
 xtb: 6.5.1 (579679a)
C           -5.53746288755571        2.68765011345678       -1.18178816790996
O           -4.40099317405828        2.22289340316682       -0.48016250716322
C           -3.71994575073297        1.18155380905126       -1.08080266779041
O           -4.14291347204635        0.72651854217805       -2.14929997730306
C           -2.57370185108884        0.72376008033590       -0.36231349172055
C           -2.07628387366604        1.27670207292243        0.83461163652609
O           -2.57104245935324        2.20558308882571        1.50473863115808
C           -0.76131802918714        0.60786280819914        1.35622540680561
C           -0.63277244794627        0.79579628853753        2.87113905115250
O            0.38201259903811        1.14733363780999        0.70637062782610
N           -0.86361078758606       -0.81016907082746        1.05041625038497
C           -1.00988822793920       -0.98239763882553       -0.34538217734567
C            0.04299513614454       -1.86132243452388       -0.99804178488053
C            0.00426433204628       -3.28924898989636       -0.42838634969827
C           -0.18557966975446       -1.89263438063877       -2.51668079380286
N            1.28736404964498       -1.16012314983476       -0.63564633202265
C            2.41741323274436       -1.64516341181416       -1.08505218390106
O            2.64703086847519       -2.65340884587402       -1.79442785858755
C            3.60737098954879       -0.81256388453921       -0.66292552525117
N            4.84259121462292       -0.98146903496327       -1.03636329541001
N            5.58441321021128        0.00326625644340       -0.42736478898101
C            4.75294292175659        0.70233036993017        0.27494411475646
C            5.06628277591487        1.87703439887036        1.12421393414103
O            3.49389288030089        0.24754184202653        0.17175221944028
N           -1.83425653173021       -0.29291878761721       -1.02551840990535
H           -5.97366368708219        3.49600183619400       -0.59419923680698
H           -6.27907861618834        1.89020362402500       -1.30865621237098
H           -5.26375358463399        3.06699576275687       -2.17358847994716
H           -0.63349545665131        1.85970338116424        3.10549801388542
H            0.29919630601358        0.35502364409484        3.21853723192245
H           -1.46922425059255        0.31749369305126        3.37816309265490
H           -0.03807941556928       -1.29563602077207        1.38884933736727
H            0.21778026773555       -3.28250751163441        0.63993374625163
H            0.74375226048145       -3.91685717628130       -0.92475343822938
H           -0.98453998973721       -3.72263597575900       -0.58389025332529
H           -1.17971132918303       -2.29039472702963       -2.72722642581647
H            0.55513120207918       -2.52353533989569       -3.00587599953816
H           -0.12297315141768       -0.88352040114999       -2.92673578638611
H            0.87763703728651        0.39100589639021        0.27032699382187
H            4.83402609640141        1.66176804838934        2.16698474090944
H            6.12339121968468        2.11382590658918        1.03555512127999
H            4.47480104356952        2.73865527747419        0.81507899381101

          :  Hamiltonian                  GFN1-xTB          :
         :: total energy             -83.645374479098 Eh    ::
         :: gradient norm              0.000594153146 Eh/a0 ::
         :: HOMO-LUMO gap              2.322825345140 eV    ::
         :: SCC energy               -84.370299866171 Eh    ::
         :: -> Gsolv                  -0.266563839354 Eh    ::
         :: repulsion energy           0.751463193718 Eh    ::

    * Orbital Energies and Occupations

         #    Occupation            Energy/Eh            Energy/eV
      -------------------------------------------------------------
         1        2.0000           -0.8197159             -22.3056
       ...           ...                  ...                  ...
        56        2.0000           -0.4387787             -11.9398
        57        2.0000           -0.4326745             -11.7737
        58        2.0000           -0.4212854             -11.4638
        59        2.0000           -0.4162415             -11.3265
        60        2.0000           -0.4122684             -11.2184
        61        2.0000           -0.4105518             -11.1717
        62        2.0000           -0.3968773             -10.7996
        63        2.0000           -0.3837824             -10.4433
        64        2.0000           -0.3754810             -10.2174
        65        2.0000           -0.3649396              -9.9305
        66        2.0000           -0.3518814              -9.5752
        67        2.0000           -0.3504137              -9.5352
        68        2.0000           -0.3288236              -8.9477 (HOMO)
        69                         -0.2434613              -6.6249 (LUMO)
        70                         -0.2196855              -5.9779
        71                         -0.2188889              -5.9563
        72                         -0.2002678              -5.4496
        73                         -0.1274813              -3.4689
        74                         -0.1270798              -3.4580
        75                         -0.1131681              -3.0795
        76                         -0.1029040              -2.8002
        77                         -0.0903594              -2.4588
        78                         -0.0864597              -2.3527
        79                         -0.0801055              -2.1798
       ...                                ...                  ...
       134                          0.7567108              20.5911
      -------------------------------------------------------------
                  HL-Gap            0.0853623 Eh            2.3228 eV

Wiberg/Mayer (AO) data.
largest (>0.10) Wiberg bond orders for each atom

     #   Z sym  total        # sym  WBO       # sym  WBO       # sym  WBO
 ---------------------------------------------------------------------------
     1   6 C    3.913 --    26 H    0.987    28 H    0.980    27 H    0.980
                             2 O    0.942
     2   8 O    2.117 --     3 C    0.991     1 C    0.942
     3   6 C    3.853 --     4 O    1.520     5 C    1.211     2 O    0.991
     4   8 O    1.814 --     3 C    1.520
     5   6 C    3.892 --     6 C    1.317     3 C    1.211    25 N    1.046
                             7 O    0.117
     6   6 C    3.923 --     7 O    1.520     5 C    1.317     8 C    0.908
     7   8 O    1.823 --     6 C    1.520     5 C    0.117
     8   6 C    3.890 --     9 C    0.989    11 N    0.947    10 O    0.946
                             6 C    0.908
     9   6 C    3.997 --     8 C    0.989    31 H    0.988    30 H    0.987
                            29 H    0.984
    10   8 O    1.878 --     8 C    0.946    39 H    0.801
    11   7 N    3.128 --    12 C    1.041     8 C    0.947    32 H    0.933
                            25 N    0.100
    12   6 C    3.938 --    25 N    1.741    11 N    1.041    13 C    0.971
    13   6 C    3.970 --    15 C    0.990    14 C    0.982    12 C    0.971
                            16 N    0.966
    14   6 C    3.993 --    35 H    0.988    33 H    0.983    34 H    0.982
                            13 C    0.982
    15   6 C    3.995 --    13 C    0.990    36 H    0.987    38 H    0.986
                            37 H    0.984
    16   7 N    2.996 --    17 C    1.493    13 C    0.966    18 O    0.223
                            39 H    0.116
    17   6 C    3.941 --    16 N    1.493    18 O    1.419    19 C    0.957
    18   8 O    1.771 --    17 C    1.419    16 N    0.223
    19   6 C    3.831 --    20 N    1.623    24 O    1.045    17 C    0.957
    20   7 N    2.968 --    19 C    1.623    21 N    1.169
    21   7 N    2.974 --    22 C    1.636    20 N    1.169
    22   6 C    3.886 --    21 N    1.636    24 O    1.077    23 C    1.025
    23   6 C    3.993 --    22 C    1.025    41 H    0.985    42 H    0.970
                            40 H    0.968
    24   8 O    2.311 --    22 C    1.077    19 C    1.045
    25   7 N    3.016 --    12 C    1.741     5 C    1.046    11 N    0.100
    26   1 H    1.019 --     1 C    0.987
    27   1 H    1.019 --     1 C    0.980
    28   1 H    1.019 --     1 C    0.980
    29   1 H    1.019 --     9 C    0.984
    30   1 H    1.010 --     9 C    0.987
    31   1 H    1.012 --     9 C    0.988
    32   1 H    0.981 --    11 N    0.933
    33   1 H    1.008 --    14 C    0.983
    34   1 H    1.020 --    14 C    0.982
    35   1 H    1.008 --    14 C    0.988
    36   1 H    1.014 --    15 C    0.987
    37   1 H    1.022 --    15 C    0.984
    38   1 H    1.019 --    15 C    0.986
    39   1 H    0.940 --    10 O    0.801    16 N    0.116
    40   1 H    1.001 --    23 C    0.968
    41   1 H    1.003 --    23 C    0.985
    42   1 H    1.001 --    23 C    0.970
 ---------------------------------------------------------------------------

           -------------------------------------------------
          | TOTAL ENERGY              -83.645374479098 Eh   |
          | GRADIENT NORM               0.000594153146 Eh/α |
          | HOMO-LUMO GAP               2.322825345140 eV   |
           -------------------------------------------------

 * finished run on 2023/06/21 at 17:25:34.824
