   * xtb version 6.5.1 (579679a) compiled by 'ehlert@majestix' on 2022-07-11
          program call               : /lustre/hpc/kemi/ree/PhD/git/ReactivityQM/dep/xtb-6.5.1/bin/xtb --gfn 1 /lustre/hpc/kemi/ree/PhD/git/ReactivityQM/calculations/R02oxygendeprot/reac01prodN08/conf16/R02oxygendeprot_reac01prodN08_conf16_gfn1.xyz --opt --vfukui --chrg 0 --uhf 0 --alpb DMSO

   ID    Z sym.   atoms
    1    6 C      1, 3, 5, 7-10, 12, 14, 17, 18, 21, 23, 25
    2    8 O      2, 4, 13, 19, 22, 24
    3    7 N      6, 11, 15, 16, 20
    4    1 H      26-42

      * Solvation model:               ALPB
        Solvent                        DMSO
        Solvent mass                       7.8130E+01 g/mol
          :  Hamiltonian                  GFN1-xTB          :
 * total energy  :   -82.9957112 Eh     change       -0.1577405E-10 Eh
 * total energy  :   -83.0103566 Eh     change       -0.1464541E-01 Eh
 * total energy  :   -83.0153269 Eh     change       -0.4970331E-02 Eh
 * total energy  :   -83.0164621 Eh     change       -0.1135155E-02 Eh
 * total energy  :   -83.0170176 Eh     change       -0.5555343E-03 Eh
 * total energy  :   -83.0172393 Eh     change       -0.2216839E-03 Eh
 * total energy  :   -83.0173822 Eh     change       -0.1429624E-03 Eh
 * total energy  :   -83.0174820 Eh     change       -0.9977347E-04 Eh
 * total energy  :   -83.0175464 Eh     change       -0.6433578E-04 Eh
 * total energy  :   -83.0175855 Eh     change       -0.3915020E-04 Eh
 * total energy  :   -83.0179339 Eh     change       -0.6171972E-05 Eh
 * total energy  :   -83.0179406 Eh     change       -0.6635172E-05 Eh
 * total energy  :   -83.0179580 Eh     change       -0.1742186E-04 Eh
 * total energy  :   -83.0179693 Eh     change       -0.1137082E-04 Eh
 * total energy  :   -83.0179751 Eh     change       -0.5785828E-05 Eh
 * total energy  :   -83.0179843 Eh     change       -0.9122923E-05 Eh
 * total energy  :   -83.0179900 Eh     change       -0.5697858E-05 Eh
 * total energy  :   -83.0179962 Eh     change       -0.6260144E-05 Eh
 * total energy  :   -83.0179989 Eh     change       -0.2683452E-05 Eh
   *** GEOMETRY OPTIMIZATION CONVERGED AFTER 38 ITERATIONS ***

 final structure:
================
42
 xtb: 6.5.1 (579679a)
C           -4.93898442102175        2.35382687609639        1.96521742518848
O           -3.85745206060167        1.56825200681949        1.45759653321426
C           -4.10241922539947        0.87624884087394        0.34180240142993
O           -5.17045177213279        0.90086328388892       -0.22423427511778
C           -2.90839377850109        0.09270161176391       -0.09565056381317
N           -1.81294137010235        0.20078413027504        0.72009421988704
C           -0.73390873499331       -0.43540855772509        0.42227537039534
C            0.47345011366182       -0.36024092429317        1.33063228582739
C            0.32221680816149        0.80882566661742        2.30813892136860
C            0.59852947255820       -1.69659596863881        2.07826441448745
N            1.64777601755728       -0.15160184136684        0.47675738404256
C            2.91030679941153       -0.08528157917899        0.95777164405053
O            3.24058710673082       -0.27343776012562        2.11366786645663
C            3.86887360621818        0.24147951821943       -0.12875938748812
N            3.56785685099615        0.49156968185273       -1.36761795282269
N            4.74082574563679        0.74140378586452       -2.01396997410757
C            5.68305377965823        0.62863203011767       -1.12683535988436
C            7.13800275432421        0.80556526997800       -1.32736391340414
O            5.19541746963777        0.31618382527931        0.08254539769507
N           -0.65205681106934       -1.22916455440930       -0.68344191069157
C           -1.67858944821985       -1.41939380204419       -1.58628988300693
O           -1.51056221125331       -2.14704400687320       -2.55386389083659
C           -2.89611837169522       -0.68072753794976       -1.23715345214940
O           -3.99686680794930       -0.73876404386816       -1.99473449320051
C           -4.07966672355749       -1.51159939614046       -3.19215102686667
H           -5.78826146239293        1.71102335205384        2.20964369235085
H           -5.24785831410477        3.09359759394458        1.22239237722440
H           -4.57075468364991        2.84963208200784        2.86100173896866
H            1.18821076024461        0.85941754725860        2.96514504065054
H           -0.57533700486005        0.66347276598059        2.90716565470821
H            0.23099726395617        1.74368426360690        1.75732803900779
H            0.77964352274180       -2.50357506287665        1.37106329226317
H            1.42157672328813       -1.65416240294559        2.78868671726684
H           -0.32625092279055       -1.89569908305425        2.61744937537132
H            1.50127196242696        0.11497422255260       -0.48493008293573
H            7.34290470634204        0.98690669326183       -2.37956863073229
H            7.49532218379482        1.64974638745798       -0.73691290591224
H            7.67022381333886       -0.08640904634882       -0.99673770328233
H            0.19928010464249       -1.73297967371227       -0.88240662339478
H           -3.92953221696682       -2.57367420783085       -2.98636605208419
H           -5.08942221231786       -1.35062961680641       -3.57216367798548
H           -3.35050201174894       -1.17240436958408       -3.93116903213684

          :  Hamiltonian                  GFN1-xTB          :
         :: total energy             -83.017998900161 Eh    ::
         :: gradient norm              0.000884660609 Eh/a0 ::
         :: HOMO-LUMO gap              2.761625033165 eV    ::
         :: SCC energy               -83.802125534632 Eh    ::
         :: -> Gsolv                  -0.052181819334 Eh    ::
         :: repulsion energy           0.809012919190 Eh    ::

    * Orbital Energies and Occupations

         #    Occupation            Energy/Eh            Energy/eV
      -------------------------------------------------------------
         1        2.0000           -0.8649252             -23.5358
       ...           ...                  ...                  ...
        55        2.0000           -0.5071880             -13.8013
        56        2.0000           -0.5033025             -13.6956
        57        2.0000           -0.4974372             -13.5360
        58        2.0000           -0.4869679             -13.2511
        59        2.0000           -0.4851482             -13.2016
        60        2.0000           -0.4838746             -13.1669
        61        2.0000           -0.4684710             -12.7477
        62        2.0000           -0.4632081             -12.6045
        63        2.0000           -0.4592560             -12.4970
        64        2.0000           -0.4535831             -12.3426
        65        2.0000           -0.4510823             -12.2746
        66        2.0000           -0.4486802             -12.2092
        67        2.0000           -0.4290926             -11.6762 (HOMO)
        68                         -0.3276047              -8.9146 (LUMO)
        69                         -0.3129743              -8.5165
        70                         -0.2874417              -7.8217
        71                         -0.2580414              -7.0217
        72                         -0.2425118              -6.5991
        73                         -0.2009952              -5.4694
        74                         -0.1633102              -4.4439
        75                         -0.1425460              -3.8789
        76                         -0.1385177              -3.7693
        77                         -0.1331914              -3.6243
        78                         -0.1307178              -3.5570
       ...                                ...                  ...
       134                          0.7330665              19.9478
      -------------------------------------------------------------
                  HL-Gap            0.1014879 Eh            2.7616 eV

Wiberg/Mayer (AO) data.
largest (>0.10) Wiberg bond orders for each atom

     #   Z sym  total        # sym  WBO       # sym  WBO       # sym  WBO
 ---------------------------------------------------------------------------
     1   6 C    3.873 --    28 H    0.986    27 H    0.979    26 H    0.979
                             2 O    0.899
     2   8 O    2.197 --     3 C    1.108     1 C    0.899     4 O    0.134
     3   6 C    3.852 --     4 O    1.660     2 O    1.108     5 C    1.002
     4   8 O    1.923 --     3 C    1.660     2 O    0.134
     5   6 C    3.963 --    23 C    1.478     6 N    1.186     3 C    1.002
     6   7 N    3.028 --     7 C    1.588     5 C    1.186
     7   6 C    3.930 --     6 N    1.588    20 N    1.167     8 C    0.981
     8   6 C    3.933 --     9 C    0.991     7 C    0.981    10 C    0.976
                            11 N    0.922
     9   6 C    3.989 --     8 C    0.991    31 H    0.985    30 H    0.984
                            29 H    0.982
    10   6 C    3.987 --    34 H    0.985    32 H    0.984    33 H    0.977
                             8 C    0.976
    11   7 N    3.332 --    12 C    1.241     8 C    0.922    35 H    0.894
                            13 O    0.175
    12   6 C    3.915 --    13 O    1.602    11 N    1.241    14 C    0.989
    13   8 O    1.918 --    12 C    1.602    11 N    0.175
    14   6 C    3.876 --    15 N    1.610    19 O    1.064    12 C    0.989
    15   7 N    3.018 --    14 C    1.610    16 N    1.201
    16   7 N    2.981 --    17 C    1.604    15 N    1.201
    17   6 C    3.870 --    16 N    1.604    19 O    1.084    18 C    1.032
    18   6 C    3.986 --    17 C    1.032    36 H    0.982    38 H    0.965
                            37 H    0.961
    19   8 O    2.331 --    17 C    1.084    14 C    1.064
    20   7 N    3.464 --     7 C    1.167    21 C    1.128    39 H    0.883
                            22 O    0.132
    21   6 C    3.909 --    22 O    1.578    20 N    1.128    23 C    1.066
    22   8 O    1.903 --    21 C    1.578    20 N    0.132
    23   6 C    3.919 --     5 C    1.478    24 O    1.104    21 C    1.066
    24   8 O    2.201 --    23 C    1.104    25 C    0.896
    25   6 C    3.871 --    41 H    0.984    42 H    0.979    40 H    0.979
                            24 O    0.896
    26   1 H    1.007 --     1 C    0.979
    27   1 H    1.008 --     1 C    0.979
    28   1 H    1.011 --     1 C    0.986
    29   1 H    1.007 --     9 C    0.982
    30   1 H    1.009 --     9 C    0.984
    31   1 H    1.005 --     9 C    0.985
    32   1 H    1.001 --    10 C    0.984
    33   1 H    1.009 --    10 C    0.977
    34   1 H    1.001 --    10 C    0.985
    35   1 H    0.951 --    11 N    0.894
    36   1 H    0.998 --    18 C    0.982
    37   1 H    0.996 --    18 C    0.961
    38   1 H    0.996 --    18 C    0.965
    39   1 H    0.929 --    20 N    0.883
    40   1 H    1.014 --    25 C    0.979
    41   1 H    1.012 --    25 C    0.984
    42   1 H    1.014 --    25 C    0.979
 ---------------------------------------------------------------------------

           -------------------------------------------------
          | TOTAL ENERGY              -83.017998900161 Eh   |
          | GRADIENT NORM               0.000884660609 Eh/α |
          | HOMO-LUMO GAP               2.761625033165 eV   |
           -------------------------------------------------

 * finished run on 2023/06/21 at 17:23:37.936
