   * xtb version 6.5.1 (579679a) compiled by 'ehlert@majestix' on 2022-07-11
          program call               : /lustre/hpc/kemi/ree/PhD/git/ReactivityQM/dep/xtb-6.5.1/bin/xtb --gfn 1 /lustre/hpc/kemi/ree/PhD/git/ReactivityQM/calculations/R02oxygendeprot/reac01prodE06/conf12/R02oxygendeprot_reac01prodE06_conf12_gfn1.xyz --opt --vfukui --chrg -2 --uhf 0 --alpb DMSO

   ID    Z sym.   atoms
    1    6 C      1, 3, 5, 6, 8, 11-15, 17, 19, 22, 23
    2    8 O      2, 4, 7, 9, 18, 24
    3    7 N      10, 16, 20, 21, 25
    4    1 H      26-42

      * Solvation model:               ALPB
        Solvent                        DMSO
        Solvent mass                       7.8130E+01 g/mol
          :  Hamiltonian                  GFN1-xTB          :
 * total energy  :   -83.6047792 Eh     change       -0.2941647E-11 Eh
 * total energy  :   -83.6168504 Eh     change       -0.1207120E-01 Eh
 * total energy  :   -83.6211081 Eh     change       -0.4257665E-02 Eh
 * total energy  :   -83.6219657 Eh     change       -0.8575756E-03 Eh
 * total energy  :   -83.6223887 Eh     change       -0.4230386E-03 Eh
 * total energy  :   -83.6225697 Eh     change       -0.1810354E-03 Eh
 * total energy  :   -83.6227057 Eh     change       -0.1359433E-03 Eh
 * total energy  :   -83.6228090 Eh     change       -0.1033398E-03 Eh
 * total energy  :   -83.6228916 Eh     change       -0.8263143E-04 Eh
 * total energy  :   -83.6229606 Eh     change       -0.6897462E-04 Eh
 * total energy  :   -83.6236191 Eh     change       -0.3635653E-04 Eh
 * total energy  :   -83.6236704 Eh     change       -0.5127615E-04 Eh
 * total energy  :   -83.6236951 Eh     change       -0.2469638E-04 Eh
 * total energy  :   -83.6237164 Eh     change       -0.2123690E-04 Eh
 * total energy  :   -83.6237290 Eh     change       -0.1263434E-04 Eh
 * total energy  :   -83.6237451 Eh     change       -0.1610567E-04 Eh
 * total energy  :   -83.6237598 Eh     change       -0.1474196E-04 Eh
 * total energy  :   -83.6237725 Eh     change       -0.1267432E-04 Eh
 * total energy  :   -83.6237766 Eh     change       -0.4040694E-05 Eh
   *** GEOMETRY OPTIMIZATION CONVERGED AFTER 32 ITERATIONS ***

 final structure:
================
42
 xtb: 6.5.1 (579679a)
C           -6.84372466297812       -0.17539187114526       -0.23463341619327
O           -5.60640255171444        0.51041649585806       -0.22482091886741
C           -4.49636517822820       -0.27436356480533       -0.04502573000444
O           -4.63708983885887       -1.49128260012802        0.09992501310220
C           -3.22002917599890        0.42762905735150       -0.06554087413183
C           -3.12391168371734        1.83422977009945       -0.30229739476373
O           -4.09298770104520        2.65384242649696       -0.31931701761962
C           -1.75239473007077        2.33092765168907       -0.62656838730504
O           -1.50407904020687        3.46646197782826       -1.06197467687709
N           -0.73577703709058        1.41363559082504       -0.53563285873526
C           -0.87039693354008        0.19741601884327        0.25657733819923
C           -0.66325939023643        0.55381581494354        1.75673281056693
C            0.19577754027070       -0.82604251992768       -0.25702772901421
C            0.15530991454639       -2.10535050210328        0.59050264006251
C           -0.13199940029180       -1.15684396404532       -1.72065963353834
N            1.52002307364950       -0.20169438994955       -0.18152740367445
C            2.68188008969155       -0.85886721870965       -0.51820015671130
O            2.72739200425213       -1.92888134259221       -1.14462330367514
C            3.84677596742993       -0.11130557664407       -0.09078058682767
N            3.83958344515618        1.02745501186965        0.58759217460334
N            5.14785164269836        1.37798508120579        0.77410357140733
C            5.87054489355717        0.46085999313554        0.21727250857938
C            7.35101200078528        0.40168380203779        0.15573108289383
O            5.13067539171237       -0.51586812208825       -0.35085194823627
N           -2.15641670573919       -0.40955908002732        0.09003382259241
H           -7.62607523137608        0.56840124416726       -0.38623142298115
H           -6.87962283424127       -0.91290550011158       -1.04453757943937
H           -7.01453060465552       -0.69535381876545        0.71473787752824
H            0.19612717828124        1.78721281031485       -0.62487929671239
H           -1.35959965251860        1.34622819351531        2.02998916380692
H            0.34965773065668        0.89983080777105        1.95312230618910
H           -0.87144456020786       -0.31750113316396        2.37374733422455
H           -0.88035490817139       -2.43489826659431        0.68686155182601
H            0.73816023467125       -2.89505251131603        0.11758333834985
H            0.56520963137943       -1.92427032457851        1.58314551363227
H            0.54277772375656       -1.91608752782753       -2.11144286190014
H           -1.15565550635570       -1.53047784566560       -1.77859961072654
H           -0.04923505904540       -0.25959808015830       -2.33508134809440
H            1.64141975595447        0.52962826095608        0.50617274094734
H            7.77000270774306        1.25635979260858        0.68109574843718
H            7.71246513187232       -0.51763620814800        0.61588551512190
H            7.68870632822278        0.41520916697493       -0.88064689603804

          :  Hamiltonian                  GFN1-xTB          :
         :: total energy             -83.623776553379 Eh    ::
         :: gradient norm              0.000513828172 Eh/a0 ::
         :: HOMO-LUMO gap              0.065056907653 eV    ::
         :: SCC energy               -84.345604300884 Eh    ::
         :: -> Gsolv                  -0.270695129601 Eh    ::
         :: repulsion energy           0.748853846949 Eh    ::

    * Orbital Energies and Occupations

         #    Occupation            Energy/Eh            Energy/eV
      -------------------------------------------------------------
         1        2.0000           -0.8172082             -22.2374
       ...           ...                  ...                  ...
        56        2.0000           -0.4452193             -12.1150
        57        2.0000           -0.4412997             -12.0084
        58        2.0000           -0.4204261             -11.4404
        59        2.0000           -0.4177677             -11.3680
        60        2.0000           -0.4157359             -11.3128
        61        2.0000           -0.4099947             -11.1565
        62        2.0000           -0.4051754             -11.0254
        63        2.0000           -0.3977421             -10.8231
        64        2.0000           -0.3931357             -10.6978
        65        2.0000           -0.3820229             -10.3954
        66        2.0000           -0.3669910              -9.9863
        67        2.0000           -0.3372820              -9.1779
        68        1.5575           -0.2770783              -7.5397 (HOMO)
        69        0.4425           -0.2746875              -7.4746 (LUMO)
        70                         -0.2389824              -6.5030
        71                         -0.2216185              -6.0305
        72                         -0.1660926              -4.5196
        73                         -0.1532200              -4.1693
        74                         -0.1285875              -3.4990
        75                         -0.1131612              -3.0793
        76                         -0.1046136              -2.8467
        77                         -0.0937177              -2.5502
        78                         -0.0871356              -2.3711
        79                         -0.0816390              -2.2215
       ...                                ...                  ...
       134                          0.7363590              20.0373
      -------------------------------------------------------------
                  HL-Gap            0.0023908 Eh            0.0651 eV

Wiberg/Mayer (AO) data.
largest (>0.10) Wiberg bond orders for each atom

     #   Z sym  total        # sym  WBO       # sym  WBO       # sym  WBO
 ---------------------------------------------------------------------------
     1   6 C    3.911 --    26 H    0.987    27 H    0.980    28 H    0.980
                             2 O    0.939
     2   8 O    2.135 --     3 C    1.016     1 C    0.939     4 O    0.101
     3   6 C    3.812 --     4 O    1.547     5 C    1.114     2 O    1.016
     4   8 O    1.813 --     3 C    1.547     2 O    0.101
     5   6 C    3.904 --    25 N    1.281     6 C    1.226     3 C    1.114
     6   6 C    3.862 --     7 O    1.417     5 C    1.226     8 C    1.005
     7   8 O    1.656 --     6 C    1.417
     8   6 C    3.859 --     9 O    1.524    10 N    1.168     6 C    1.005
     9   8 O    1.787 --     8 C    1.524    10 N    0.131
    10   7 N    3.258 --     8 C    1.168    11 C    0.927    29 H    0.915
                             9 O    0.131
    11   6 C    3.941 --    25 N    1.024    12 C    0.961    13 C    0.950
                            10 N    0.927
    12   6 C    3.972 --    30 H    0.985    32 H    0.984    31 H    0.981
                            11 C    0.961
    13   6 C    3.930 --    15 C    0.997    14 C    0.994    11 C    0.950
                            16 N    0.928
    14   6 C    3.993 --    13 C    0.994    35 H    0.985    34 H    0.984
                            33 H    0.982
    15   6 C    3.993 --    13 C    0.997    38 H    0.985    36 H    0.983
                            37 H    0.982
    16   7 N    3.219 --    17 C    1.156    13 C    0.928    39 H    0.908
                            18 O    0.135
    17   6 C    3.799 --    18 O    1.486    16 N    1.156    19 C    1.088
    18   8 O    1.749 --    17 C    1.486    16 N    0.135
    19   6 C    3.723 --    20 N    1.459    17 C    1.088    24 O    1.001
    20   7 N    2.815 --    19 C    1.459    21 N    1.186
    21   7 N    2.980 --    22 C    1.626    20 N    1.186
    22   6 C    3.833 --    21 N    1.626    24 O    1.059    23 C    1.026
    23   6 C    3.992 --    22 C    1.026    40 H    0.985    41 H    0.970
                            42 H    0.969
    24   8 O    2.221 --    22 C    1.059    19 C    1.001
    25   7 N    2.607 --     5 C    1.281    11 C    1.024
    26   1 H    1.018 --     1 C    0.987
    27   1 H    1.018 --     1 C    0.980
    28   1 H    1.018 --     1 C    0.980
    29   1 H    0.968 --    10 N    0.915
    30   1 H    1.010 --    12 C    0.985
    31   1 H    1.004 --    12 C    0.981
    32   1 H    1.014 --    12 C    0.984
    33   1 H    1.025 --    14 C    0.982
    34   1 H    1.015 --    14 C    0.984
    35   1 H    1.008 --    14 C    0.985
    36   1 H    1.021 --    15 C    0.983
    37   1 H    1.026 --    15 C    0.982
    38   1 H    1.016 --    15 C    0.985
    39   1 H    0.977 --    16 N    0.908
    40   1 H    1.003 --    23 C    0.985
    41   1 H    1.000 --    23 C    0.970
    42   1 H    1.000 --    23 C    0.969
 ---------------------------------------------------------------------------

           -------------------------------------------------
          | TOTAL ENERGY              -83.623776553379 Eh   |
          | GRADIENT NORM               0.000513828172 Eh/α |
          | HOMO-LUMO GAP               0.065056907653 eV   |
           -------------------------------------------------

 * finished run on 2023/06/21 at 17:08:04.967
