   * xtb version 6.5.1 (579679a) compiled by 'ehlert@majestix' on 2022-07-11
          program call               : /lustre/hpc/kemi/ree/PhD/git/ReactivityQM/dep/xtb-6.5.1/bin/xtb --gfn 1 /lustre/hpc/kemi/ree/PhD/git/ReactivityQM/calculations/R02oxygendeprot/reac01prodN08/conf20/R02oxygendeprot_reac01prodN08_conf20_gfn1.xyz --opt --vfukui --chrg 0 --uhf 0 --alpb DMSO

   ID    Z sym.   atoms
    1    6 C      1, 3, 5, 7-10, 12, 14, 17, 18, 21, 23, 25
    2    8 O      2, 4, 13, 19, 22, 24
    3    7 N      6, 11, 15, 16, 20
    4    1 H      26-42

      * Solvation model:               ALPB
        Solvent                        DMSO
        Solvent mass                       7.8130E+01 g/mol
          :  Hamiltonian                  GFN1-xTB          :
 * total energy  :   -82.9982170 Eh     change       -0.1492140E-10 Eh
 * total energy  :   -83.0130701 Eh     change       -0.1485305E-01 Eh
 * total energy  :   -83.0175288 Eh     change       -0.4458695E-02 Eh
 * total energy  :   -83.0182859 Eh     change       -0.7571564E-03 Eh
 * total energy  :   -83.0187826 Eh     change       -0.4966510E-03 Eh
 * total energy  :   -83.0191119 Eh     change       -0.3292778E-03 Eh
 * total energy  :   -83.0194087 Eh     change       -0.2968274E-03 Eh
 * total energy  :   -83.0196469 Eh     change       -0.2381819E-03 Eh
 * total energy  :   -83.0197880 Eh     change       -0.1411293E-03 Eh
 * total energy  :   -83.0198695 Eh     change       -0.8144873E-04 Eh
 * total energy  :   -83.0206182 Eh     change       -0.1062862E-04 Eh
 * total energy  :   -83.0206311 Eh     change       -0.1285448E-04 Eh
 * total energy  :   -83.0206450 Eh     change       -0.1386315E-04 Eh
 * total energy  :   -83.0206561 Eh     change       -0.1111893E-04 Eh
 * total energy  :   -83.0206638 Eh     change       -0.7733472E-05 Eh
 * total energy  :   -83.0206704 Eh     change       -0.6633314E-05 Eh
 * total energy  :   -83.0206769 Eh     change       -0.6423223E-05 Eh
 * total energy  :   -83.0206827 Eh     change       -0.5882873E-05 Eh
 * total energy  :   -83.0206874 Eh     change       -0.4624680E-05 Eh
   *** GEOMETRY OPTIMIZATION CONVERGED AFTER 33 ITERATIONS ***

 final structure:
================
42
 xtb: 6.5.1 (579679a)
C           -2.33371565093003        4.03146118594026       -1.42653347398552
O           -2.54161631762030        2.66662055403788       -1.05056509304462
C           -1.46242299827526        1.98906690128436       -0.66918371976748
O           -0.35552281302989        2.47794221207387       -0.62952133236563
C           -1.72871904795936        0.56747812923358       -0.28917734211856
N           -0.58350896453383       -0.08445024603600        0.08788750502979
C           -0.63372052034196       -1.31720997192766        0.45705187178168
C            0.62644332999884       -2.04487317304310        0.87688351441078
C            0.53177236038784       -2.42186815060065        2.36308521559621
C            0.83540688913252       -3.28834739613121        0.00067429745872
N            1.72706974820977       -1.10855739901541        0.67205565183131
C            3.01198002005418       -1.39418945723092        0.94281980876857
O            3.42400356725656       -2.45237992705678        1.39402507422242
C            3.93069815969487       -0.26789327854472        0.63258792667812
N            5.21884116656087       -0.24056739494303        0.78190064081794
N            5.63729608044754        0.98830788869837        0.36666617723954
C            4.57837817723199        1.63539678599041       -0.01060907852135
C            4.50671501815447        3.01467109181322       -0.53989177959337
O            3.46550585967962        0.89719039275314        0.13173664563819
N           -1.81125437560121       -1.99957622112471        0.49016517242800
C           -3.03191580156307       -1.46644297662418        0.12785020351850
O           -4.03615706656214       -2.16062448226347        0.18558638431933
C           -2.95271345060631       -0.06477426806769       -0.29526596334438
O           -4.04271859271917        0.61097676462270       -0.68056793558849
C           -5.34341190116631        0.02457528360215       -0.74292594717860
H           -3.30826316999150        4.43152038741571       -1.69848177027743
H           -1.91306943741925        4.59184482118516       -0.58830036493598
H           -1.64981132052211        4.08592840937228       -2.27677978393444
H           -0.33372222286628       -3.06011970508400        2.52742778352125
H            1.42842698019732       -2.96028571014053        2.66526392087577
H            0.43143456875623       -1.52257568378557        2.96868034136181
H            1.75250519399286       -3.79562803076765        0.29519341829460
H            0.00148347223112       -3.97551655597184        0.12448006918116
H            0.90584679048396       -2.99787016862875       -1.04621495276333
H            1.47597113405478       -0.19988493468049        0.29792337957931
H            3.86721720529917        3.62535624469968        0.09702811002149
H            5.50489289597175        3.44429657650877       -0.57253124022223
H            4.07869305566683        3.00914015137120       -1.54204118401815
H           -1.84010036290193       -2.96309802091363        0.78886316995550
H           -5.99987343913847        0.81506683819792       -1.10889305815449
H           -5.36174318806411       -0.81876285279658       -1.43672885970842
H           -5.67660003164838       -0.30134461342100        0.24489159699653

          :  Hamiltonian                  GFN1-xTB          :
         :: total energy             -83.020687374629 Eh    ::
         :: gradient norm              0.000342972919 Eh/a0 ::
         :: HOMO-LUMO gap              2.768667821892 eV    ::
         :: SCC energy               -83.804140322485 Eh    ::
         :: -> Gsolv                  -0.052025750363 Eh    ::
         :: repulsion energy           0.808679772566 Eh    ::

    * Orbital Energies and Occupations

         #    Occupation            Energy/Eh            Energy/eV
      -------------------------------------------------------------
         1        2.0000           -0.8640761             -23.5127
       ...           ...                  ...                  ...
        55        2.0000           -0.5035895             -13.7034
        56        2.0000           -0.5029688             -13.6865
        57        2.0000           -0.4954270             -13.4813
        58        2.0000           -0.4865288             -13.2391
        59        2.0000           -0.4811488             -13.0927
        60        2.0000           -0.4789769             -13.0336
        61        2.0000           -0.4648953             -12.6504
        62        2.0000           -0.4592012             -12.4955
        63        2.0000           -0.4589756             -12.4894
        64        2.0000           -0.4516605             -12.2903
        65        2.0000           -0.4502345             -12.2515
        66        2.0000           -0.4469365             -12.1618
        67        2.0000           -0.4279528             -11.6452 (HOMO)
        68                         -0.3262061              -8.8765 (LUMO)
        69                         -0.3085878              -8.3971
        70                         -0.2857976              -7.7769
        71                         -0.2560400              -6.9672
        72                         -0.2412589              -6.5650
        73                         -0.1965544              -5.3485
        74                         -0.1623118              -4.4167
        75                         -0.1423663              -3.8740
        76                         -0.1411435              -3.8407
        77                         -0.1364805              -3.7138
        78                         -0.1314061              -3.5757
       ...                                ...                  ...
       134                          0.7249723              19.7275
      -------------------------------------------------------------
                  HL-Gap            0.1017467 Eh            2.7687 eV

Wiberg/Mayer (AO) data.
largest (>0.10) Wiberg bond orders for each atom

     #   Z sym  total        # sym  WBO       # sym  WBO       # sym  WBO
 ---------------------------------------------------------------------------
     1   6 C    3.871 --    26 H    0.986    27 H    0.979    28 H    0.979
                             2 O    0.896
     2   8 O    2.206 --     3 C    1.118     1 C    0.896     4 O    0.135
     3   6 C    3.853 --     4 O    1.655     2 O    1.118     5 C    0.999
     4   8 O    1.918 --     3 C    1.655     2 O    0.135
     5   6 C    3.961 --    23 C    1.484     6 N    1.182     3 C    0.999
     6   7 N    3.052 --     7 C    1.582     5 C    1.182
     7   6 C    3.930 --     6 N    1.582    20 N    1.172     8 C    0.983
     8   6 C    3.940 --     7 C    0.983    10 C    0.979     9 C    0.976
                            11 N    0.937
     9   6 C    3.987 --    31 H    0.985    29 H    0.984    30 H    0.978
                             8 C    0.976
    10   6 C    3.987 --    34 H    0.985    33 H    0.983     8 C    0.979
                            32 H    0.978
    11   7 N    3.362 --    12 C    1.272     8 C    0.937    35 H    0.874
                            13 O    0.180
    12   6 C    3.919 --    13 O    1.574    11 N    1.272    14 C    0.991
    13   8 O    1.895 --    12 C    1.574    11 N    0.180
    14   6 C    3.872 --    15 N    1.623    19 O    1.049    12 C    0.991
    15   7 N    2.998 --    14 C    1.623    16 N    1.198
    16   7 N    2.981 --    17 C    1.611    15 N    1.198
    17   6 C    3.870 --    16 N    1.611    19 O    1.074    18 C    1.031
    18   6 C    3.987 --    17 C    1.031    37 H    0.983    36 H    0.963
                            38 H    0.963
    19   8 O    2.319 --    17 C    1.074    14 C    1.049
    20   7 N    3.465 --     7 C    1.172    21 C    1.127    39 H    0.883
                            22 O    0.132
    21   6 C    3.909 --    22 O    1.578    20 N    1.127    23 C    1.066
    22   8 O    1.906 --    21 C    1.578    20 N    0.132
    23   6 C    3.919 --     5 C    1.484    24 O    1.099    21 C    1.066
    24   8 O    2.195 --    23 C    1.099    25 C    0.895
    25   6 C    3.870 --    40 H    0.984    41 H    0.979    42 H    0.978
                            24 O    0.895
    26   1 H    1.011 --     1 C    0.986
    27   1 H    1.007 --     1 C    0.979
    28   1 H    1.007 --     1 C    0.979
    29   1 H    0.999 --     9 C    0.984
    30   1 H    1.008 --     9 C    0.978
    31   1 H    1.001 --     9 C    0.985
    32   1 H    1.007 --    10 C    0.978
    33   1 H    0.999 --    10 C    0.983
    34   1 H    1.001 --    10 C    0.985
    35   1 H    0.957 --    11 N    0.874
    36   1 H    0.997 --    18 C    0.963
    37   1 H    0.999 --    18 C    0.983
    38   1 H    0.997 --    18 C    0.963
    39   1 H    0.931 --    20 N    0.883
    40   1 H    1.012 --    25 C    0.984
    41   1 H    1.014 --    25 C    0.979
    42   1 H    1.014 --    25 C    0.978
 ---------------------------------------------------------------------------

           -------------------------------------------------
          | TOTAL ENERGY              -83.020687374629 Eh   |
          | GRADIENT NORM               0.000342972919 Eh/α |
          | HOMO-LUMO GAP               2.768667821892 eV   |
           -------------------------------------------------

 * finished run on 2023/06/21 at 17:23:37.172
