                         Program Version 5.0.1 -  RELEASE  -
|  1> # ORCA input file
|  2> ! SP r2SCAN-3c CPCM
|  3>
|  4> %maxcore 1875.0
|  5> %pal nprocs 4 end
|  6> %cpcm smd true SMDsolvent "DMSO" end
|  7>
|  8> *xyz -1 1
|  9> C      -1.983343    2.541445   -1.246742
| 10> N      -1.493326    1.194233   -0.981182
| 11> C      -0.515074    0.732301   -1.969468
| 12> O      -0.186806    1.538359   -2.895493
| 13> C      -0.089435   -0.541799   -1.796139
| 14> O       0.870561   -1.096675   -2.695520
| 15> C      -0.490923   -1.430636   -0.661125
| 16> C      -0.822199   -2.864901   -1.132257
| 17> C       0.678595   -1.507660    0.355291
| 18> O       0.605062   -1.131959    1.520853
| 19> N       1.820797   -2.031816   -0.157906
| 20> C       3.053401   -2.017327    0.619498
| 21> C       3.729725   -0.665311    0.542075
| 22> C       3.401913    0.334277    1.456493
| 23> C       3.999693    1.584142    1.382832
| 24> C       4.922950    1.810247    0.377888
| 25> F       5.510263    3.019085    0.301157
| 26> C       5.273598    0.842867   -0.545865
| 27> C       4.664904   -0.401845   -0.456049
| 28> N      -1.666718   -0.915445    0.022391
| 29> C      -2.081083    0.290884   -0.147643
| 30> C      -3.343988    0.641772    0.656445
| 31> C      -4.541234    0.775982   -0.294643
| 32> C      -3.638350   -0.485111    1.662534
| 33> N      -3.174117    1.899462    1.390883
| 34> H      -1.130532    3.178289   -1.497796
| 35> H      -2.672289    2.546503   -2.098333
| 36> H      -2.480914    2.954648   -0.372499
| 37> H       0.960221   -0.459705   -3.420158
| 38> H       0.020601   -3.299559   -1.666450
| 39> H      -1.683369   -2.830523   -1.799329
| 40> H      -1.066226   -3.492618   -0.275360
| 41> H       1.926006   -2.105013   -1.160629
| 42> H       3.710463   -2.795950    0.224431
| 43> H       2.803846   -2.256000    1.658528
| 44> H       2.675204    0.130695    2.235621
| 45> H       3.762109    2.367281    2.091154
| 46> H       6.006804    1.057988   -1.311814
| 47> H       4.931389   -1.176033   -1.166276
| 48> H      -4.439093    1.645782   -0.941018
| 49> H      -4.624004   -0.115991   -0.915954
| 50> H      -5.460718    0.885142    0.280008
| 51> H      -4.495921   -0.212298    2.275935
| 52> H      -3.857844   -1.415277    1.139080
| 53> H      -2.776359   -0.647061    2.309790
| 54> H      -2.547182    1.752217    2.172379
| 55> H      -4.067060    2.172915    1.774839
| 56> **                         ****END OF INPUT****

CARTESIAN COORDINATES (ANGSTROEM)
---------------------------------
  C     -1.983343    2.541445   -1.246742
  N     -1.493326    1.194233   -0.981182
  C     -0.515074    0.732301   -1.969468
  O     -0.186806    1.538359   -2.895493
  C     -0.089435   -0.541799   -1.796139
  O      0.870561   -1.096675   -2.695520
  C     -0.490923   -1.430636   -0.661125
  C     -0.822199   -2.864901   -1.132257
  C      0.678595   -1.507660    0.355291
  O      0.605062   -1.131959    1.520853
  N      1.820797   -2.031816   -0.157906
  C      3.053401   -2.017327    0.619498
  C      3.729725   -0.665311    0.542075
  C      3.401913    0.334277    1.456493
  C      3.999693    1.584142    1.382832
  C      4.922950    1.810247    0.377888
  F      5.510263    3.019085    0.301157
  C      5.273598    0.842867   -0.545865
  C      4.664904   -0.401845   -0.456049
  N     -1.666718   -0.915445    0.022391
  C     -2.081083    0.290884   -0.147643
  C     -3.343988    0.641772    0.656445
  C     -4.541234    0.775982   -0.294643
  C     -3.638350   -0.485111    1.662534
  N     -3.174117    1.899462    1.390883
  H     -1.130532    3.178289   -1.497796
  H     -2.672289    2.546503   -2.098333
  H     -2.480914    2.954648   -0.372499
  H      0.960221   -0.459705   -3.420158
  H      0.020601   -3.299559   -1.666450
  H     -1.683369   -2.830523   -1.799329
  H     -1.066226   -3.492618   -0.275360
  H      1.926006   -2.105013   -1.160629
  H      3.710463   -2.795950    0.224431
  H      2.803846   -2.256000    1.658528
  H      2.675204    0.130695    2.235621
  H      3.762109    2.367281    2.091154
  H      6.006804    1.057988   -1.311814
  H      4.931389   -1.176033   -1.166276
  H     -4.439093    1.645782   -0.941018
  H     -4.624004   -0.115991   -0.915954
  H     -5.460718    0.885142    0.280008
  H     -4.495921   -0.212298    2.275935
  H     -3.857844   -1.415277    1.139080
  H     -2.776359   -0.647061    2.309790
  H     -2.547182    1.752217    2.172379
  H     -4.067060    2.172915    1.774839

 Total Charge           Charge          ....   -1
 Multiplicity           Mult            ....    1
 Number of Electrons    NEL             ....  186
 Basis Dimension        Dim             ....  625

ORBITAL ENERGIES
----------------

  NO   OCC          E(Eh)            E(eV)
   0   2.0000     -24.499165      -666.6562
   1   2.0000     -18.938690      -515.3480
   2   2.0000     -18.898602      -514.2571
   3   2.0000     -18.854841      -513.0663
   4   2.0000     -14.165278      -385.4568
   5   2.0000     -14.162451      -385.3799
   6   2.0000     -14.125118      -384.3640
   7   2.0000     -14.103242      -383.7687
   8   2.0000     -10.114953      -275.2419
   9   2.0000     -10.100762      -274.8557
  10   2.0000     -10.075875      -274.1785
  11   2.0000     -10.063154      -273.8324
  12   2.0000     -10.060438      -273.7584
  13   2.0000     -10.056527      -273.6520
  14   2.0000     -10.055514      -273.6244
  15   2.0000     -10.038575      -273.1635
  16   2.0000     -10.037917      -273.1456
  17   2.0000     -10.037363      -273.1305
  18   2.0000     -10.036858      -273.1168
  19   2.0000     -10.034988      -273.0659
  20   2.0000     -10.025684      -272.8127
  21   2.0000     -10.016662      -272.5672
  22   2.0000     -10.009543      -272.3735
  23   2.0000     -10.001650      -272.1587
  24   2.0000      -9.999030      -272.0874
  25   2.0000      -1.189482       -32.3675
  26   2.0000      -0.983392       -26.7595
  27   2.0000      -0.968440       -26.3526
  28   2.0000      -0.933833       -25.4109
  29   2.0000      -0.893486       -24.3130
  30   2.0000      -0.872070       -23.7302
  31   2.0000      -0.845619       -23.0105
  32   2.0000      -0.829136       -22.5619
  33   2.0000      -0.821927       -22.3658
  34   2.0000      -0.740875       -20.1602
  35   2.0000      -0.724811       -19.7231
  36   2.0000      -0.722902       -19.6712
  37   2.0000      -0.697528       -18.9807
  38   2.0000      -0.663775       -18.0622
  39   2.0000      -0.648304       -17.6413
  40   2.0000      -0.640390       -17.4259
  41   2.0000      -0.627552       -17.0766
  42   2.0000      -0.590268       -16.0620
  43   2.0000      -0.579531       -15.7698
  44   2.0000      -0.574196       -15.6247
  45   2.0000      -0.555711       -15.1217
  46   2.0000      -0.530292       -14.4300
  47   2.0000      -0.513117       -13.9626
  48   2.0000      -0.511053       -13.9064
  49   2.0000      -0.489568       -13.3218
  50   2.0000      -0.475141       -12.9293
  51   2.0000      -0.455696       -12.4001
  52   2.0000      -0.452722       -12.3192
  53   2.0000      -0.443810       -12.0767
  54   2.0000      -0.433619       -11.7994
  55   2.0000      -0.432189       -11.7605
  56   2.0000      -0.424344       -11.5470
  57   2.0000      -0.414642       -11.2830
  58   2.0000      -0.407842       -11.0980
  59   2.0000      -0.402572       -10.9545
  60   2.0000      -0.399307       -10.8657
  61   2.0000      -0.394655       -10.7391
  62   2.0000      -0.386439       -10.5155
  63   2.0000      -0.381307       -10.3759
  64   2.0000      -0.373786       -10.1712
  65   2.0000      -0.365167        -9.9367
  66   2.0000      -0.358903        -9.7663
  67   2.0000      -0.353790        -9.6271
  68   2.0000      -0.345847        -9.4110
  69   2.0000      -0.343847        -9.3566
  70   2.0000      -0.338657        -9.2153
  71   2.0000      -0.335040        -9.1169
  72   2.0000      -0.334135        -9.0923
  73   2.0000      -0.331241        -9.0135
  74   2.0000      -0.327354        -8.9078
  75   2.0000      -0.323926        -8.8145
  76   2.0000      -0.318206        -8.6588
  77   2.0000      -0.314496        -8.5579
  78   2.0000      -0.306956        -8.3527
  79   2.0000      -0.304749        -8.2926
  80   2.0000      -0.302556        -8.2330
  81   2.0000      -0.292912        -7.9705
  82   2.0000      -0.280428        -7.6308
  83   2.0000      -0.257739        -7.0134
  84   2.0000      -0.243589        -6.6284
  85   2.0000      -0.230352        -6.2682
  86   2.0000      -0.213081        -5.7982
  87   2.0000      -0.206725        -5.6253
  88   2.0000      -0.201496        -5.4830
  89   2.0000      -0.191790        -5.2189
  90   2.0000      -0.185502        -5.0478
  91   2.0000      -0.176196        -4.7945
  92   2.0000      -0.104406        -2.8410
  93   0.0000      -0.038383        -1.0445
  94   0.0000      -0.026386        -0.7180
  95   0.0000       0.006416         0.1746
  96   0.0000       0.022361         0.6085
  97   0.0000       0.056803         1.5457

MULLIKEN ATOMIC CHARGES
-----------------------
   0 C :   -0.517378
   1 N :    0.199913
   2 C :   -0.064402
   3 O :   -0.540673
   4 C :   -0.103007
   5 O :   -0.455555
   6 C :    0.019477
   7 C :   -0.621411
   8 C :    0.142514
   9 O :   -0.440341
  10 N :   -0.119821
  11 C :   -0.388062
  12 C :    0.097498
  13 C :   -0.176535
  14 C :   -0.320223
  15 C :    0.361312
  16 F :   -0.240483
  17 C :   -0.297092
  18 C :   -0.214515
  19 N :   -0.113983
  20 C :   -0.041012
  21 C :    0.303319
  22 C :   -0.561596
  23 C :   -0.630045
  24 N :   -0.687028
  25 H :    0.170754
  26 H :    0.166790
  27 H :    0.204726
  28 H :    0.313423
  29 H :    0.166151
  30 H :    0.166900
  31 H :    0.169992
  32 H :    0.292211
  33 H :    0.180179
  34 H :    0.197291
  35 H :    0.202636
  36 H :    0.195105
  37 H :    0.195296
  38 H :    0.189160
  39 H :    0.175294
  40 H :    0.181194
  41 H :    0.172107
  42 H :    0.158648
  43 H :    0.172584
  44 H :    0.174276
  45 H :    0.278750
  46 H :    0.285661
Sum of atomic charges:   -1.0000000

LOEWDIN ATOMIC CHARGES
----------------------
   0 C :   -0.129331
   1 N :   -0.727414
   2 C :    0.293026
   3 O :   -0.662492
   4 C :    0.106987
   5 O :   -0.588453
   6 C :    0.112418
   7 C :   -0.364647
   8 C :    0.352644
   9 O :   -0.494897
  10 N :   -0.633080
  11 C :   -0.014464
  12 C :   -0.082061
  13 C :   -0.142257
  14 C :   -0.163903
  15 C :    0.196975
  16 F :   -0.300969
  17 C :   -0.164169
  18 C :   -0.148105
  19 N :   -0.665469
  20 C :    0.338956
  21 C :    0.066255
  22 C :   -0.363804
  23 C :   -0.373756
  24 N :   -0.716275
  25 H :    0.188430
  26 H :    0.165423
  27 H :    0.199393
  28 H :    0.282568
  29 H :    0.164978
  30 H :    0.161782
  31 H :    0.162277
  32 H :    0.290003
  33 H :    0.194966
  34 H :    0.203325
  35 H :    0.193900
  36 H :    0.192772
  37 H :    0.192940
  38 H :    0.186101
  39 H :    0.168520
  40 H :    0.168755
  41 H :    0.164445
  42 H :    0.153760
  43 H :    0.164816
  44 H :    0.167277
  45 H :    0.250820
  46 H :    0.251039

  Mayer bond orders larger than 0.100000
B(  0-C ,  1-N ) :   0.8180 B(  0-C , 25-H ) :   0.9565 B(  0-C , 26-H ) :   0.9620
B(  0-C , 27-H ) :   0.9408 B(  1-N ,  2-C ) :   0.8702 B(  1-N , 19-N ) :   0.1313
B(  1-N , 20-C ) :   1.3281 B(  2-C ,  3-O ) :   1.8414 B(  2-C ,  4-C ) :   1.4600
B(  4-C ,  5-O ) :   0.8479 B(  4-C ,  6-C ) :   0.9202 B(  5-O , 28-H ) :   0.8521
B(  6-C ,  7-C ) :   0.9176 B(  6-C ,  8-C ) :   0.8246 B(  6-C , 19-N ) :   0.8919
B(  7-C , 29-H ) :   0.9726 B(  7-C , 30-H ) :   0.9849 B(  7-C , 31-H ) :   0.9750
B(  8-C ,  9-O ) :   1.9754 B(  8-C , 10-N ) :   1.1271 B(  9-O , 11-C ) :   0.1031
B( 10-N , 11-C ) :   0.8452 B( 10-N , 32-H ) :   0.8741 B( 11-C , 12-C ) :   0.8082
B( 11-C , 33-H ) :   0.9829 B( 11-C , 34-H ) :   0.9955 B( 12-C , 13-C ) :   1.3908
B( 12-C , 18-C ) :   1.3959 B( 13-C , 14-C ) :   1.3755 B( 13-C , 35-H ) :   0.9379
B( 14-C , 15-C ) :   1.3916 B( 14-C , 36-H ) :   0.9372 B( 15-C , 16-F ) :   0.8784
B( 15-C , 17-C ) :   1.4034 B( 17-C , 18-C ) :   1.3695 B( 17-C , 37-H ) :   0.9367
B( 18-C , 38-H ) :   0.9431 B( 19-N , 20-C ) :   1.8202 B( 19-N , 21-C ) :  -0.1219
B( 19-N , 23-C ) :   0.1080 B( 20-C , 21-C ) :   0.9236 B( 21-C , 22-C ) :   0.9058
B( 21-C , 23-C ) :   0.9522 B( 21-C , 24-N ) :   0.7706 B( 22-C , 39-H ) :   0.9597
B( 22-C , 40-H ) :   0.9791 B( 22-C , 41-H ) :   0.9652 B( 23-C , 42-H ) :   0.9708
B( 23-C , 43-H ) :   0.9844 B( 23-C , 44-H ) :   0.9703 B( 24-N , 45-H ) :   0.9086
B( 24-N , 46-H ) :   0.9128

Dispersion correction           -0.022422904
FINAL SINGLE POINT ENERGY     -1205.486980194470

DIPOLE MOMENT
-------------
                                X             Y             Z
Electronic contribution:     30.75032       6.52039      -1.39550
Nuclear contribution   :    -29.71519      -7.16263       3.21264
                        -----------------------------------------
Total Dipole Moment    :      1.03514      -0.64224       1.81715
                        -----------------------------------------
Magnitude (a.u.)       :      2.18769
Magnitude (Debye)      :      5.56068

Rotational constants in cm-1:     0.011463     0.004458     0.004168
Rotational constants in MHz :   343.667008   133.638891   124.945024

                             ****ORCA TERMINATED NORMALLY****
TOTAL RUN TIME: 0 days 0 hours 2 minutes 35 seconds 41 msec
