   * xtb version 6.5.1 (579679a) compiled by 'ehlert@majestix' on 2022-07-11
          program call               : /lustre/hpc/kemi/ree/PhD/git/ReactivityQM/dep/xtb-6.5.1/bin/xtb --gfn 1 /lustre/hpc/kemi/ree/PhD/git/ReactivityQM/calculations/RaltegravirCLI/reac02prodE04/conf07/RaltegravirCLI_reac02prodE04_conf07_gfn1.xyz --opt --vfukui --chrg -1 --uhf 0 --alpb DMSO

   ID    Z sym.   atoms
    1    6 C      1, 3, 5, 7-9, 12-16, 18, 19, 21-24
    2    7 N      2, 11, 20, 25
    3    8 O      4, 6, 10
    4    9 F      17
    5    1 H      26-47

      * Solvation model:               ALPB
        Solvent                        DMSO
        Solvent mass                       7.8130E+01 g/mol
          :  Hamiltonian                  GFN1-xTB          :
 * total energy  :   -80.1869305 Eh     change       -0.5101697E-11 Eh
 * total energy  :   -80.2025560 Eh     change       -0.1562553E-01 Eh
 * total energy  :   -80.2064303 Eh     change       -0.3874230E-02 Eh
 * total energy  :   -80.2070524 Eh     change       -0.6221296E-03 Eh
 * total energy  :   -80.2075523 Eh     change       -0.4999378E-03 Eh
 * total energy  :   -80.2077314 Eh     change       -0.1790324E-03 Eh
 * total energy  :   -80.2079115 Eh     change       -0.1800857E-03 Eh
 * total energy  :   -80.2080690 Eh     change       -0.1575143E-03 Eh
 * total energy  :   -80.2082545 Eh     change       -0.1855785E-03 Eh
 * total energy  :   -80.2084220 Eh     change       -0.1674826E-03 Eh
 * total energy  :   -80.2121047 Eh     change       -0.2156113E-04 Eh
 * total energy  :   -80.2121200 Eh     change       -0.1536129E-04 Eh
 * total energy  :   -80.2121336 Eh     change       -0.1359227E-04 Eh
 * total energy  :   -80.2121470 Eh     change       -0.1332779E-04 Eh
 * total energy  :   -80.2121606 Eh     change       -0.1363907E-04 Eh
 * total energy  :   -80.2121790 Eh     change       -0.1834648E-04 Eh
 * total energy  :   -80.2121882 Eh     change       -0.9256033E-05 Eh
 * total energy  :   -80.2121935 Eh     change       -0.5271872E-05 Eh
 * total energy  :   -80.2121970 Eh     change       -0.3566702E-05 Eh
   *** GEOMETRY OPTIMIZATION CONVERGED AFTER 43 ITERATIONS ***

 final structure:
================
47
 xtb: 6.5.1 (579679a)
C           -1.98334305284748        2.54144513321348       -1.24674215326662
N           -1.49332594239820        1.19423297175708       -0.98118231734132
C           -0.51507380670319        0.73230129880734       -1.96946840637906
O           -0.18680592656469        1.53835902449337       -2.89549264422419
C           -0.08943459623450       -0.54179914326162       -1.79613948067140
O            0.87056145350854       -1.09667514123593       -2.69551977015937
C           -0.49092330341514       -1.43063631141902       -0.66112472971033
C           -0.82219943421568       -2.86490116764093       -1.13225720166673
C            0.67859485068001       -1.50766032681076        0.35529053017110
O            0.60506173041354       -1.13195923530584        1.52085301884721
N            1.82079708329860       -2.03181582444518       -0.15790558921240
C            3.05340112946314       -2.01732662950141        0.61949837694643
C            3.72972483410999       -0.66531135171356        0.54207482912508
C            3.40191330040334        0.33427666110566        1.45649300330214
C            3.99969323080460        1.58414168138978        1.38283233914272
C            4.92295030999366        1.81024715437551        0.37788794082002
F            5.51026347649060        3.01908493630121        0.30115745147839
C            5.27359787607120        0.84286667708350       -0.54586547061726
C            4.66490397927457       -0.40184462288381       -0.45604866797551
N           -1.66671815556285       -0.91544471638387        0.02239070991031
C           -2.08108301792255        0.29088426579614       -0.14764252849550
C           -3.34398819160706        0.64177248579887        0.65644524630594
C           -4.54123372023358        0.77598248623719       -0.29464251958549
C           -3.63834951058922       -0.48511117884392        1.66253427237572
N           -3.17411722477877        1.89946167988699        1.39088273140838
H           -1.13053164845235        3.17828883355250       -1.49779562020642
H           -2.67228861607264        2.54650289565141       -2.09833296096036
H           -2.48091361628913        2.95464754735979       -0.37249893275976
H            0.96022107628928       -0.45970512892295       -3.42015764811414
H            0.02060103671335       -3.29955866374318       -1.66645005280002
H           -1.68336946724717       -2.83052345241583       -1.79932881293812
H           -1.06622606006327       -3.49261846428892       -0.27536023034083
H            1.92600574528208       -2.10501344533370       -1.16062864633217
H            3.71046334267533       -2.79594996088039        0.22443059666953
H            2.80384570166771       -2.25599991723208        1.65852753628985
H            2.67520363345477        0.13069517865064        2.23562130310420
H            3.76210884663893        2.36728065770405        2.09115405639323
H            6.00680425048458        1.05798832310648       -1.31181382840193
H            4.93138930743478       -1.17603291388493       -1.16627559496730
H           -4.43909317164534        1.64578153024676       -0.94101845207128
H           -4.62400368940511       -0.11599107791764       -0.91595444532889
H           -5.46071804769899        0.88514174284274        0.28000831231853
H           -4.49592117171677       -0.21229759957657        2.27593512305890
H           -3.85784424153552       -1.41527745230591        1.13907965946974
H           -2.77635893648505       -0.64706058750177        2.30979004804665
H           -2.54718248244864        1.75221702532945        2.17237865006406
H           -4.06706016300105        2.17291512277725        1.77483896926975

          :  Hamiltonian                  GFN1-xTB          :
         :: total energy             -80.212197047671 Eh    ::
         :: gradient norm              0.000568823475 Eh/a0 ::
         :: HOMO-LUMO gap              0.989754332306 eV    ::
         :: SCC energy               -81.073590465338 Eh    ::
         :: -> Gsolv                  -0.111166225994 Eh    ::
         :: repulsion energy           0.893154618071 Eh    ::

    * Orbital Energies and Occupations

         #    Occupation            Energy/Eh            Energy/eV
      -------------------------------------------------------------
         1        2.0000           -0.8573302             -23.3291
       ...           ...                  ...                  ...
        56        2.0000           -0.4615014             -12.5581
        57        2.0000           -0.4547491             -12.3744
        58        2.0000           -0.4481727             -12.1954
        59        2.0000           -0.4431592             -12.0590
        60        2.0000           -0.4386031             -11.9350
        61        2.0000           -0.4312049             -11.7337
        62        2.0000           -0.4176465             -11.3647
        63        2.0000           -0.4102828             -11.1644
        64        2.0000           -0.3943289             -10.7302
        65        2.0000           -0.3756662             -10.2224
        66        2.0000           -0.3734897             -10.1632
        67        2.0000           -0.3611314              -9.8269
        68        2.0000           -0.3014788              -8.2037 (HOMO)
        69                         -0.2651060              -7.2139 (LUMO)
        70                         -0.2581941              -7.0258
        71                         -0.2189982              -5.9592
        72                         -0.2064433              -5.6176
        73                         -0.1373978              -3.7388
        74                         -0.1240889              -3.3766
        75                         -0.1115157              -3.0345
        76                         -0.1105026              -3.0069
        77                         -0.1031448              -2.8067
        78                         -0.0996305              -2.7111
        79                         -0.0961435              -2.6162
       ...                                ...                  ...
       144                          0.6978977              18.9908
      -------------------------------------------------------------
                  HL-Gap            0.0363728 Eh            0.9898 eV

Wiberg/Mayer (AO) data.
largest (>0.10) Wiberg bond orders for each atom

     #   Z sym  total        # sym  WBO       # sym  WBO       # sym  WBO
 ---------------------------------------------------------------------------
     1   6 C    3.960 --    26 H    0.981    27 H    0.980    28 H    0.976
                             2 N    0.957
     2   7 N    3.364 --    21 C    1.197     1 C    0.957     3 C    0.902
                            20 N    0.169
     3   6 C    3.920 --     5 C    1.547     4 O    1.338     2 N    0.902
     4   8 O    1.696 --     3 C    1.338     5 C    0.176
     5   6 C    3.779 --     3 C    1.547     7 C    0.980     6 O    0.926
                             4 O    0.176
     6   8 O    1.928 --     5 C    0.926    29 H    0.855
     7   6 C    3.969 --    20 N    0.980     5 C    0.980     8 C    0.970
                             9 C    0.913
     8   6 C    3.996 --    32 H    0.988    31 H    0.986    30 H    0.986
                             7 C    0.970
     9   6 C    3.867 --    10 O    1.590    11 N    1.234     7 C    0.913
    10   8 O    1.874 --     9 C    1.590    11 N    0.148
    11   7 N    3.303 --     9 C    1.234    12 C    0.947    33 H    0.895
                            10 O    0.148
    12   6 C    3.960 --    13 C    0.995    34 H    0.978    35 H    0.974
                            11 N    0.947
    13   6 C    3.988 --    19 C    1.419    14 C    1.415    12 C    0.995
    14   6 C    3.992 --    15 C    1.445    13 C    1.415    36 H    0.969
                            18 C    0.111
    15   6 C    3.992 --    14 C    1.445    16 C    1.400    37 H    0.970
                            19 C    0.110
    16   6 C    3.856 --    18 C    1.403    15 C    1.400    17 F    0.918
    17   9 F    1.044 --    16 C    0.918
    18   6 C    3.992 --    19 C    1.441    16 C    1.403    38 H    0.970
                            14 C    0.111
    19   6 C    3.994 --    18 C    1.441    13 C    1.419    39 H    0.972
                            15 C    0.110
    20   7 N    2.978 --    21 C    1.646     7 C    0.980     2 N    0.169
    21   6 C    3.946 --    20 N    1.646     2 N    1.197    22 C    0.963
    22   6 C    3.963 --    24 C    0.993    23 C    0.991    25 N    0.975
                            21 C    0.963
    23   6 C    3.996 --    22 C    0.991    41 H    0.986    42 H    0.985
                            40 H    0.982
    24   6 C    3.997 --    22 C    0.993    43 H    0.987    44 H    0.984
                            45 H    0.984
    25   7 N    2.992 --    22 C    0.975    47 H    0.949    46 H    0.947
    26   1 H    1.027 --     1 C    0.981
    27   1 H    1.015 --     1 C    0.980
    28   1 H    1.035 --     1 C    0.976
    29   1 H    0.893 --     6 O    0.855
    30   1 H    1.013 --     8 C    0.986
    31   1 H    1.015 --     8 C    0.986
    32   1 H    1.011 --     8 C    0.988
    33   1 H    0.963 --    11 N    0.895
    34   1 H    1.006 --    12 C    0.978
    35   1 H    1.013 --    12 C    0.974
    36   1 H    1.016 --    14 C    0.969
    37   1 H    1.000 --    15 C    0.970
    38   1 H    0.999 --    18 C    0.970
    39   1 H    1.000 --    19 C    0.972
    40   1 H    1.008 --    23 C    0.982
    41   1 H    1.007 --    23 C    0.986
    42   1 H    1.003 --    23 C    0.985
    43   1 H    1.007 --    24 C    0.987
    44   1 H    1.021 --    24 C    0.984
    45   1 H    1.019 --    24 C    0.984
    46   1 H    0.965 --    25 N    0.947
    47   1 H    0.964 --    25 N    0.949
 ---------------------------------------------------------------------------

           -------------------------------------------------
          | TOTAL ENERGY              -80.212197047671 Eh   |
          | GRADIENT NORM               0.000568823475 Eh/α |
          | HOMO-LUMO GAP               0.989754332306 eV   |
           -------------------------------------------------

 * finished run on 2023/06/20 at 14:59:55.142
