   * xtb version 6.5.1 (579679a) compiled by 'ehlert@majestix' on 2022-07-11
          program call               : /lustre/hpc/kemi/ree/PhD/git/ReactivityQM/dep/xtb-6.5.1/bin/xtb --gfn 1 /lustre/hpc/kemi/ree/PhD/git/ReactivityQM/calculations/R01/reac02prodE07/conf20/R01_reac02prodE07_conf20_gfn1.xyz --opt --vfukui --chrg -1 --uhf 0 --alpb DMSO

   ID    Z sym.   atoms
    1    6 C      1, 3, 5, 6, 8, 10, 12-15
    2    8 O      2, 4, 7, 9
    3    7 N      11, 16, 17
    4    1 H      18-33

      * Solvation model:               ALPB
        Solvent                        DMSO
        Solvent mass                       7.8130E+01 g/mol
          :  Hamiltonian                  GFN1-xTB          :
 * total energy  :   -58.4951824 Eh     change       -0.3794298E-11 Eh
 * total energy  :   -58.5112897 Eh     change       -0.1610729E-01 Eh
 * total energy  :   -58.5158447 Eh     change       -0.4554969E-02 Eh
 * total energy  :   -58.5163817 Eh     change       -0.5369983E-03 Eh
 * total energy  :   -58.5167823 Eh     change       -0.4005960E-03 Eh
 * total energy  :   -58.5170531 Eh     change       -0.2708009E-03 Eh
 * total energy  :   -58.5176416 Eh     change       -0.5885061E-03 Eh
 * total energy  :   -58.5183074 Eh     change       -0.6658599E-03 Eh
 * total energy  :   -58.5196612 Eh     change       -0.1353820E-02 Eh
 * total energy  :   -58.5193936 Eh     change        0.2676072E-03 Eh
 * total energy  :   -58.5246762 Eh     change       -0.1312147E-04 Eh
 * total energy  :   -58.5246935 Eh     change       -0.1733455E-04 Eh
 * total energy  :   -58.5247206 Eh     change       -0.2706374E-04 Eh
 * total energy  :   -58.5247351 Eh     change       -0.1454916E-04 Eh
 * total energy  :   -58.5247474 Eh     change       -0.1222435E-04 Eh
 * total energy  :   -58.5247553 Eh     change       -0.7928858E-05 Eh
 * total energy  :   -58.5247629 Eh     change       -0.7623927E-05 Eh
 * total energy  :   -58.5247708 Eh     change       -0.7928117E-05 Eh
 * total energy  :   -58.5247738 Eh     change       -0.2978615E-05 Eh
   *** GEOMETRY OPTIMIZATION CONVERGED AFTER 80 ITERATIONS ***

 final structure:
================
33
 xtb: 6.5.1 (579679a)
C            4.76429513473040        1.52384260487444       -0.13122418466271
O            3.65520607998560        0.69595706549171        0.16313319491842
C            2.43438898764658        1.10776607876264       -0.44871958184722
O            2.45700249951604        2.13993388418012       -1.15372242888556
C            1.34725548740941        0.29808831504522       -0.14650524450618
C            1.33532053199609       -0.93965520301234        0.63047936777661
O            2.50439233726124       -1.59569840608216        0.95708217734572
C            0.16174099577299       -1.52266740645896        0.93896141396257
O            0.00954175604502       -2.75792709128973        1.55112644309558
C           -0.05216963650479       -2.73725303897200        2.97233219081846
N           -1.07802355299876       -0.84090339222533        0.66388679404946
C           -0.96886692690372        0.09454031731667       -0.39586468100769
C           -2.29753600627026        0.47228055703279       -1.02465275595956
C           -2.07046297917681        1.21204605483480       -2.34935597797574
C           -3.07372859901592        1.35993873991464       -0.04073987360334
N           -3.07266001997261       -0.75642462382619       -1.23551223353949
N            0.11171887320162        0.65965645337685       -0.74398446335134
H            4.98100826969106        1.53325081103849       -1.20737060265689
H            5.62559833013703        1.12045138675865        0.40365274486695
H            4.58854939070659        2.55655894009524        0.19668325613801
H            3.26446194041564       -1.02355770116888        0.74745371802622
H            0.89285134579338       -2.38319794093118        3.40500224771043
H           -0.23624603797551       -3.76178995539949        3.30047739715403
H           -0.86848941204888       -2.09516180736653        3.32654549696085
H           -1.84467215651615       -1.49133877062387        0.50986730213216
H           -3.02406164823657        1.49776277355609       -2.79018389286275
H           -1.53749388831601        0.56839732731622       -3.04907274570743
H           -1.47214680775530        2.10771566551800       -2.17667539716320
H           -3.23371365982835        0.82300480702163        0.89446082845346
H           -4.04239167018528        1.63243834869211       -0.45875472741970
H           -2.51310584608096        2.27174623425980        0.16733772784650
H           -2.71398801731741       -1.25080662508816       -2.04229025264331
H           -4.03357409520658       -0.51899540264175       -1.43385325746524

          :  Hamiltonian                  GFN1-xTB          :
         :: total energy             -58.524773813866 Eh    ::
         :: gradient norm              0.000553255530 Eh/a0 ::
         :: HOMO-LUMO gap              2.271713328322 eV    ::
         :: SCC energy               -59.062582177217 Eh    ::
         :: -> Gsolv                  -0.109884165122 Eh    ::
         :: repulsion energy           0.555768926534 Eh    ::

    * Orbital Energies and Occupations

         #    Occupation            Energy/Eh            Energy/eV
      -------------------------------------------------------------
         1        2.0000           -0.7665101             -20.8578
       ...           ...                  ...                  ...
        36        2.0000           -0.4757393             -12.9455
        37        2.0000           -0.4688543             -12.7582
        38        2.0000           -0.4610157             -12.5449
        39        2.0000           -0.4539131             -12.3516
        40        2.0000           -0.4490834             -12.2202
        41        2.0000           -0.4336088             -11.7991
        42        2.0000           -0.4296527             -11.6914
        43        2.0000           -0.4099832             -11.1562
        44        2.0000           -0.3964892             -10.7890
        45        2.0000           -0.3910538             -10.6411
        46        2.0000           -0.3801019             -10.3431
        47        2.0000           -0.3702005             -10.0737
        48        2.0000           -0.2934597              -7.9854 (HOMO)
        49                         -0.2099758              -5.7137 (LUMO)
        50                         -0.1835175              -4.9938
        51                         -0.1184057              -3.2220
        52                         -0.1085825              -2.9547
        53                         -0.1072352              -2.9180
        54                         -0.1036983              -2.8218
        55                         -0.0907609              -2.4697
        56                         -0.0843977              -2.2966
        57                         -0.0631870              -1.7194
        58                         -0.0590241              -1.6061
        59                         -0.0576719              -1.5693
       ...                                ...                  ...
       100                          0.7278093              19.8047
      -------------------------------------------------------------
                  HL-Gap            0.0834839 Eh            2.2717 eV

Wiberg/Mayer (AO) data.
largest (>0.10) Wiberg bond orders for each atom

     #   Z sym  total        # sym  WBO       # sym  WBO       # sym  WBO
 ---------------------------------------------------------------------------
     1   6 C    3.915 --    19 H    0.987    18 H    0.981    20 H    0.981
                             2 O    0.944
     2   8 O    2.072 --     1 C    0.944     3 C    0.895
     3   6 C    3.868 --     4 O    1.432     5 C    1.386     2 O    0.895
     4   8 O    1.752 --     3 C    1.432     5 C    0.131
     5   6 C    3.844 --     3 C    1.386     6 C    1.085    17 N    1.046
                             4 O    0.131
     6   6 C    3.899 --     8 C    1.650     5 C    1.085     7 O    1.004
     7   8 O    1.973 --     6 C    1.004    21 H    0.826
     8   6 C    3.827 --     6 C    1.650    11 N    0.962     9 O    0.954
     9   8 O    2.018 --     8 C    0.954    10 C    0.933
    10   6 C    3.919 --    23 H    0.986    24 H    0.983    22 H    0.983
                             9 O    0.933
    11   7 N    3.173 --    12 C    1.025     8 C    0.962    25 H    0.918
                            17 N    0.105
    12   6 C    3.946 --    17 N    1.747    11 N    1.025    13 C    0.975
    13   6 C    3.964 --    14 C    0.992    15 C    0.987    12 C    0.975
                            16 N    0.974
    14   6 C    3.997 --    13 C    0.992    26 H    0.988    27 H    0.985
                            28 H    0.983
    15   6 C    3.994 --    13 C    0.987    31 H    0.987    29 H    0.986
                            30 H    0.986
    16   7 N    2.973 --    13 C    0.974    33 H    0.948    32 H    0.948
    17   7 N    3.034 --    12 C    1.747     5 C    1.046    11 N    0.105
    18   1 H    1.021 --     1 C    0.981
    19   1 H    1.019 --     1 C    0.987
    20   1 H    1.022 --     1 C    0.981
    21   1 H    0.892 --     7 O    0.826
    22   1 H    1.018 --    10 C    0.983
    23   1 H    1.019 --    10 C    0.986
    24   1 H    1.015 --    10 C    0.983
    25   1 H    0.986 --    11 N    0.918
    26   1 H    1.006 --    14 C    0.988
    27   1 H    1.012 --    14 C    0.985
    28   1 H    1.018 --    14 C    0.983
    29   1 H    1.011 --    15 C    0.986
    30   1 H    1.003 --    15 C    0.986
    31   1 H    1.008 --    15 C    0.987
    32   1 H    0.964 --    16 N    0.948
    33   1 H    0.963 --    16 N    0.948
 ---------------------------------------------------------------------------

           -------------------------------------------------
          | TOTAL ENERGY              -58.524773813866 Eh   |
          | GRADIENT NORM               0.000553255530 Eh/α |
          | HOMO-LUMO GAP               2.271713328322 eV   |
           -------------------------------------------------

 * finished run on 2023/06/20 at 15:01:54.838
