   * xtb version 6.5.1 (579679a) compiled by 'ehlert@majestix' on 2022-07-11
          program call               : /lustre/hpc/kemi/ree/PhD/git/ReactivityQM/dep/xtb-6.5.1/bin/xtb --gfn 1 /lustre/hpc/kemi/ree/PhD/git/ReactivityQM/calculations/R03/reac02prodN11/conf10/R03_reac02prodN11_conf10_gfn1.xyz --opt --vfukui --chrg 1 --uhf 0 --alpb DMSO

   ID    Z sym.   atoms
    1    6 C      1, 3, 5, 7-10, 12, 13, 15, 18, 19, 22, 23, 25
    2    8 O      2, 4, 14, 20, 24, 26
    3    7 N      6, 11, 16, 17, 21
    4    1 H      27-46

      * Solvation model:               ALPB
        Solvent                        DMSO
        Solvent mass                       7.8130E+01 g/mol
          :  Hamiltonian                  GFN1-xTB          :
 * total energy  :   -86.2004075 Eh     change       -0.1178364E-09 Eh
 * total energy  :   -86.2167720 Eh     change       -0.1636448E-01 Eh
 * total energy  :   -86.2242617 Eh     change       -0.7489702E-02 Eh
 * total energy  :   -86.2261876 Eh     change       -0.1925944E-02 Eh
 * total energy  :   -86.2278121 Eh     change       -0.1624505E-02 Eh
 * total energy  :   -86.2287335 Eh     change       -0.9213388E-03 Eh
 * total energy  :   -86.2295322 Eh     change       -0.7987112E-03 Eh
 * total energy  :   -86.2301409 Eh     change       -0.6087058E-03 Eh
 * total energy  :   -86.2305210 Eh     change       -0.3801440E-03 Eh
 * total energy  :   -86.2307631 Eh     change       -0.2420363E-03 Eh
 * total energy  :   -86.2337963 Eh     change       -0.2426589E-04 Eh
 * total energy  :   -86.2338238 Eh     change       -0.2748558E-04 Eh
 * total energy  :   -86.2338406 Eh     change       -0.1680811E-04 Eh
 * total energy  :   -86.2338455 Eh     change       -0.4907148E-05 Eh
 * total energy  :   -86.2338533 Eh     change       -0.7786866E-05 Eh
 * total energy  :   -86.2338628 Eh     change       -0.9538052E-05 Eh
 * total energy  :   -86.2338693 Eh     change       -0.6527533E-05 Eh
 * total energy  :   -86.2338794 Eh     change       -0.1005912E-04 Eh
 * total energy  :   -86.2338826 Eh     change       -0.3179120E-05 Eh
   *** GEOMETRY OPTIMIZATION CONVERGED AFTER 68 ITERATIONS ***

 final structure:
================
46
 xtb: 6.5.1 (579679a)
C            5.72152960777192        0.11948249984072        2.72467827365148
O            4.56309141893977        0.01899710476121        1.88166994492941
C            4.71987106744964        0.33820753127064        0.61489381212346
O            5.77211341897045        0.70024182109569        0.12403163619378
C            3.47671356193193        0.22196933663047       -0.19593894303670
N            2.33819776985151       -0.17032937354559        0.41787244316879
C            1.23092192214594       -0.31660412452551       -0.24837952476339
C            0.06773604263077       -0.91212135435412        0.54864201481662
C           -0.01470978177870       -2.41603211444966        0.27978897057852
C            0.34361489341130       -0.66761128012058        2.04587211238374
N           -1.13708721579483       -0.17398550234912        0.24544416946193
C           -2.41196214987909       -0.68285561972249       -0.12965392600261
C           -3.19494650871496       -0.58987938017489        1.35654741423129
O           -2.55023837532007       -1.83259882287848       -0.59893336002135
C           -3.18652500401775        0.47622073189304       -0.74265470680129
N           -2.70823190109596        1.65119641448085       -1.02468390550668
N           -3.71861737842562        2.33090283835469       -1.61492736375517
C           -4.76286141854517        1.54874297146482       -1.61753962069248
C           -6.10775918753983        1.82765350109004       -2.15347320284899
O           -4.47563621629326        0.35603831408227       -1.06897182521417
N            1.12718709491892       -0.00566278491621       -1.56545563929646
C           -0.13285120117776       -0.11244692669424       -2.29699749922070
C            2.22516044353542        0.47103262241741       -2.30557576503007
O            2.11798220654126        0.76146685740669       -3.47837401419435
C            3.47570508407831        0.54912061541080       -1.53849427813340
O            4.53271332872134        0.98158532211819       -2.19494235535581
H            6.49657287974719       -0.56250343504768        2.36924130901055
H            6.10004986731597        1.14353826835692        2.71055018401596
H            5.39625557324839       -0.15591203131650        3.72521676575572
H           -0.18491912081067       -2.63149323722607       -0.77200339234086
H           -0.81661110667810       -2.85695767258916        0.86696492385353
H            0.93225030130291       -2.86351834853842        0.58044439000395
H            0.42975350146232        0.39772663081623        2.24821286933910
H           -0.46808056107144       -1.08371460672602        2.63694412979611
H            1.27866690813453       -1.15563086027490        2.31559446180949
H           -1.12256926815756        0.79770397668671        0.52612296092803
H           -2.69312089977850       -1.34181621164936        1.95395758241439
H           -3.10526637550039        0.40385729051732        1.77590255105192
H           -4.22031505332828       -0.86328966115397        1.13076042090872
H           -6.12878257677081        2.82025329231575       -2.59746071514977
H           -6.84308104278409        1.76630131875187       -1.35017895825582
H           -6.37088916468745        1.08007003683492       -2.90283831472790
H            0.07629476235233        0.00393482783569       -3.35963864301480
H           -0.79756902709751        0.68905726377441       -1.97100678006296
H           -0.59300013399344       -1.07976501062180       -2.11684934991935
H            5.32325301477853        1.01942697065994       -1.59989025708198

          :  Hamiltonian                  GFN1-xTB          :
         :: total energy             -86.233882582945 Eh    ::
         :: gradient norm              0.000518477326 Eh/a0 ::
         :: HOMO-LUMO gap              0.181815312604 eV    ::
         :: SCC energy               -87.049716645528 Eh    ::
         :: -> Gsolv                  -0.110339148830 Eh    ::
         :: repulsion energy           0.846247151314 Eh    ::

    * Orbital Energies and Occupations

         #    Occupation            Energy/Eh            Energy/eV
      -------------------------------------------------------------
         1        2.0000           -0.8999072             -24.4877
       ...           ...                  ...                  ...
        58        2.0000           -0.5289812             -14.3943
        59        2.0000           -0.5273637             -14.3503
        60        2.0000           -0.5173263             -14.0772
        61        2.0000           -0.5140732             -13.9886
        62        2.0000           -0.5130356             -13.9604
        63        2.0000           -0.5040514             -13.7159
        64        2.0000           -0.5036980             -13.7063
        65        2.0000           -0.4964575             -13.5093
        66        2.0000           -0.4917744             -13.3819
        67        2.0000           -0.4827851             -13.1373
        68        2.0000           -0.4817751             -13.1098
        69        2.0000           -0.4735497             -12.8859
        70        1.9423           -0.4570067             -12.4358 (HOMO)
        71        0.0577           -0.4503251             -12.2540 (LUMO)
        72                         -0.3522480              -9.5852
        73                         -0.3182321              -8.6595
        74                         -0.3068253              -8.3491
        75                         -0.2864208              -7.7939
        76                         -0.2676021              -7.2818
        77                         -0.1896718              -5.1612
        78                         -0.1686610              -4.5895
        79                         -0.1552247              -4.2239
        80                         -0.1534249              -4.1749
        81                         -0.1463108              -3.9813
       ...                                ...                  ...
       144                          0.7029015              19.1269
      -------------------------------------------------------------
                  HL-Gap            0.0066816 Eh            0.1818 eV

Wiberg/Mayer (AO) data.
largest (>0.10) Wiberg bond orders for each atom

     #   Z sym  total        # sym  WBO       # sym  WBO       # sym  WBO
 ---------------------------------------------------------------------------
     1   6 C    3.853 --    29 H    0.985    28 H    0.978    27 H    0.978
                             2 O    0.880
     2   8 O    2.232 --     3 C    1.161     1 C    0.880     4 O    0.138
     3   6 C    3.854 --     4 O    1.616     2 O    1.161     5 C    0.999
     4   8 O    1.953 --     3 C    1.616     2 O    0.138
     5   6 C    3.917 --    25 C    1.404     6 N    1.239     3 C    0.999
     6   7 N    3.010 --     7 C    1.497     5 C    1.239
     7   6 C    3.918 --     6 N    1.497    21 N    1.227     8 C    0.942
     8   6 C    3.910 --     9 C    0.981    11 N    0.954    10 C    0.948
                             7 C    0.942
     9   6 C    3.979 --     8 C    0.981    32 H    0.981    31 H    0.977
                            30 H    0.976
    10   6 C    3.972 --    34 H    0.982    33 H    0.981    35 H    0.969
                             8 C    0.948
    11   7 N    3.434 --    12 C    1.012     8 C    0.954    36 H    0.887
                            14 O    0.228
    12   6 C    3.906 --    14 O    1.373    11 N    1.012    15 C    0.875
                            13 C    0.561
    13   6 C    3.756 --    38 H    0.984    37 H    0.972    39 H    0.971
                            12 C    0.561
    14   8 O    1.846 --    12 C    1.373    11 N    0.228
    15   6 C    3.846 --    16 N    1.568    20 O    1.088    12 C    0.875
    16   7 N    3.014 --    15 C    1.568    17 N    1.211
    17   7 N    2.996 --    18 C    1.560    16 N    1.211
    18   6 C    3.836 --    17 N    1.560    20 O    1.068    19 C    1.041
    19   6 C    3.974 --    18 C    1.041    40 H    0.979    42 H    0.954
                            41 H    0.952
    20   8 O    2.344 --    15 C    1.088    18 C    1.068
    21   7 N    3.513 --     7 C    1.227    23 C    1.072    22 C    0.925
                            24 O    0.119
    22   6 C    3.906 --    45 H    0.974    43 H    0.966    44 H    0.955
                            21 N    0.925
    23   6 C    3.889 --    24 O    1.635    21 N    1.072    25 C    1.044
    24   8 O    1.912 --    23 C    1.635    21 N    0.119
    25   6 C    3.848 --     5 C    1.404    26 O    1.181    23 C    1.044
    26   8 O    2.097 --    25 C    1.181    46 H    0.756
    27   1 H    1.003 --     1 C    0.978
    28   1 H    1.003 --     1 C    0.978
    29   1 H    1.008 --     1 C    0.985
    30   1 H    1.007 --     9 C    0.976
    31   1 H    1.003 --     9 C    0.977
    32   1 H    0.999 --     9 C    0.981
    33   1 H    0.998 --    10 C    0.981
    34   1 H    0.997 --    10 C    0.982
    35   1 H    1.007 --    10 C    0.969
    36   1 H    0.937 --    11 N    0.887
    37   1 H    0.991 --    13 C    0.972
    38   1 H    0.990 --    13 C    0.984
    39   1 H    0.992 --    13 C    0.971
    40   1 H    0.994 --    19 C    0.979
    41   1 H    0.989 --    19 C    0.952
    42   1 H    0.988 --    19 C    0.954
    43   1 H    0.999 --    22 C    0.966
    44   1 H    1.011 --    22 C    0.955
    45   1 H    1.000 --    22 C    0.974
    46   1 H    0.835 --    26 O    0.756
 ---------------------------------------------------------------------------

           -------------------------------------------------
          | TOTAL ENERGY              -86.233882582945 Eh   |
          | GRADIENT NORM               0.000518477326 Eh/α |
          | HOMO-LUMO GAP               0.181815312604 eV   |
           -------------------------------------------------

 * finished run on 2023/06/20 at 15:46:47.069
