   * xtb version 6.5.1 (579679a) compiled by 'ehlert@majestix' on 2022-07-11
          program call               : /lustre/hpc/kemi/ree/PhD/git/ReactivityQM/dep/xtb-6.5.1/bin/xtb --gfn 1 /lustre/hpc/kemi/ree/PhD/git/ReactivityQM/calculations/R02oxygendeprot/reac01prodE09/conf07/R02oxygendeprot_reac01prodE09_conf07_gfn1.xyz --opt --vfukui --chrg -2 --uhf 0 --alpb DMSO

   ID    Z sym.   atoms
    1    6 C      1, 3, 5, 7-10, 12, 14, 16, 17, 20, 22, 24
    2    8 O      2, 4, 13, 15, 23, 25
    3    7 N      6, 11, 18, 19, 21
    4    1 H      26-42

      * Solvation model:               ALPB
        Solvent                        DMSO
        Solvent mass                       7.8130E+01 g/mol
          :  Hamiltonian                  GFN1-xTB          :
 * total energy  :   -83.5984687 Eh     change       -0.2373454E-08 Eh
 * total energy  :   -83.6128128 Eh     change       -0.1434417E-01 Eh
 * total energy  :   -83.6183123 Eh     change       -0.5499435E-02 Eh
 * total energy  :   -83.6203740 Eh     change       -0.2061780E-02 Eh
 * total energy  :   -83.6239964 Eh     change       -0.3622357E-02 Eh
 * total energy  :   -83.6263221 Eh     change       -0.2325676E-02 Eh
 * total energy  :   -83.6292871 Eh     change       -0.2965041E-02 Eh
 * total energy  :   -83.6301462 Eh     change       -0.8590399E-03 Eh
 * total energy  :   -83.6315765 Eh     change       -0.1430372E-02 Eh
 * total energy  :   -83.6323944 Eh     change       -0.8178751E-03 Eh
 * total energy  :   -83.6348733 Eh     change       -0.1228859E-04 Eh
 * total energy  :   -83.6348882 Eh     change       -0.1492568E-04 Eh
 * total energy  :   -83.6349031 Eh     change       -0.1485548E-04 Eh
 * total energy  :   -83.6349167 Eh     change       -0.1366347E-04 Eh
 * total energy  :   -83.6349294 Eh     change       -0.1263915E-04 Eh
 * total energy  :   -83.6349413 Eh     change       -0.1194566E-04 Eh
 * total energy  :   -83.6349518 Eh     change       -0.1047739E-04 Eh
 * total energy  :   -83.6349602 Eh     change       -0.8364757E-05 Eh
 * total energy  :   -83.6349632 Eh     change       -0.3003104E-05 Eh
   *** GEOMETRY OPTIMIZATION CONVERGED AFTER 44 ITERATIONS ***

 final structure:
================
42
 xtb: 6.5.1 (579679a)
C            5.61182909639080        1.13831351944272        2.20369851981233
O            4.53857770108922        0.76209355203582        1.35680122544775
C            4.67511823534974        1.11549866901512        0.03688310280823
O            5.67801458550170        1.71058694199910       -0.33347953863396
C            3.54250870403630        0.70639879436274       -0.77012864373569
N            2.54055861781448        0.03559649775164       -0.08705824845364
C            1.49107717359030       -0.36510673623176       -0.70457839976805
C            0.40975820756620       -1.16944668555412       -0.00471999649006
C            0.45765447284748       -0.89312326673723        1.50578476361614
C            0.70568170472764       -2.65313812133687       -0.29087712234635
N           -0.86819153789463       -0.77038934325625       -0.60045095717155
C           -2.08299353098488       -1.30167040124985        0.01043303526290
O           -2.10383466816245       -2.48367436716230        0.48104683469353
C           -3.11012170247595       -0.40748939481517        0.08773190156433
O           -3.11263085373832        0.87881795071766       -0.53326221920733
C           -4.40173282282280        1.23157511214582       -0.56830513724608
C           -4.75598376294306        2.55438906842267       -1.15750380705277
N           -5.25059530599457        0.40516344058103       -0.08794290360764
N           -4.50964577143966       -0.74644951841709        0.36358052594720
C           -4.76873334409561       -0.91390271717292        1.80237244706528
N            1.32350695823290       -0.16166377486486       -2.05916414105892
C            2.22812976835171        0.47885920838188       -2.85640598472130
O            1.99785065476655        0.62129335425134       -4.05906853575023
C            3.47987741479322        0.96993197202913       -2.16402237066325
O            4.34808003331265        1.55622270461422       -2.84108406891620
H            5.35573726843494        0.81227273632263        3.21119287087314
H            5.75529328746704        2.22401378596683        2.19427986303522
H            6.54494236254673        0.65891584109902        1.88896221826140
H            0.22127264084165        0.15236403925112        1.70354989945198
H            1.45813069525933       -1.10137669710071        1.88513246021965
H           -0.26002597590583       -1.52567022265552        2.02647822731663
H            0.03092089631579       -3.29779408029925        0.26944421691253
H            0.58238023210142       -2.85500670018895       -1.35472720754528
H            1.73224349678071       -2.88328087936114       -0.00382991127774
H           -0.93140058999888        0.24517687384930       -0.60989579533967
H           -4.30125836171729        3.35497675265677       -0.57444412124905
H           -5.83601024847012        2.67942181065368       -1.15702847968906
H           -4.38198767712913        2.62574154716554       -2.17863551961092
H           -4.20288677213604       -1.78333658910707        2.13714544289591
H           -4.46321097687572       -0.03116387590053        2.37364093026979
H           -5.83398141129604       -1.09071665315133        1.94693129595856
H            0.46608110596438       -0.48322514815906       -2.48847867187512

          :  Hamiltonian                  GFN1-xTB          :
         :: total energy             -83.634963178720 Eh    ::
         :: gradient norm              0.000269763466 Eh/a0 ::
         :: HOMO-LUMO gap              0.781587767462 eV    ::
         :: SCC energy               -84.377785151735 Eh    ::
         :: -> Gsolv                  -0.260673615371 Eh    ::
         :: repulsion energy           0.768273560480 Eh    ::

    * Orbital Energies and Occupations

         #    Occupation            Energy/Eh            Energy/eV
      -------------------------------------------------------------
         1        2.0000           -0.7889040             -21.4672
       ...           ...                  ...                  ...
        56        2.0000           -0.4469614             -12.1624
        57        2.0000           -0.4419546             -12.0262
        58        2.0000           -0.4276585             -11.6372
        59        2.0000           -0.4244204             -11.5491
        60        2.0000           -0.4188580             -11.3977
        61        2.0000           -0.4111754             -11.1887
        62        2.0000           -0.4006441             -10.9021
        63        2.0000           -0.3818646             -10.3911
        64        2.0000           -0.3796907             -10.3319
        65        2.0000           -0.3656794              -9.9506
        66        2.0000           -0.3571159              -9.7176
        67        2.0000           -0.3520026              -9.5785
        68        2.0000           -0.2879426              -7.8353 (HOMO)
        69        0.0000           -0.2592198              -7.0537 (LUMO)
        70                         -0.2209272              -6.0117
        71                         -0.2053527              -5.5879
        72                         -0.1855961              -5.0503
        73                         -0.1292973              -3.5184
        74                         -0.1203368              -3.2745
        75                         -0.1179136              -3.2086
        76                         -0.0970983              -2.6422
        77                         -0.0922540              -2.5104
        78                         -0.0901596              -2.4534
        79                         -0.0877511              -2.3878
       ...                                ...                  ...
       134                          0.7699793              20.9522
      -------------------------------------------------------------
                  HL-Gap            0.0287228 Eh            0.7816 eV

Wiberg/Mayer (AO) data.
largest (>0.10) Wiberg bond orders for each atom

     #   Z sym  total        # sym  WBO       # sym  WBO       # sym  WBO
 ---------------------------------------------------------------------------
     1   6 C    3.903 --    26 H    0.987    28 H    0.980    27 H    0.980
                             2 O    0.932
     2   8 O    2.132 --     3 C    1.016     1 C    0.932     4 O    0.106
     3   6 C    3.848 --     4 O    1.582     5 C    1.131     2 O    1.016
     4   8 O    1.860 --     3 C    1.582     2 O    0.106
     5   6 C    3.919 --    24 C    1.273     6 N    1.145     3 C    1.131
                            25 O    0.130
     6   7 N    3.021 --     7 C    1.634     5 C    1.145
     7   6 C    3.926 --     6 N    1.634    21 N    1.095     8 C    0.976
     8   6 C    3.966 --     9 C    0.989    10 C    0.980     7 C    0.976
                            11 N    0.965
     9   6 C    3.996 --     8 C    0.989    29 H    0.987    30 H    0.985
                            31 H    0.984
    10   6 C    3.993 --    34 H    0.989    33 H    0.986     8 C    0.980
                            32 H    0.977
    11   7 N    3.075 --     8 C    0.965    12 C    0.947    35 H    0.941
    12   6 C    3.932 --    14 C    1.518    13 O    1.337    11 N    0.947
    13   8 O    1.701 --    12 C    1.337    14 C    0.172
    14   6 C    3.658 --    12 C    1.518    19 N    0.947    15 O    0.873
                            13 O    0.172
    15   8 O    2.190 --    16 C    1.087    14 C    0.873    18 N    0.133
    16   6 C    3.906 --    18 N    1.709    15 O    1.087    17 C    1.014
    17   6 C    3.995 --    16 C    1.014    37 H    0.987    38 H    0.974
                            36 H    0.972
    18   7 N    2.947 --    16 C    1.709    19 N    0.986    15 O    0.133
    19   7 N    3.063 --    18 N    0.986    20 C    0.969    14 C    0.947
    20   6 C    3.981 --    41 H    0.989    39 H    0.987    40 H    0.984
                            19 N    0.969
    21   7 N    3.438 --    22 C    1.179     7 C    1.095    42 H    0.893
                            23 O    0.136
    22   6 C    3.883 --    23 O    1.559    21 N    1.179    24 C    0.971
    23   8 O    1.838 --    22 C    1.559    21 N    0.136
    24   6 C    3.943 --    25 O    1.510     5 C    1.273    22 C    0.971
    25   8 O    1.813 --    24 C    1.510     5 C    0.130
    26   1 H    1.017 --     1 C    0.987
    27   1 H    1.015 --     1 C    0.980
    28   1 H    1.015 --     1 C    0.980
    29   1 H    1.009 --     9 C    0.987
    30   1 H    1.019 --     9 C    0.985
    31   1 H    1.016 --     9 C    0.984
    32   1 H    1.032 --    10 C    0.977
    33   1 H    1.012 --    10 C    0.986
    34   1 H    1.009 --    10 C    0.989
    35   1 H    0.982 --    11 N    0.941
    36   1 H    1.003 --    17 C    0.972
    37   1 H    1.006 --    17 C    0.987
    38   1 H    1.004 --    17 C    0.974
    39   1 H    1.033 --    20 C    0.987
    40   1 H    1.021 --    20 C    0.984
    41   1 H    1.025 --    20 C    0.989
    42   1 H    0.964 --    21 N    0.893
 ---------------------------------------------------------------------------

           -------------------------------------------------
          | TOTAL ENERGY              -83.634963178720 Eh   |
          | GRADIENT NORM               0.000269763466 Eh/α |
          | HOMO-LUMO GAP               0.781587767462 eV   |
           -------------------------------------------------

 * finished run on 2023/06/21 at 17:10:37.411
