   * xtb version 6.5.1 (579679a) compiled by 'ehlert@majestix' on 2022-07-11
          program call               : /lustre/hpc/kemi/ree/PhD/git/ReactivityQM/dep/xtb-6.5.1/bin/xtb --gfn 1 /lustre/hpc/kemi/ree/PhD/git/ReactivityQM/calculations/R02oxygendeprot/reac01prodE01/conf05/R02oxygendeprot_reac01prodE01_conf05_gfn1.xyz --opt --vfukui --chrg -2 --uhf 0 --alpb DMSO

   ID    Z sym.   atoms
    1    6 C      1, 3, 5, 7-10, 12, 13, 15, 18, 19, 22, 24
    2    8 O      2, 4, 14, 20, 23, 25
    3    7 N      6, 11, 16, 17, 21
    4    1 H      26-42

      * Solvation model:               ALPB
        Solvent                        DMSO
        Solvent mass                       7.8130E+01 g/mol
          :  Hamiltonian                  GFN1-xTB          :
 * total energy  :   -83.6326708 Eh     change       -0.2221157E-10 Eh
 * total energy  :   -83.6438545 Eh     change       -0.1118372E-01 Eh
 * total energy  :   -83.6472520 Eh     change       -0.3397412E-02 Eh
 * total energy  :   -83.6480959 Eh     change       -0.8439149E-03 Eh
 * total energy  :   -83.6485771 Eh     change       -0.4812070E-03 Eh
 * total energy  :   -83.6488406 Eh     change       -0.2634976E-03 Eh
 * total energy  :   -83.6490305 Eh     change       -0.1899774E-03 Eh
 * total energy  :   -83.6491395 Eh     change       -0.1089497E-03 Eh
 * total energy  :   -83.6491911 Eh     change       -0.5159159E-04 Eh
 * total energy  :   -83.6492295 Eh     change       -0.3841167E-04 Eh
 * total energy  :   -83.6501930 Eh     change       -0.9116936E-05 Eh
 * total energy  :   -83.6502012 Eh     change       -0.8180632E-05 Eh
 * total energy  :   -83.6502087 Eh     change       -0.7514852E-05 Eh
 * total energy  :   -83.6502152 Eh     change       -0.6506796E-05 Eh
 * total energy  :   -83.6502220 Eh     change       -0.6819469E-05 Eh
 * total energy  :   -83.6502300 Eh     change       -0.8002332E-05 Eh
 * total energy  :   -83.6502380 Eh     change       -0.8006328E-05 Eh
 * total energy  :   -83.6502438 Eh     change       -0.5799071E-05 Eh
 * total energy  :   -83.6502483 Eh     change       -0.4434799E-05 Eh
   *** GEOMETRY OPTIMIZATION CONVERGED AFTER 43 ITERATIONS ***

 final structure:
================
42
 xtb: 6.5.1 (579679a)
C            5.67025245593325        1.50735342334369        1.65542076923924
O            4.50414406270721        1.09922594753080        0.96031862167348
C            4.57576514384802        1.17247605302034       -0.41001090817332
O            5.59885140385684        1.58048818431919       -0.94391588334119
C            3.35998852873096        0.72150874308826       -1.05677973902602
N            2.35555626543703        0.29943866300799       -0.19942889780083
C            1.24343156851180       -0.13390898573950       -0.67051158742378
C            0.15652322906227       -0.67167142215135        0.25419368907331
C            0.59672514024322       -2.09159160484991        0.64801104409790
C            0.08394184712037        0.23339991976408        1.49675520597462
N           -1.09874955956754       -0.66528271790600       -0.50509766050052
C           -2.27919210619851       -1.44734221399227        0.11217287422876
C           -2.42424766603234       -2.73576122933305       -0.76953365501578
O           -2.23585555574541       -1.66294690312492        1.39519407994616
C           -3.52780304076971       -0.57702094820727       -0.25285089653685
N           -4.70393206323431       -1.01782529266754       -0.57914520432568
N           -5.54957243121777        0.07494817470944       -0.62091865274231
C           -4.82835280906332        1.09891251561941       -0.31040068237873
C           -5.26581608872596        2.51351208430262       -0.21932242989252
O           -3.54697767908095        0.76383626623917       -0.06440054483327
N            1.01481917562000       -0.21350546638037       -2.02543922693612
C            1.90529195907228        0.17390275786511       -2.98362228544544
O            1.61033585655406        0.07820532329720       -4.17775798372871
C            3.22675667411766        0.69942600140522       -2.47043930865130
O            4.08899106357192        1.06520913984959       -3.29563195379729
H            5.46141177648042        1.40750171764808        2.71997189446661
H            5.91903536996304        2.54905239036206        1.42649533981106
H            6.52511164465188        0.87667430547099        1.38883533285322
H            0.64315458661878       -2.72940214199787       -0.23492052494899
H           -0.09188586231355       -2.52833467362239        1.37008556635387
H            1.59097557130812       -2.04693574332669        1.09491254437696
H            1.06659981168065        0.29099221593338        1.96660792755518
H           -0.22307067048504        1.23870312398629        1.20744518702045
H           -0.63557022805220       -0.16175671208967        2.21215825382805
H           -1.39201127151042        0.30824500190050       -0.57118308110593
H           -1.59724477425739       -3.41111116336548       -0.56178921308262
H           -3.35894458376776       -3.23425506553068       -0.51439360114420
H           -2.42537626504538       -2.47775870709289       -1.82722347249058
H           -6.34243527696494        2.56902017926051       -0.35879087407037
H           -4.77467065527496        3.11169424520472       -0.98661458232092
H           -5.00426252934471        2.92929624574555        0.75298770039873
H            0.10830598156578       -0.55660863149444       -2.32231618118017

          :  Hamiltonian                  GFN1-xTB          :
         :: total energy             -83.650248266117 Eh    ::
         :: gradient norm              0.000414542920 Eh/a0 ::
         :: HOMO-LUMO gap              2.268868880289 eV    ::
         :: SCC energy               -84.383828186197 Eh    ::
         :: -> Gsolv                  -0.260922567176 Eh    ::
         :: repulsion energy           0.759659589581 Eh    ::

    * Orbital Energies and Occupations

         #    Occupation            Energy/Eh            Energy/eV
      -------------------------------------------------------------
         1        2.0000           -0.8162914             -22.2124
       ...           ...                  ...                  ...
        56        2.0000           -0.4422604             -12.0345
        57        2.0000           -0.4391148             -11.9489
        58        2.0000           -0.4321049             -11.7582
        59        2.0000           -0.4259940             -11.5919
        60        2.0000           -0.4212918             -11.4639
        61        2.0000           -0.4120469             -11.2124
        62        2.0000           -0.4073872             -11.0856
        63        2.0000           -0.3975488             -10.8179
        64        2.0000           -0.3724442             -10.1347
        65        2.0000           -0.3624166              -9.8619
        66        2.0000           -0.3495434              -9.5116
        67        2.0000           -0.3426762              -9.3247
        68        2.0000           -0.3406455              -9.2694 (HOMO)
        69                         -0.2572661              -7.0006 (LUMO)
        70                         -0.2237199              -6.0877
        71                         -0.2171623              -5.9093
        72                         -0.2083739              -5.6701
        73                         -0.1835405              -4.9944
        74                         -0.1270327              -3.4567
        75                         -0.1175775              -3.1994
        76                         -0.0962694              -2.6196
        77                         -0.0929728              -2.5299
        78                         -0.0828765              -2.2552
        79                         -0.0794059              -2.1607
       ...                                ...                  ...
       134                          0.7703683              20.9628
      -------------------------------------------------------------
                  HL-Gap            0.0833794 Eh            2.2689 eV

Wiberg/Mayer (AO) data.
largest (>0.10) Wiberg bond orders for each atom

     #   Z sym  total        # sym  WBO       # sym  WBO       # sym  WBO
 ---------------------------------------------------------------------------
     1   6 C    3.904 --    26 H    0.987    28 H    0.980    27 H    0.980
                             2 O    0.933
     2   8 O    2.131 --     3 C    1.014     1 C    0.933     4 O    0.105
     3   6 C    3.849 --     4 O    1.580     5 C    1.133     2 O    1.014
     4   8 O    1.858 --     3 C    1.580     2 O    0.105
     5   6 C    3.920 --    24 C    1.274     6 N    1.145     3 C    1.133
                            25 O    0.130
     6   7 N    3.019 --     7 C    1.628     5 C    1.145
     7   6 C    3.924 --     6 N    1.628    21 N    1.104     8 C    0.971
     8   6 C    3.967 --    10 C    0.985     9 C    0.982    11 N    0.979
                             7 C    0.971
     9   6 C    3.994 --    31 H    0.987    29 H    0.985     8 C    0.982
                            30 H    0.977
    10   6 C    3.995 --    33 H    0.986    32 H    0.985     8 C    0.985
                            34 H    0.979
    11   7 N    3.004 --     8 C    0.979    35 H    0.947    12 C    0.848
    12   6 C    3.936 --    14 O    1.210    13 C    0.940    15 C    0.885
                            11 N    0.848
    13   6 C    3.991 --    38 H    0.991    37 H    0.987    36 H    0.984
                            12 C    0.940
    14   8 O    1.565 --    12 C    1.210
    15   6 C    3.805 --    16 N    1.648    20 O    1.047    12 C    0.885
    16   7 N    2.967 --    15 C    1.648    17 N    1.149
    17   7 N    2.975 --    18 C    1.655    16 N    1.149
    18   6 C    3.888 --    17 N    1.655    20 O    1.063    19 C    1.024
    19   6 C    3.993 --    18 C    1.024    39 H    0.985    41 H    0.972
                            40 H    0.969
    20   8 O    2.302 --    18 C    1.063    15 C    1.047
    21   7 N    3.444 --    22 C    1.181     7 C    1.104    42 H    0.886
                            23 O    0.136
    22   6 C    3.884 --    23 O    1.554    21 N    1.181    24 C    0.973
    23   8 O    1.833 --    22 C    1.554    21 N    0.136
    24   6 C    3.944 --    25 O    1.506     5 C    1.274    22 C    0.973
    25   8 O    1.810 --    24 C    1.506     5 C    0.130
    26   1 H    1.017 --     1 C    0.987
    27   1 H    1.016 --     1 C    0.980
    28   1 H    1.015 --     1 C    0.980
    29   1 H    1.011 --     9 C    0.985
    30   1 H    1.030 --     9 C    0.977
    31   1 H    1.013 --     9 C    0.987
    32   1 H    1.019 --    10 C    0.985
    33   1 H    1.010 --    10 C    0.986
    34   1 H    1.033 --    10 C    0.979
    35   1 H    0.982 --    11 N    0.947
    36   1 H    1.018 --    13 C    0.984
    37   1 H    1.022 --    13 C    0.987
    38   1 H    1.019 --    13 C    0.991
    39   1 H    1.003 --    19 C    0.985
    40   1 H    1.002 --    19 C    0.969
    41   1 H    1.002 --    19 C    0.972
    42   1 H    0.973 --    21 N    0.886
 ---------------------------------------------------------------------------

           -------------------------------------------------
          | TOTAL ENERGY              -83.650248266117 Eh   |
          | GRADIENT NORM               0.000414542920 Eh/α |
          | HOMO-LUMO GAP               2.268868880289 eV   |
           -------------------------------------------------

 * finished run on 2023/06/21 at 17:00:54.203
