   * xtb version 6.5.1 (579679a) compiled by 'ehlert@majestix' on 2022-07-11
          program call               : /lustre/hpc/kemi/ree/PhD/git/ReactivityQM/dep/xtb-6.5.1/bin/xtb --gfn 1 /lustre/hpc/kemi/ree/PhD/git/ReactivityQM/calculations/R01/reac01prodE02/conf11/R01_reac01prodE02_conf11_gfn1.xyz --opt --vfukui --chrg -1 --uhf 0 --alpb DMSO

   ID    Z sym.   atoms
    1    6 C      1, 3, 5, 6, 9, 10
    2    8 O      2, 4, 11
    3    7 N      7, 8
    4    1 H      12-20

      * Solvation model:               ALPB
        Solvent                        DMSO
        Solvent mass                       7.8130E+01 g/mol
          :  Hamiltonian                  GFN1-xTB          :
 * total energy  :   -38.2759657 Eh     change       -0.1470823E-11 Eh
 * total energy  :   -38.2872126 Eh     change       -0.1124685E-01 Eh
 * total energy  :   -38.2904591 Eh     change       -0.3246561E-02 Eh
 * total energy  :   -38.2910048 Eh     change       -0.5457113E-03 Eh
 * total energy  :   -38.2913785 Eh     change       -0.3737112E-03 Eh
 * total energy  :   -38.2915681 Eh     change       -0.1895694E-03 Eh
 * total energy  :   -38.2917910 Eh     change       -0.2229337E-03 Eh
 * total energy  :   -38.2920359 Eh     change       -0.2449096E-03 Eh
 * total energy  :   -38.2923177 Eh     change       -0.2818019E-03 Eh
 * total energy  :   -38.2928546 Eh     change       -0.5368729E-03 Eh
 * total energy  :   -38.3032452 Eh     change       -0.3551873E-04 Eh
 * total energy  :   -38.3032685 Eh     change       -0.2331660E-04 Eh
 * total energy  :   -38.3032963 Eh     change       -0.2785824E-04 Eh
 * total energy  :   -38.3033136 Eh     change       -0.1731333E-04 Eh
 * total energy  :   -38.3033295 Eh     change       -0.1582804E-04 Eh
 * total energy  :   -38.3033380 Eh     change       -0.8485013E-05 Eh
 * total energy  :   -38.3033497 Eh     change       -0.1172832E-04 Eh
 * total energy  :   -38.3033565 Eh     change       -0.6771512E-05 Eh
 * total energy  :   -38.3033583 Eh     change       -0.1848171E-05 Eh
   *** GEOMETRY OPTIMIZATION CONVERGED AFTER 58 ITERATIONS ***

 final structure:
================
20
 xtb: 6.5.1 (579679a)
C           -2.38165935006667       -1.87371613773669        0.07527499977548
O           -1.93226969412607       -1.00909836884141       -0.96252461759264
C           -0.99220836158869       -0.03177582055218       -0.57896197745489
O           -1.54407075325247        1.01416881204114        0.21692153736723
C           -2.04361627518910        2.10243062598739       -0.53794802076232
C            0.31718962947700       -0.42302591859329       -0.34519888079956
N            0.92072063885081       -1.54056646067541       -0.79562324212423
N            2.27151013024843       -1.37450294089524       -0.54202159538263
C            2.42800777172094       -0.22823488918873        0.01585919306778
C            3.70054954881202        0.39251132461948        0.47242423828391
O            1.24922602858327        0.45335016737153        0.18267610131951
H           -1.55189145952187       -2.46409152816594        0.48965081625590
H           -3.11997754238968       -2.55251716069187       -0.35782157523597
H           -2.85370975792477       -1.30821976392901        0.88956589160377
H           -1.26724672946067        2.52665345833256       -1.18832251461279
H           -2.89355935754645        1.79937924451166       -1.16374848791531
H           -2.37785298947164        2.86844294509663        0.16537052294351
H            3.67273140962403        0.58660811846463        1.54580902477905
H            4.52738481223079       -0.28050325546613        0.25478194686909
H            3.87074330099036        1.34270554831138       -0.03611436038394

          :  Hamiltonian                  GFN1-xTB          :
         :: total energy             -38.303358305440 Eh    ::
         :: gradient norm              0.000637912870 Eh/a0 ::
         :: HOMO-LUMO gap              2.796994736827 eV    ::
         :: SCC energy               -38.606493541308 Eh    ::
         :: -> Gsolv                  -0.101762189558 Eh    ::
         :: repulsion energy           0.311205820100 Eh    ::

    * Orbital Energies and Occupations

         #    Occupation            Energy/Eh            Energy/eV
      -------------------------------------------------------------
         1        2.0000           -0.7743859             -21.0721
       ...           ...                  ...                  ...
        19        2.0000           -0.5101986             -13.8832
        20        2.0000           -0.5071148             -13.7993
        21        2.0000           -0.4939458             -13.4409
        22        2.0000           -0.4753811             -12.9358
        23        2.0000           -0.4679379             -12.7332
        24        2.0000           -0.4614026             -12.5554
        25        2.0000           -0.4218559             -11.4793
        26        2.0000           -0.4202411             -11.4353
        27        2.0000           -0.4179251             -11.3723
        28        2.0000           -0.3981176             -10.8333
        29        2.0000           -0.3881600             -10.5624
        30        2.0000           -0.3723867             -10.1332
        31        2.0000           -0.2909610              -7.9175 (HOMO)
        32                         -0.1881734              -5.1205 (LUMO)
        33                         -0.1516725              -4.1272
        34                         -0.1169463              -3.1823
        35                         -0.1070121              -2.9119
        36                         -0.1040401              -2.8311
        37                         -0.0503393              -1.3698
        38                         -0.0493108              -1.3418
        39                         -0.0471712              -1.2836
        40                         -0.0465776              -1.2674
        41                         -0.0462189              -1.2577
        42                         -0.0419765              -1.1422
       ...                                ...                  ...
        62                          0.6444941              17.5376
      -------------------------------------------------------------
                  HL-Gap            0.1027877 Eh            2.7970 eV

Wiberg/Mayer (AO) data.
largest (>0.10) Wiberg bond orders for each atom

     #   Z sym  total        # sym  WBO       # sym  WBO       # sym  WBO
 ---------------------------------------------------------------------------
     1   6 C    3.938 --    13 H    0.987    14 H    0.982    12 H    0.982
                             2 O    0.946
     2   8 O    1.988 --     1 C    0.946     3 C    0.923
     3   6 C    3.573 --     6 C    1.415     2 O    0.923     4 O    0.900
                             7 N    0.154
     4   8 O    1.993 --     5 C    0.959     3 C    0.900
     5   6 C    3.936 --    17 H    0.985    16 H    0.982    15 H    0.981
                             4 O    0.959
     6   6 C    3.861 --     3 C    1.415     7 N    1.330    11 O    0.973
     7   7 N    2.823 --     6 C    1.330     8 N    1.145     3 C    0.154
                             9 C    0.104
     8   7 N    2.984 --     9 C    1.678     7 N    1.145
     9   6 C    3.888 --     8 N    1.678    10 C    1.018    11 O    1.005
                             7 N    0.104
    10   6 C    3.996 --     9 C    1.018    19 H    0.987    20 H    0.975
                            18 H    0.975
    11   8 O    2.191 --     9 C    1.005     6 C    0.973
    12   1 H    1.022 --     1 C    0.982
    13   1 H    1.022 --     1 C    0.987
    14   1 H    1.019 --     1 C    0.982
    15   1 H    1.028 --     5 C    0.981
    16   1 H    1.024 --     5 C    0.982
    17   1 H    1.023 --     5 C    0.985
    18   1 H    1.006 --    10 C    0.975
    19   1 H    1.007 --    10 C    0.987
    20   1 H    1.006 --    10 C    0.975
 ---------------------------------------------------------------------------

           -------------------------------------------------
          | TOTAL ENERGY              -38.303358305440 Eh   |
          | GRADIENT NORM               0.000637912870 Eh/α |
          | HOMO-LUMO GAP               2.796994736827 eV   |
           -------------------------------------------------

 * finished run on 2023/06/20 at 14:52:58.697
