   * xtb version 6.5.1 (579679a) compiled by 'ehlert@majestix' on 2022-07-11
          program call               : /lustre/hpc/kemi/ree/PhD/git/ReactivityQM/dep/xtb-6.5.1/bin/xtb --gfn 1 /lustre/hpc/kemi/ree/PhD/git/ReactivityQM/calculations/RaltegravirCLI/reac01prodE03/conf06/RaltegravirCLI_reac01prodE03_conf06_gfn1.xyz --opt --vfukui --chrg -1 --uhf 0 --alpb DMSO

   ID    Z sym.   atoms
    1    6 C      1, 2, 4, 5, 10
    2    8 O      3, 6
    3   17 Cl     7
    4    7 N      8, 9
    5    1 H      11-16

      * Solvation model:               ALPB
        Solvent                        DMSO
        Solvent mass                       7.8130E+01 g/mol
          :  Hamiltonian                  GFN1-xTB          :
 * total energy  :   -34.0913932 Eh     change       -0.1029932E-09 Eh
 * total energy  :   -34.1024549 Eh     change       -0.1106171E-01 Eh
 * total energy  :   -34.1082040 Eh     change       -0.5749084E-02 Eh
 * total energy  :   -34.1092343 Eh     change       -0.1030378E-02 Eh
 * total energy  :   -34.1105418 Eh     change       -0.1307432E-02 Eh
 * total energy  :   -34.1108836 Eh     change       -0.3418744E-03 Eh
 * total energy  :   -34.1110861 Eh     change       -0.2024810E-03 Eh
 * total energy  :   -34.1111244 Eh     change       -0.3830540E-04 Eh
 * total energy  :   -34.1111318 Eh     change       -0.7409186E-05 Eh
 * total energy  :   -34.1111349 Eh     change       -0.3042995E-05 Eh
   *** GEOMETRY OPTIMIZATION CONVERGED AFTER 10 ITERATIONS ***

 final structure:
================
16
 xtb: 6.5.1 (579679a)
C           -1.89907575970266       -1.15476837381171        0.04490231351053
C           -0.52967194153933       -0.58492759878912        0.03186536314055
O            0.56683758937623       -1.39042121136693        0.08301758417000
C            1.67599422588317       -0.45659971211611        0.03722696831400
C            2.92419055201947       -0.92221027909947        0.09039742217530
O            3.53939001096023       -1.98856511798901        0.15614740865871
Cl           4.14364839162486        0.70268355135015        0.00848470040885
N            1.16181410348271        0.85914497002773       -0.04115096013668
N           -0.15757477846682        0.66754366102540       -0.04056341946851
C           -1.01453620808370        1.82721579338082       -0.11501511599986
H           -2.63660619207286       -0.35918927548991        0.10888148988269
H           -2.08492920628211       -1.73417242250184       -0.86212034998339
H           -2.02209302079015       -1.82289825323116        0.89895365592914
H           -0.37922338690479        2.70825741446043       -0.17440187866224
H           -1.64199361840964        1.88312997841594        0.77320015790208
H           -1.64616976109463        1.76577687573481       -0.99982733984113

          :  Hamiltonian                  GFN1-xTB          :
         :: total energy             -34.111134882398 Eh    ::
         :: gradient norm              0.000645850537 Eh/a0 ::
         :: HOMO-LUMO gap              1.338167468341 eV    ::
         :: SCC energy               -34.385371846607 Eh    ::
         :: -> Gsolv                  -0.116274643684 Eh    ::
         :: repulsion energy           0.281503751012 Eh    ::

    * Orbital Energies and Occupations

         #    Occupation            Energy/Eh            Energy/eV
      -------------------------------------------------------------
         1        2.0000           -0.8279404             -22.5294
       ...           ...                  ...                  ...
        16        2.0000           -0.5268744             -14.3370
        17        2.0000           -0.5224644             -14.2170
        18        2.0000           -0.5157010             -14.0329
        19        2.0000           -0.5098386             -13.8734
        20        2.0000           -0.5028911             -13.6844
        21        2.0000           -0.4874489             -13.2642
        22        2.0000           -0.4696382             -12.7795
        23        2.0000           -0.4394132             -11.9570
        24        2.0000           -0.4385652             -11.9340
        25        2.0000           -0.4194014             -11.4125
        26        2.0000           -0.4110999             -11.1866
        27        2.0000           -0.3958959             -10.7729
        28        2.0000           -0.2868480              -7.8055 (HOMO)
        29                         -0.2376713              -6.4674 (LUMO)
        30                         -0.1946958              -5.2979
        31                         -0.1454659              -3.9583
        32                         -0.1308013              -3.5593
        33                         -0.1262909              -3.4366
        34                         -0.0800816              -2.1791
        35                         -0.0779728              -2.1217
        36                         -0.0632128              -1.7201
        37                         -0.0511611              -1.3922
        38                          0.0289714               0.7884
        39                          0.0360204               0.9802
       ...                                ...                  ...
        57                          0.8558438              23.2887
      -------------------------------------------------------------
                  HL-Gap            0.0491767 Eh            1.3382 eV

Wiberg/Mayer (AO) data.
largest (>0.10) Wiberg bond orders for each atom

     #   Z sym  total        # sym  WBO       # sym  WBO       # sym  WBO
 ---------------------------------------------------------------------------
     1   6 C    3.992 --     2 C    1.026    11 H    0.984    13 H    0.971
                            12 H    0.967
     2   6 C    3.876 --     9 N    1.416     3 O    1.041     1 C    1.026
                             8 N    0.295
     3   8 O    2.130 --     2 C    1.041     4 C    0.855
     4   6 C    3.770 --     5 C    1.610     8 N    1.073     3 O    0.855
                             6 O    0.170
     5   6 C    3.843 --     4 C    1.610     6 O    1.552     7 Cl   0.503
     6   8 O    1.898 --     5 C    1.552     4 C    0.170     7 Cl   0.116
     7  17 Cl   0.657 --     5 C    0.503     6 O    0.116
     8   7 N    2.740 --     9 N    1.159     4 C    1.073     2 C    0.295
     9   7 N    3.644 --     2 C    1.416     8 N    1.159    10 C    0.947
    10   6 C    3.948 --    14 H    0.984    16 H    0.981    15 H    0.980
                             9 N    0.947
    11   1 H    1.000 --     1 C    0.984
    12   1 H    1.002 --     1 C    0.967
    13   1 H    1.002 --     1 C    0.971
    14   1 H    1.012 --    10 C    0.984
    15   1 H    1.002 --    10 C    0.980
    16   1 H    1.002 --    10 C    0.981
 ---------------------------------------------------------------------------

           -------------------------------------------------
          | TOTAL ENERGY              -34.111134882398 Eh   |
          | GRADIENT NORM               0.000645850537 Eh/α |
          | HOMO-LUMO GAP               1.338167468341 eV   |
           -------------------------------------------------

 * finished run on 2023/06/20 at 14:53:00.037
