   * xtb version 6.5.1 (579679a) compiled by 'ehlert@majestix' on 2022-07-11
          program call               : /lustre/hpc/kemi/ree/PhD/git/ReactivityQM/dep/xtb-6.5.1/bin/xtb --gfn 1 /lustre/hpc/kemi/ree/PhD/git/ReactivityQM/calculations/R02oxygendeprot/reac01prodE04/conf01/R02oxygendeprot_reac01prodE04_conf01_gfn1.xyz --opt --vfukui --chrg -2 --uhf 0 --alpb DMSO

   ID    Z sym.   atoms
    1    6 C      1, 3, 5, 6, 8-11, 13, 15, 18, 19, 22, 24
    2    8 O      2, 4, 14, 20, 23, 25
    3    7 N      7, 12, 16, 17, 21
    4    1 H      26-42

      * Solvation model:               ALPB
        Solvent                        DMSO
        Solvent mass                       7.8130E+01 g/mol
          :  Hamiltonian                  GFN1-xTB          :
 * total energy  :   -83.5806026 Eh     change       -0.1489340E-08 Eh
 * total energy  :   -83.6014677 Eh     change       -0.2086513E-01 Eh
 * total energy  :   -83.6088832 Eh     change       -0.7415460E-02 Eh
 * total energy  :   -83.6106363 Eh     change       -0.1753063E-02 Eh
 * total energy  :   -83.6117153 Eh     change       -0.1079015E-02 Eh
 * total energy  :   -83.6122020 Eh     change       -0.4867214E-03 Eh
 * total energy  :   -83.6124147 Eh     change       -0.2127168E-03 Eh
 * total energy  :   -83.6125453 Eh     change       -0.1305839E-03 Eh
 * total energy  :   -83.6126194 Eh     change       -0.7406220E-04 Eh
 * total energy  :   -83.6126673 Eh     change       -0.4797395E-04 Eh
 * total energy  :   -83.6138128 Eh     change       -0.1004909E-04 Eh
 * total energy  :   -83.6138202 Eh     change       -0.7400712E-05 Eh
 * total energy  :   -83.6138307 Eh     change       -0.1047863E-04 Eh
 * total energy  :   -83.6138365 Eh     change       -0.5823775E-05 Eh
 * total energy  :   -83.6138433 Eh     change       -0.6777398E-05 Eh
 * total energy  :   -83.6138496 Eh     change       -0.6306434E-05 Eh
 * total energy  :   -83.6138561 Eh     change       -0.6480269E-05 Eh
 * total energy  :   -83.6138612 Eh     change       -0.5125185E-05 Eh
 * total energy  :   -83.6138657 Eh     change       -0.4560732E-05 Eh
   *** GEOMETRY OPTIMIZATION CONVERGED AFTER 53 ITERATIONS ***

 final structure:
================
42
 xtb: 6.5.1 (579679a)
C           -2.51061227728499        2.40645346945637       -1.88044309388361
O           -2.35730551582060        1.21610860383932       -1.11776253007653
C           -3.50568360601619        0.55697185032430       -0.82242580920003
O           -4.59160897665151        0.97608420750764       -1.19818425879239
C           -3.28987254129139       -0.77213414311276       -0.12123606938720
C           -4.53297474534347       -1.12651956655503        0.70094019853519
N           -2.12699286206438       -0.73923691200942        0.75186854030745
C           -0.97873405720367       -0.97698158099999        0.23112662405696
C            0.26190601713859       -0.92073866669070        1.11463849975285
C            0.53549226997227       -2.35237839749917        1.60314689245231
C            0.01645188218181        0.02015616840749        2.30267299714825
N            1.37166166340494       -0.44486491281915        0.28708362997494
C            2.63536638114710       -0.21271566205029        0.85167703227543
O            3.02446125235481       -0.75158067688482        1.90846664816687
C            3.41689790981226        0.65892929189717        0.03200807580920
N            3.01429150705001        1.25742539030391       -1.09368884014387
N            4.06972278773171        2.01016150974778       -1.53109220159121
C            5.03499501980515        1.84845811609163       -0.68668460357537
C            6.38267528257416        2.46799295820203       -0.73796758664247
O            4.71655465012443        1.01463995555675        0.33232018645873
N           -0.79443103857625       -1.33478187485544       -1.06700766929608
C           -1.84928994200424       -1.92159420676020       -1.84676293002551
O           -1.48876587712581       -2.60464448925544       -2.85003932093613
C           -3.15485340080985       -1.72118967818148       -1.34809275023080
O           -4.22002880184386       -2.23906810429200       -1.82883453422113
H           -2.95123931965467        2.18883853214061       -2.85870003438926
H           -3.15524124526048        3.11786546545230       -1.35524835755226
H           -1.51882109263341        2.83739201854842       -2.00926258432096
H           -5.41605246039520       -1.11327043367393        0.06225118936473
H           -4.66565462297288       -0.41007397278446        1.51089173895454
H           -4.41945892778494       -2.12253548605585        1.12743255307392
H            0.76925208002510       -2.99539209662126        0.75468851083394
H           -0.35159135684744       -2.73772220192353        2.10561662288822
H            1.36995251459963       -2.37184836067706        2.30132901588970
H            0.86695869079395        0.00585671450884        2.98228075546720
H           -0.13885955585893        1.03853375396062        1.94655948217867
H           -0.87539263782343       -0.30020533482580        2.84060361224555
H            1.10334835789550        0.28926789914792       -0.36239443881052
H            6.47916998178855        3.05339983271534       -1.64923499858554
H            6.53548730865698        3.11867056944420        0.12376132934328
H            7.15491894477741        1.69885678120727       -0.71924085960476
H            0.13390335943626       -1.61258632993238       -1.35022066390763

          :  Hamiltonian                  GFN1-xTB          :
         :: total energy             -83.613865745252 Eh    ::
         :: gradient norm              0.000485035209 Eh/a0 ::
         :: HOMO-LUMO gap              0.038144915310 eV    ::
         :: SCC energy               -84.339850349054 Eh    ::
         :: -> Gsolv                  -0.267752644701 Eh    ::
         :: repulsion energy           0.752917526439 Eh    ::

    * Orbital Energies and Occupations

         #    Occupation            Energy/Eh            Energy/eV
      -------------------------------------------------------------
         1        2.0000           -0.8031711             -21.8554
       ...           ...                  ...                  ...
        56        2.0000           -0.4492565             -12.2249
        57        2.0000           -0.4450630             -12.1108
        58        2.0000           -0.4312803             -11.7357
        59        2.0000           -0.4264217             -11.6035
        60        2.0000           -0.4105941             -11.1728
        61        2.0000           -0.4075552             -11.0901
        62        2.0000           -0.4056502             -11.0383
        63        2.0000           -0.3994432             -10.8694
        64        2.0000           -0.3906856             -10.6311
        65        2.0000           -0.3806880             -10.3590
        66        2.0000           -0.3761365             -10.2352
        67        2.0000           -0.3463548              -9.4248
        68        1.3530           -0.2703512              -7.3566 (HOMO)
        69        0.6470           -0.2689494              -7.3185 (LUMO)
        70                         -0.2236905              -6.0869
        71                         -0.2116311              -5.7588
        72                         -0.2032799              -5.5315
        73                         -0.1425367              -3.8786
        74                         -0.1248744              -3.3980
        75                         -0.1227182              -3.3393
        76                         -0.1164987              -3.1701
        77                         -0.0978561              -2.6628
        78                         -0.0944729              -2.5707
        79                         -0.0882420              -2.4012
       ...                                ...                  ...
       134                          0.7127753              19.3956
      -------------------------------------------------------------
                  HL-Gap            0.0014018 Eh            0.0381 eV

Wiberg/Mayer (AO) data.
largest (>0.10) Wiberg bond orders for each atom

     #   Z sym  total        # sym  WBO       # sym  WBO       # sym  WBO
 ---------------------------------------------------------------------------
     1   6 C    3.897 --    28 H    0.987    27 H    0.981    26 H    0.981
                             2 O    0.921
     2   8 O    2.150 --     3 C    1.052     1 C    0.921     4 O    0.109
     3   6 C    3.780 --     4 O    1.599     2 O    1.052     5 C    0.947
     4   8 O    1.864 --     3 C    1.599     2 O    0.109
     5   6 C    3.959 --     6 C    0.990     7 N    0.979     3 C    0.947
                            24 C    0.876
     6   6 C    3.990 --     5 C    0.990    30 H    0.989    31 H    0.988
                            29 H    0.984
     7   7 N    2.940 --     8 C    1.653     5 C    0.979    21 N    0.147
     8   6 C    3.932 --     7 N    1.653    21 N    1.176     9 C    0.970
     9   6 C    3.950 --    11 C    0.990    10 C    0.983     8 C    0.970
                            12 N    0.944
    10   6 C    3.993 --    33 H    0.988    32 H    0.986     9 C    0.983
                            34 H    0.979
    11   6 C    3.992 --     9 C    0.990    36 H    0.987    35 H    0.984
                            37 H    0.984
    12   7 N    3.147 --    13 C    1.078     9 C    0.944    38 H    0.919
                            14 O    0.108
    13   6 C    3.749 --    14 O    1.454    15 C    1.150    12 N    1.078
    14   8 O    1.696 --    13 C    1.454    12 N    0.108
    15   6 C    3.697 --    16 N    1.397    13 C    1.150    20 O    0.979
    16   7 N    2.746 --    15 C    1.397    17 N    1.185
    17   7 N    2.980 --    18 C    1.628    16 N    1.185
    18   6 C    3.821 --    17 N    1.628    20 O    1.050    19 C    1.024
    19   6 C    3.994 --    18 C    1.024    39 H    0.986    41 H    0.972
                            40 H    0.970
    20   8 O    2.187 --    18 C    1.050    15 C    0.979
    21   7 N    3.320 --     8 C    1.176    22 C    0.955    42 H    0.911
                             7 N    0.147
    22   6 C    3.741 --    23 O    1.387    24 C    1.248    21 N    0.955
    23   8 O    1.597 --    22 C    1.387
    24   6 C    3.730 --    25 O    1.372    22 C    1.248     5 C    0.876
    25   8 O    1.573 --    24 C    1.372
    26   1 H    1.013 --     1 C    0.981
    27   1 H    1.014 --     1 C    0.981
    28   1 H    1.016 --     1 C    0.987
    29   1 H    1.026 --     6 C    0.984
    30   1 H    1.011 --     6 C    0.989
    31   1 H    1.012 --     6 C    0.988
    32   1 H    1.009 --    10 C    0.986
    33   1 H    1.008 --    10 C    0.988
    34   1 H    1.023 --    10 C    0.979
    35   1 H    1.014 --    11 C    0.984
    36   1 H    1.009 --    11 C    0.987
    37   1 H    1.022 --    11 C    0.984
    38   1 H    0.980 --    12 N    0.919
    39   1 H    1.004 --    19 C    0.986
    40   1 H    1.001 --    19 C    0.970
    41   1 H    1.001 --    19 C    0.972
    42   1 H    0.971 --    21 N    0.911
 ---------------------------------------------------------------------------

           -------------------------------------------------
          | TOTAL ENERGY              -83.613865745252 Eh   |
          | GRADIENT NORM               0.000485035209 Eh/α |
          | HOMO-LUMO GAP               0.038144915310 eV   |
           -------------------------------------------------

 * finished run on 2023/06/21 at 17:04:52.059
