   * xtb version 6.5.1 (579679a) compiled by 'ehlert@majestix' on 2022-07-11
          program call               : /lustre/hpc/kemi/ree/PhD/git/ReactivityQM/dep/xtb-6.5.1/bin/xtb --gfn 1 /lustre/hpc/kemi/ree/PhD/git/ReactivityQM/calculations/R02deprot/reac01prodN16/conf07/R02deprot_reac01prodN16_conf07_gfn1.xyz --opt --vfukui --chrg 0 --uhf 0 --alpb DMSO

   ID    Z sym.   atoms
    1    6 C      1, 3, 5, 7-10, 12, 14, 17, 18, 21, 23, 24
    2    8 O      2, 4, 13, 19, 22, 25
    3    7 N      6, 11, 15, 16, 20
    4    1 H      26-42

      * Solvation model:               ALPB
        Solvent                        DMSO
        Solvent mass                       7.8130E+01 g/mol
          :  Hamiltonian                  GFN1-xTB          :
 * total energy  :   -82.9464642 Eh     change       -0.1679723E-10 Eh
 * total energy  :   -82.9592273 Eh     change       -0.1276318E-01 Eh
 * total energy  :   -82.9645739 Eh     change       -0.5346502E-02 Eh
 * total energy  :   -82.9658303 Eh     change       -0.1256425E-02 Eh
 * total energy  :   -82.9666570 Eh     change       -0.8267289E-03 Eh
 * total energy  :   -82.9671436 Eh     change       -0.4865721E-03 Eh
 * total energy  :   -82.9675385 Eh     change       -0.3949711E-03 Eh
 * total energy  :   -82.9678260 Eh     change       -0.2874804E-03 Eh
 * total energy  :   -82.9680507 Eh     change       -0.2246365E-03 Eh
 * total energy  :   -82.9682589 Eh     change       -0.2082717E-03 Eh
 * total energy  :   -82.9701769 Eh     change       -0.2720473E-04 Eh
 * total energy  :   -82.9701881 Eh     change       -0.1124408E-04 Eh
 * total energy  :   -82.9701978 Eh     change       -0.9693142E-05 Eh
 * total energy  :   -82.9702043 Eh     change       -0.6441263E-05 Eh
 * total energy  :   -82.9702095 Eh     change       -0.5237906E-05 Eh
 * total energy  :   -82.9702094 Eh     change        0.7251748E-07 Eh
 * total energy  :   -82.9702137 Eh     change       -0.4222695E-05 Eh
 * total energy  :   -82.9702190 Eh     change       -0.5360316E-05 Eh
 * total energy  :   -82.9702224 Eh     change       -0.3413401E-05 Eh
   *** GEOMETRY OPTIMIZATION CONVERGED AFTER 49 ITERATIONS ***

 final structure:
================
42
 xtb: 6.5.1 (579679a)
C            3.48916338448648        2.70147624530880       -2.43569677010678
O            3.21301273825689        1.55018932435028       -1.62489971853371
C            2.46709979778942        1.73909986744005       -0.55281214494834
O            2.00270169653376        2.79536988037744       -0.20966362225888
C            2.23473656674009        0.44851591459453        0.20617014545884
N            1.06034496605747        0.23598167533591        0.65935541099843
C            0.82902704821687       -0.97513636231275        1.33132974026199
C           -0.60622771421402       -1.40582958772346        1.49827345835745
C           -0.94080301597864       -1.42439258453912        2.99928023946887
C           -0.76917400374430       -2.80605837351522        0.88636553202973
N           -1.45931818955231       -0.45120495899385        0.80437104360458
C           -2.80121896690049       -0.54973171578524        0.73891159762215
O           -3.47526196173421       -1.42195987217424        1.25810874203072
C           -3.36700966549034        0.56598114809571       -0.06361929994572
N           -2.68952364630273        1.52854340609814       -0.61334594465311
N           -3.58901665043499        2.32688337304370       -1.25291226171957
C           -4.75875512839112        1.79983272902252       -1.05297356038976
C           -6.06490376587539        2.29088625925095       -1.54400631076431
O           -4.68417580864978        0.68699955174201       -0.30799245384947
N            1.75293617313615       -1.69619385441991        1.84494022939594
C            3.08849861554301       -1.32878936700722        1.65873099455097
O            3.97107857493218       -1.61740754294788        2.42338058139945
C            3.34740848672798       -0.56558054689659        0.36191821808673
C            3.25345056269577       -1.54705059121834       -0.83219006027883
O            4.60166249464748        0.04763229223061        0.40161630301994
H            4.15909017665275        2.36886892726341       -3.22469832294138
H            2.55941254129753        3.08541764254197       -2.85992349519746
H            3.96271841780603        3.47631471751455       -1.82975600001594
H           -0.86368161937187       -0.41944959578961        3.41078188490351
H           -0.23925410310566       -2.07859127920349        3.51357148484908
H           -1.95338530517335       -1.79535827679878        3.14489104364014
H           -0.58163354314853       -2.76539578890856       -0.18507672516544
H           -1.77918975513521       -3.17168221305194        1.05958591244758
H           -0.05483588671976       -3.48465432726808        1.34915471197155
H           -0.99987148142079        0.31752183708640        0.33035781718259
H           -6.71380029488079        2.53169986110866       -0.70197174839665
H           -5.91493677817844        3.17856702924769       -2.15343415448077
H           -6.55425138528700        1.51813191050355       -2.13622590684717
H            4.02738449588593       -2.30293155637139       -0.72025346636061
H            3.42126409704951       -0.99515989679229       -1.75415561562451
H            2.27548799986911       -2.02157481347848       -0.85830438943868
H            5.14374883536486       -0.36978148695874        1.09070188064010

          :  Hamiltonian                  GFN1-xTB          :
         :: total energy             -82.970222427272 Eh    ::
         :: gradient norm              0.000745046670 Eh/a0 ::
         :: HOMO-LUMO gap              1.774759437019 eV    ::
         :: SCC energy               -83.746218491493 Eh    ::
         :: -> Gsolv                  -0.048729548146 Eh    ::
         :: repulsion energy           0.802182394622 Eh    ::

    * Orbital Energies and Occupations

         #    Occupation            Energy/Eh            Energy/eV
      -------------------------------------------------------------
         1        2.0000           -0.8650327             -23.5387
       ...           ...                  ...                  ...
        55        2.0000           -0.5078240             -13.8186
        56        2.0000           -0.5070636             -13.7979
        57        2.0000           -0.5044023             -13.7255
        58        2.0000           -0.5036066             -13.7038
        59        2.0000           -0.4989497             -13.5771
        60        2.0000           -0.4892123             -13.3121
        61        2.0000           -0.4840128             -13.1707
        62        2.0000           -0.4675431             -12.7225
        63        2.0000           -0.4640135             -12.6264
        64        2.0000           -0.4621213             -12.5750
        65        2.0000           -0.4538128             -12.3489
        66        2.0000           -0.4488390             -12.2135
        67        2.0000           -0.4382505             -11.9254 (HOMO)
        68                         -0.3730293             -10.1506 (LUMO)
        69                         -0.3117054              -8.4819
        70                         -0.3101233              -8.4389
        71                         -0.2581042              -7.0234
        72                         -0.2565276              -6.9805
        73                         -0.2432819              -6.6200
        74                         -0.1996466              -5.4327
        75                         -0.1457029              -3.9648
        76                         -0.1432282              -3.8974
        77                         -0.1365485              -3.7157
        78                         -0.1261597              -3.4330
       ...                                ...                  ...
       134                          0.7245606              19.7163
      -------------------------------------------------------------
                  HL-Gap            0.0652212 Eh            1.7748 eV

Wiberg/Mayer (AO) data.
largest (>0.10) Wiberg bond orders for each atom

     #   Z sym  total        # sym  WBO       # sym  WBO       # sym  WBO
 ---------------------------------------------------------------------------
     1   6 C    3.856 --    26 H    0.985    28 H    0.979    27 H    0.979
                             2 O    0.881
     2   8 O    2.234 --     3 C    1.149     1 C    0.881     4 O    0.148
     3   6 C    3.852 --     4 O    1.690     2 O    1.149     5 C    0.939
     4   8 O    1.953 --     3 C    1.690     2 O    0.148
     5   6 C    3.931 --     6 N    1.764    23 C    0.962     3 C    0.939
     6   7 N    3.069 --     5 C    1.764     7 C    1.060
     7   6 C    3.922 --    20 N    1.693     6 N    1.060     8 C    0.996
     8   6 C    3.939 --     7 C    0.996    10 C    0.969     9 C    0.964
                            11 N    0.938
     9   6 C    3.986 --    29 H    0.986    30 H    0.985    31 H    0.979
                             8 C    0.964
    10   6 C    3.987 --    32 H    0.985    34 H    0.984    33 H    0.979
                             8 C    0.969
    11   7 N    3.349 --    12 C    1.256     8 C    0.938    35 H    0.878
                            13 O    0.178
    12   6 C    3.918 --    13 O    1.591    11 N    1.256    14 C    0.988
    13   8 O    1.909 --    12 C    1.591    11 N    0.178
    14   6 C    3.875 --    15 N    1.611    19 O    1.065    12 C    0.988
    15   7 N    3.016 --    14 C    1.611    16 N    1.200
    16   7 N    2.981 --    17 C    1.605    15 N    1.200
    17   6 C    3.871 --    16 N    1.605    19 O    1.082    18 C    1.031
    18   6 C    3.986 --    17 C    1.031    37 H    0.983    38 H    0.964
                            36 H    0.962
    19   8 O    2.330 --    17 C    1.082    14 C    1.065
    20   7 N    3.076 --     7 C    1.693    21 C    1.070
    21   6 C    3.867 --    22 O    1.741    20 N    1.070    23 C    0.933
    22   8 O    1.998 --    21 C    1.741
    23   6 C    3.932 --    25 O    0.983     5 C    0.962    21 C    0.933
                            24 C    0.919
    24   6 C    3.983 --    41 H    0.986    40 H    0.980    39 H    0.978
                            23 C    0.919
    25   8 O    1.901 --    23 C    0.983    42 H    0.826
    26   1 H    1.008 --     1 C    0.985
    27   1 H    1.004 --     1 C    0.979
    28   1 H    1.004 --     1 C    0.979
    29   1 H    1.001 --     9 C    0.986
    30   1 H    1.006 --     9 C    0.985
    31   1 H    1.008 --     9 C    0.979
    32   1 H    1.001 --    10 C    0.985
    33   1 H    1.008 --    10 C    0.979
    34   1 H    1.005 --    10 C    0.984
    35   1 H    0.967 --    11 N    0.878
    36   1 H    0.997 --    18 C    0.962
    37   1 H    0.998 --    18 C    0.983
    38   1 H    0.997 --    18 C    0.964
    39   1 H    0.999 --    24 C    0.978
    40   1 H    1.007 --    24 C    0.980
    41   1 H    1.000 --    24 C    0.986
    42   1 H    0.858 --    25 O    0.826
 ---------------------------------------------------------------------------

           -------------------------------------------------
          | TOTAL ENERGY              -82.970222427272 Eh   |
          | GRADIENT NORM               0.000745046670 Eh/α |
          | HOMO-LUMO GAP               1.774759437019 eV   |
           -------------------------------------------------

 * finished run on 2023/06/20 at 18:27:00.747
