   * xtb version 6.5.1 (579679a) compiled by 'ehlert@majestix' on 2022-07-11
          program call               : /lustre/hpc/kemi/ree/PhD/git/ReactivityQM/dep/xtb-6.5.1/bin/xtb --gfn 1 /lustre/hpc/kemi/ree/PhD/git/ReactivityQM/calculations/R02/reac01prodN04/conf08/R02_reac01prodN04_conf08_gfn1.xyz --opt --vfukui --chrg 1 --uhf 0 --alpb DMSO

   ID    Z sym.   atoms
    1    6 C      1, 3, 5, 7-10, 12, 14, 17, 18, 21, 23, 25
    2    8 O      2, 4, 13, 19, 22, 24
    3    7 N      6, 11, 15, 16, 20
    4    1 H      26-43

      * Solvation model:               ALPB
        Solvent                        DMSO
        Solvent mass                       7.8130E+01 g/mol
          :  Hamiltonian                  GFN1-xTB          :
 * total energy  :   -83.1059276 Eh     change       -0.1047340E-10 Eh
 * total energy  :   -83.1227076 Eh     change       -0.1677994E-01 Eh
 * total energy  :   -83.1292705 Eh     change       -0.6562909E-02 Eh
 * total energy  :   -83.1308849 Eh     change       -0.1614439E-02 Eh
 * total energy  :   -83.1322949 Eh     change       -0.1409963E-02 Eh
 * total energy  :   -83.1333082 Eh     change       -0.1013360E-02 Eh
 * total energy  :   -83.1342151 Eh     change       -0.9068659E-03 Eh
 * total energy  :   -83.1347069 Eh     change       -0.4917950E-03 Eh
 * total energy  :   -83.1349645 Eh     change       -0.2575679E-03 Eh
 * total energy  :   -83.1350816 Eh     change       -0.1171608E-03 Eh
 * total energy  :   -83.1366630 Eh     change       -0.1917405E-04 Eh
 * total energy  :   -83.1366804 Eh     change       -0.1744577E-04 Eh
 * total energy  :   -83.1366895 Eh     change       -0.9064550E-05 Eh
 * total energy  :   -83.1367007 Eh     change       -0.1119621E-04 Eh
 * total energy  :   -83.1367091 Eh     change       -0.8450996E-05 Eh
 * total energy  :   -83.1367152 Eh     change       -0.6067774E-05 Eh
 * total energy  :   -83.1367215 Eh     change       -0.6298838E-05 Eh
 * total energy  :   -83.1367274 Eh     change       -0.5945821E-05 Eh
 * total energy  :   -83.1367317 Eh     change       -0.4270782E-05 Eh
   *** GEOMETRY OPTIMIZATION CONVERGED AFTER 39 ITERATIONS ***

 final structure:
================
43
 xtb: 6.5.1 (579679a)
C           -5.47593961068889       -2.58479345103518       -0.36254429669743
O           -4.46308639735206       -1.55889810984046       -0.49597727814504
C           -3.33780080246014       -1.74091110669349        0.20967761730823
O           -3.13441600802909       -2.68794216545849        0.91195008408098
C           -2.36500090199898       -0.60487642549789        0.01644049620036
N           -1.19382896638116       -0.76411796711689        0.67431919475449
C           -0.27606161127735        0.15892959401077        0.57477227774239
C            1.01542836517629       -0.00508675137749        1.35756909186688
C            1.06065973923149        1.04614368765926        2.47734277114805
C            1.08622320048780       -1.41355491877985        1.94916246143580
N            2.17301587981696        0.14320441582374        0.46861695257574
C            2.60492111882275        1.29034521714440       -0.09046803375236
O            2.00986674256250        2.36219599144971       -0.05532833238462
C            3.88853165452224        1.13218837615259       -0.80277981852331
N            4.55513560879948        2.03061668132630       -1.45879068108736
N            5.66859310565582        1.41874868142532       -1.94243943967672
C            5.61690695538103        0.18146910215646       -1.55336474879682
C            6.59066808957751       -0.89831825765708       -1.82073562985522
O            4.51450002436735       -0.06485218526095       -0.82740165400492
N           -0.45769065271341        1.27458912028427       -0.15340636864403
C           -1.59824986458415        1.56048962782053       -0.88524809633828
O           -1.70970088947065        2.57723483598230       -1.53862501339918
C           -2.58733617543011        0.50930281552807       -0.74210974025861
O           -3.78405841851576        0.67098167174529       -1.49486329239418
C           -4.61000445196326        1.85794838562813       -1.23617371610750
H           -6.34443050067093       -2.22559968108571       -0.90717466412191
H           -5.10256912371705       -3.51553065938423       -0.79182220836913
H           -5.70764064395598       -2.72314851085909        0.69433405942084
H            0.98752859393396        2.05296660173451        2.07215652949832
H            1.99817027281699        0.94741984579483        3.02187243081503
H            0.23015486490580        0.87867680992909        3.16100324051315
H            0.24253384582225       -1.57344118965155        2.61809534821467
H            2.01227455640738       -1.52976042627864        2.50885780404606
H            1.04921574352172       -2.15841238429340        1.15591565218379
H            2.75204354788553       -0.67551928467312        0.36239634194440
H            7.37932939983171       -0.53054037254130       -2.47305908100259
H            6.08617178509882       -1.74213244615438       -2.29066912075522
H            7.02326130275569       -1.24670421967652       -0.88277745928094
H            0.31342892447490        1.96106398261291       -0.19158391200173
H           -4.32913423786294       -0.16870924275796       -1.37539165657807
H           -4.92240901242688        1.85746567131267       -0.19362611671106
H           -5.45835752055514        1.77413845019845       -1.90962661156677
H           -4.00084653176524        2.72673019040662       -1.47517638325505

          :  Hamiltonian                  GFN1-xTB          :
         :: total energy             -83.136731699018 Eh    ::
         :: gradient norm              0.000757489321 Eh/a0 ::
         :: HOMO-LUMO gap              2.435364055406 eV    ::
         :: SCC energy               -83.929792689253 Eh    ::
         :: -> Gsolv                  -0.117300485316 Eh    ::
         :: repulsion energy           0.819291343013 Eh    ::

    * Orbital Energies and Occupations

         #    Occupation            Energy/Eh            Energy/eV
      -------------------------------------------------------------
         1        2.0000           -0.9291195             -25.2826
       ...           ...                  ...                  ...
        55        2.0000           -0.5258287             -14.3085
        56        2.0000           -0.5234788             -14.2446
        57        2.0000           -0.5203930             -14.1606
        58        2.0000           -0.5150249             -14.0145
        59        2.0000           -0.5131411             -13.9633
        60        2.0000           -0.4972371             -13.5305
        61        2.0000           -0.4885973             -13.2954
        62        2.0000           -0.4845907             -13.1864
        63        2.0000           -0.4795319             -13.0487
        64        2.0000           -0.4781725             -13.0117
        65        2.0000           -0.4729961             -12.8709
        66        2.0000           -0.4605985             -12.5335
        67        2.0000           -0.4596950             -12.5089 (HOMO)
        68                         -0.3701970             -10.0736 (LUMO)
        69                         -0.3251360              -8.8474
        70                         -0.3193597              -8.6902
        71                         -0.2762027              -7.5159
        72                         -0.2636077              -7.1731
        73                         -0.2118022              -5.7634
        74                         -0.2066273              -5.6226
        75                         -0.1710886              -4.6556
        76                         -0.1693730              -4.6089
        77                         -0.1532076              -4.1690
        78                         -0.1450812              -3.9479
       ...                                ...                  ...
       136                          0.7318711              19.9152
      -------------------------------------------------------------
                  HL-Gap            0.0894980 Eh            2.4354 eV

Wiberg/Mayer (AO) data.
largest (>0.10) Wiberg bond orders for each atom

     #   Z sym  total        # sym  WBO       # sym  WBO       # sym  WBO
 ---------------------------------------------------------------------------
     1   6 C    3.827 --    26 H    0.985    28 H    0.978    27 H    0.978
                             2 O    0.851
     2   8 O    2.232 --     3 C    1.087     1 C    0.851     4 O    0.138
     3   6 C    3.849 --     4 O    1.730     2 O    1.087     5 C    0.962
     4   8 O    1.989 --     3 C    1.730     2 O    0.138
     5   6 C    3.972 --    23 C    1.536     6 N    1.251     3 C    0.962
     6   7 N    3.028 --     7 C    1.492     5 C    1.251
     7   6 C    3.917 --     6 N    1.492    20 N    1.270     8 C    0.973
     8   6 C    3.932 --    10 C    1.000     7 C    0.973     9 C    0.972
                            11 N    0.923
     9   6 C    3.984 --    31 H    0.984    30 H    0.981    29 H    0.979
                             8 C    0.972
    10   6 C    3.987 --     8 C    1.000    33 H    0.983    34 H    0.983
                            32 H    0.981
    11   7 N    3.350 --    12 C    1.269     8 C    0.923    35 H    0.886
                            13 O    0.169
    12   6 C    3.912 --    13 O    1.544    11 N    1.269    14 C    1.007
    13   8 O    1.927 --    12 C    1.544    11 N    0.169
    14   6 C    3.877 --    15 N    1.614    19 O    1.046    12 C    1.007
    15   7 N    3.004 --    14 C    1.614    16 N    1.207
    16   7 N    2.983 --    17 C    1.601    15 N    1.207
    17   6 C    3.865 --    16 N    1.601    19 O    1.074    18 C    1.033
    18   6 C    3.985 --    17 C    1.033    36 H    0.982    37 H    0.963
                            38 H    0.960
    19   8 O    2.318 --    17 C    1.074    14 C    1.046
    20   7 N    3.500 --     7 C    1.270    21 C    1.104    39 H    0.806
                            22 O    0.126
    21   6 C    3.919 --    22 O    1.606    20 N    1.104    23 C    1.103
    22   8 O    1.929 --    21 C    1.606    20 N    0.126
    23   6 C    3.826 --     5 C    1.536    21 C    1.103    24 O    0.868
    24   8 O    2.438 --    23 C    0.868    25 C    0.792    40 H    0.685
    25   6 C    3.765 --    41 H    0.983    42 H    0.977    43 H    0.973
                            24 O    0.792
    26   1 H    1.004 --     1 C    0.985
    27   1 H    1.000 --     1 C    0.978
    28   1 H    1.001 --     1 C    0.978
    29   1 H    1.005 --     9 C    0.979
    30   1 H    0.997 --     9 C    0.981
    31   1 H    0.998 --     9 C    0.984
    32   1 H    1.005 --    10 C    0.981
    33   1 H    0.996 --    10 C    0.983
    34   1 H    1.000 --    10 C    0.983
    35   1 H    0.930 --    11 N    0.886
    36   1 H    0.997 --    18 C    0.982
    37   1 H    0.996 --    18 C    0.963
    38   1 H    0.996 --    18 C    0.960
    39   1 H    0.911 --    20 N    0.806
    40   1 H    0.800 --    24 O    0.685
    41   1 H    0.993 --    25 C    0.983
    42   1 H    0.992 --    25 C    0.977
    43   1 H    1.006 --    25 C    0.973
 ---------------------------------------------------------------------------

           -------------------------------------------------
          | TOTAL ENERGY              -83.136731699018 Eh   |
          | GRADIENT NORM               0.000757489321 Eh/α |
          | HOMO-LUMO GAP               2.435364055406 eV   |
           -------------------------------------------------

 * finished run on 2023/06/20 at 15:22:33.197
