                         Program Version 5.0.1 -  RELEASE  -
|  1> # ORCA input file
|  2> ! SP r2SCAN-3c CPCM
|  3>
|  4> %maxcore 1875.0
|  5> %pal nprocs 4 end
|  6> %cpcm smd true SMDsolvent "DMSO" end
|  7>
|  8> *xyz -2 1
|  9> C      -3.904025    1.243723   -1.552262
| 10> O      -3.506011    2.072792   -0.471932
| 11> C      -3.446424    1.474589    0.795400
| 12> O      -4.368655    2.000907    1.682702
| 13> C      -5.602902    1.303633    1.811590
| 14> C      -2.488826    0.529369    1.115664
| 15> N      -1.587149    0.227810    0.089963
| 16> C      -0.603135   -0.572097    0.326114
| 17> C       0.347121   -0.980806   -0.786494
| 18> C       0.266694    0.006898   -1.957808
| 19> C      -0.056247   -2.384023   -1.263573
| 20> N       1.707749   -1.081726   -0.254373
| 21> C       2.397185    0.091756    0.109483
| 22> O       1.810944    1.145302    0.427106
| 23> C       3.809605   -0.114709    0.121481
| 24> N       4.450440   -1.241860   -0.215578
| 25> N       5.787063   -0.978860   -0.089779
| 26> C       5.905164    0.248158    0.301409
| 27> C       7.167789    0.983034    0.565011
| 28> O       4.714007    0.872817    0.464525
| 29> N      -0.399544   -1.150306    1.538435
| 30> C      -1.272316   -1.007335    2.626991
| 31> O      -0.996121   -1.646146    3.676456
| 32> C      -2.402097   -0.128466    2.415463
| 33> O      -3.285132    0.037991    3.326667
| 34> H      -4.876596    0.771889   -1.364022
| 35> H      -3.160326    0.458819   -1.745161
| 36> H      -3.984744    1.881624   -2.434871
| 37> H      -6.217952    1.866365    2.516685
| 38> H      -5.443994    0.290514    2.200387
| 39> H      -6.129013    1.241664    0.851490
| 40> H      -0.741892   -0.005998   -2.369646
| 41> H       0.492030    1.018831   -1.621347
| 42> H       0.971196   -0.277525   -2.737641
| 43> H       0.015658   -3.096267   -0.442291
| 44> H      -1.082676   -2.369871   -1.627733
| 45> H       0.596129   -2.712779   -2.071009
| 46> H       2.288325   -1.739130   -0.757569
| 47> H       7.227799    1.280412    1.612705
| 48> H       8.014454    0.343789    0.326488
| 49> H       7.215620    1.885707   -0.044553
| 50> H       0.370807   -1.790489    1.651249
| 51> **                         ****END OF INPUT****

CARTESIAN COORDINATES (ANGSTROEM)
---------------------------------
  C     -3.904025    1.243723   -1.552262
  O     -3.506011    2.072792   -0.471932
  C     -3.446424    1.474589    0.795400
  O     -4.368655    2.000907    1.682702
  C     -5.602902    1.303633    1.811590
  C     -2.488826    0.529369    1.115664
  N     -1.587149    0.227810    0.089963
  C     -0.603135   -0.572097    0.326114
  C      0.347121   -0.980806   -0.786494
  C      0.266694    0.006898   -1.957808
  C     -0.056247   -2.384023   -1.263573
  N      1.707749   -1.081726   -0.254373
  C      2.397185    0.091756    0.109483
  O      1.810944    1.145302    0.427106
  C      3.809605   -0.114709    0.121481
  N      4.450440   -1.241860   -0.215578
  N      5.787063   -0.978860   -0.089779
  C      5.905164    0.248158    0.301409
  C      7.167789    0.983034    0.565011
  O      4.714007    0.872817    0.464525
  N     -0.399544   -1.150306    1.538435
  C     -1.272316   -1.007335    2.626991
  O     -0.996121   -1.646146    3.676456
  C     -2.402097   -0.128466    2.415463
  O     -3.285132    0.037991    3.326667
  H     -4.876596    0.771889   -1.364022
  H     -3.160326    0.458819   -1.745161
  H     -3.984744    1.881624   -2.434871
  H     -6.217952    1.866365    2.516685
  H     -5.443994    0.290514    2.200387
  H     -6.129013    1.241664    0.851490
  H     -0.741892   -0.005998   -2.369646
  H      0.492030    1.018831   -1.621347
  H      0.971196   -0.277525   -2.737641
  H      0.015658   -3.096267   -0.442291
  H     -1.082676   -2.369871   -1.627733
  H      0.596129   -2.712779   -2.071009
  H      2.288325   -1.739130   -0.757569
  H      7.227799    1.280412    1.612705
  H      8.014454    0.343789    0.326488
  H      7.215620    1.885707   -0.044553
  H      0.370807   -1.790489    1.651249

 Total Charge           Charge          ....   -2
 Multiplicity           Mult            ....    1
 Number of Electrons    NEL             ....  186
 Basis Dimension        Dim             ....  615

ORBITAL ENERGIES
----------------

  NO   OCC          E(Eh)            E(eV)
   0   2.0000     -19.014776      -517.4184
   1   2.0000     -18.940068      -515.3855
   2   2.0000     -18.937071      -515.3039
   3   2.0000     -18.890292      -514.0310
   4   2.0000     -18.859347      -513.1889
   5   2.0000     -18.840417      -512.6738
   6   2.0000     -14.167754      -385.5242
   7   2.0000     -14.163046      -385.3961
   8   2.0000     -14.156364      -385.2142
   9   2.0000     -14.153903      -385.1473
  10   2.0000     -14.108035      -383.8992
  11   2.0000     -10.107252      -275.0323
  12   2.0000     -10.098187      -274.7856
  13   2.0000     -10.088837      -274.5312
  14   2.0000     -10.073284      -274.1080
  15   2.0000     -10.069128      -273.9949
  16   2.0000     -10.068007      -273.9644
  17   2.0000     -10.064026      -273.8561
  18   2.0000     -10.048268      -273.4273
  19   2.0000     -10.045780      -273.3596
  20   2.0000     -10.030722      -272.9498
  21   2.0000     -10.027693      -272.8674
  22   2.0000     -10.022232      -272.7188
  23   2.0000     -10.011918      -272.4381
  24   2.0000     -10.000268      -272.1211
  25   2.0000      -1.094616       -29.7860
  26   2.0000      -1.001484       -27.2518
  27   2.0000      -0.964706       -26.2510
  28   2.0000      -0.950408       -25.8619
  29   2.0000      -0.946964       -25.7682
  30   2.0000      -0.929441       -25.2914
  31   2.0000      -0.897881       -24.4326
  32   2.0000      -0.885833       -24.1047
  33   2.0000      -0.861763       -23.4498
  34   2.0000      -0.814160       -22.1544
  35   2.0000      -0.789467       -21.4825
  36   2.0000      -0.737466       -20.0675
  37   2.0000      -0.691903       -18.8276
  38   2.0000      -0.683269       -18.5927
  39   2.0000      -0.652801       -17.7636
  40   2.0000      -0.643798       -17.5186
  41   2.0000      -0.625770       -17.0281
  42   2.0000      -0.622832       -16.9481
  43   2.0000      -0.601691       -16.3728
  44   2.0000      -0.580606       -15.7991
  45   2.0000      -0.561906       -15.2902
  46   2.0000      -0.532392       -14.4871
  47   2.0000      -0.511971       -13.9314
  48   2.0000      -0.505149       -13.7458
  49   2.0000      -0.480995       -13.0885
  50   2.0000      -0.469162       -12.7665
  51   2.0000      -0.455944       -12.4069
  52   2.0000      -0.448182       -12.1956
  53   2.0000      -0.444892       -12.1061
  54   2.0000      -0.425735       -11.5849
  55   2.0000      -0.419772       -11.4226
  56   2.0000      -0.411313       -11.1924
  57   2.0000      -0.407712       -11.0944
  58   2.0000      -0.395934       -10.7739
  59   2.0000      -0.385391       -10.4870
  60   2.0000      -0.380667       -10.3585
  61   2.0000      -0.376112       -10.2345
  62   2.0000      -0.375064       -10.2060
  63   2.0000      -0.372784       -10.1440
  64   2.0000      -0.371806       -10.1174
  65   2.0000      -0.366908        -9.9841
  66   2.0000      -0.362634        -9.8678
  67   2.0000      -0.353327        -9.6145
  68   2.0000      -0.344600        -9.3770
  69   2.0000      -0.337133        -9.1739
  70   2.0000      -0.333799        -9.0831
  71   2.0000      -0.323495        -8.8027
  72   2.0000      -0.314573        -8.5600
  73   2.0000      -0.310992        -8.4625
  74   2.0000      -0.308555        -8.3962
  75   2.0000      -0.304443        -8.2843
  76   2.0000      -0.302558        -8.2330
  77   2.0000      -0.287033        -7.8106
  78   2.0000      -0.284368        -7.7380
  79   2.0000      -0.276750        -7.5308
  80   2.0000      -0.274033        -7.4568
  81   2.0000      -0.236717        -6.4414
  82   2.0000      -0.229572        -6.2470
  83   2.0000      -0.226885        -6.1739
  84   2.0000      -0.218996        -5.9592
  85   2.0000      -0.216907        -5.9023
  86   2.0000      -0.209481        -5.7003
  87   2.0000      -0.202159        -5.5010
  88   2.0000      -0.199206        -5.4207
  89   2.0000      -0.178597        -4.8599
  90   2.0000      -0.151373        -4.1191
  91   2.0000      -0.142190        -3.8692
  92   2.0000      -0.066179        -1.8008
  93   0.0000      -0.065075        -1.7708
  94   0.0000       0.008898         0.2421
  95   0.0000       0.015126         0.4116
  96   0.0000       0.043276         1.1776
  97   0.0000       0.062675         1.7055

MULLIKEN ATOMIC CHARGES
-----------------------
   0 C :   -0.342369
   1 O :   -0.160618
   2 C :   -0.160612
   3 O :   -0.130992
   4 C :   -0.369667
   5 C :   -0.006052
   6 N :   -0.150573
   7 C :    0.145933
   8 C :    0.234214
   9 C :   -0.680189
  10 C :   -0.574487
  11 N :   -0.271270
  12 C :   -0.289997
  13 O :   -0.469324
  14 C :    0.300736
  15 N :   -0.253314
  16 N :   -0.300586
  17 C :    0.342427
  18 C :   -0.651660
  19 O :   -0.068734
  20 N :   -0.034624
  21 C :   -0.155128
  22 O :   -0.436472
  23 C :   -0.248442
  24 O :   -0.421202
  25 H :    0.143527
  26 H :    0.160477
  27 H :    0.151493
  28 H :    0.148114
  29 H :    0.171397
  30 H :    0.139754
  31 H :    0.169288
  32 H :    0.201006
  33 H :    0.175594
  34 H :    0.178500
  35 H :    0.185935
  36 H :    0.175995
  37 H :    0.314458
  38 H :    0.185372
  39 H :    0.193307
  40 H :    0.183931
  41 H :    0.274855
Sum of atomic charges:   -2.0000000

LOEWDIN ATOMIC CHARGES
----------------------
   0 C :   -0.075933
   1 O :   -0.667462
   2 C :    0.315553
   3 O :   -0.666285
   4 C :   -0.079287
   5 C :    0.144609
   6 N :   -0.645962
   7 C :    0.316385
   8 C :    0.094630
   9 C :   -0.366333
  10 C :   -0.354376
  11 N :   -0.652386
  12 C :    0.323206
  13 O :   -0.531881
  14 C :    0.357646
  15 N :   -0.451386
  16 N :   -0.429578
  17 C :    0.331979
  18 C :   -0.332220
  19 O :   -0.420088
  20 N :   -0.544332
  21 C :    0.296258
  22 O :   -0.588826
  23 C :    0.161261
  24 O :   -0.661680
  25 H :    0.157868
  26 H :    0.168335
  27 H :    0.169891
  28 H :    0.169173
  29 H :    0.171901
  30 H :    0.154821
  31 H :    0.167301
  32 H :    0.179287
  33 H :    0.160183
  34 H :    0.168908
  35 H :    0.170403
  36 H :    0.165664
  37 H :    0.288537
  38 H :    0.179810
  39 H :    0.183331
  40 H :    0.179611
  41 H :    0.291462

  Mayer bond orders larger than 0.100000
B(  0-C ,  1-O ) :   0.8365 B(  0-C , 25-H ) :   0.9650 B(  0-C , 26-H ) :   0.9603
B(  0-C , 27-H ) :   0.9743 B(  1-O ,  2-C ) :   1.1532 B(  2-C ,  3-O ) :   1.1986
B(  2-C ,  5-C ) :   1.4367 B(  3-O ,  4-C ) :   0.8304 B(  4-C , 28-H ) :   0.9750
B(  4-C , 29-H ) :   0.9640 B(  4-C , 30-H ) :   0.9660 B(  5-C ,  6-N ) :   0.8732
B(  5-C , 23-C ) :   0.8324 B(  6-N ,  7-C ) :   1.8020 B(  7-C ,  8-C ) :   0.7961
B(  7-C , 20-N ) :   1.1012 B(  8-C ,  9-C ) :   0.8430 B(  8-C , 10-C ) :   0.9197
B(  8-C , 11-N ) :   0.7657 B(  9-C , 31-H ) :   0.9583 B(  9-C , 32-H ) :   0.9821
B(  9-C , 33-H ) :   0.9846 B( 10-C , 34-H ) :   0.9668 B( 10-C , 35-H ) :   0.9763
B( 10-C , 36-H ) :   0.9674 B( 11-N , 12-C ) :   1.0312 B( 11-N , 37-H ) :   0.8806
B( 12-C , 13-O ) :   1.8522 B( 12-C , 14-C ) :   0.8313 B( 13-O , 14-C ) :  -0.1296
B( 14-C , 15-N ) :   1.5041 B( 14-C , 19-O ) :   1.0505 B( 15-N , 16-N ) :   1.2453
B( 16-N , 17-C ) :   1.6744 B( 17-C , 18-C ) :   0.8099 B( 17-C , 19-O ) :   1.0309
B( 18-C , 38-H ) :   0.9481 B( 18-C , 39-H ) :   0.9998 B( 18-C , 40-H ) :   0.9541
B( 20-N , 21-C ) :   0.9321 B( 20-N , 41-H ) :   0.8842 B( 21-C , 22-O ) :   2.0770
B( 21-C , 23-C ) :   1.0396 B( 22-O , 23-C ) :  -0.1128 B( 23-C , 24-O ) :   1.7337

Dispersion correction           -0.019369686
FINAL SINGLE POINT ENERGY     -1268.777349106331

DIPOLE MOMENT
-------------
                                X             Y             Z
Electronic contribution:      9.30493       1.47256      11.54337
Nuclear contribution   :     -6.31745      -1.76178     -16.93516
                        -----------------------------------------
Total Dipole Moment    :      2.98748      -0.28921      -5.39179
                        -----------------------------------------
Magnitude (a.u.)       :      6.17090
Magnitude (Debye)      :     15.68518

Rotational constants in cm-1:     0.014986     0.003406     0.003237
Rotational constants in MHz :   449.283526   102.118747    97.036083

                             ****ORCA TERMINATED NORMALLY****
TOTAL RUN TIME: 0 days 0 hours 4 minutes 12 seconds 357 msec
