   * xtb version 6.5.1 (579679a) compiled by 'ehlert@majestix' on 2022-07-11
          program call               : /lustre/hpc/kemi/ree/PhD/git/ReactivityQM/dep/xtb-6.5.1/bin/xtb --gfn 1 /lustre/hpc/kemi/ree/PhD/git/ReactivityQM/calculations/R02methylcation/reac01prodE03/conf01/R02methylcation_reac01prodE03_conf01_gfn1.xyz --opt --vfukui --chrg -2 --uhf 0 --alpb DMSO

   ID    Z sym.   atoms
    1    6 C      1, 3, 5, 6, 8-11, 13, 15, 18, 19, 22, 24
    2    8 O      2, 4, 14, 20, 23, 25
    3    7 N      7, 12, 16, 17, 21
    4    1 H      26-42

      * Solvation model:               ALPB
        Solvent                        DMSO
        Solvent mass                       7.8130E+01 g/mol
          :  Hamiltonian                  GFN1-xTB          :
 * total energy  :   -83.5531023 Eh     change       -0.4068070E-08 Eh
 * total energy  :   -83.5675055 Eh     change       -0.1440315E-01 Eh
 * total energy  :   -83.5733211 Eh     change       -0.5815616E-02 Eh
 * total energy  :   -83.5746045 Eh     change       -0.1283461E-02 Eh
 * total energy  :   -83.5754394 Eh     change       -0.8349105E-03 Eh
 * total energy  :   -83.5759099 Eh     change       -0.4704841E-03 Eh
 * total energy  :   -83.5763205 Eh     change       -0.4105923E-03 Eh
 * total energy  :   -83.5766522 Eh     change       -0.3316345E-03 Eh
 * total energy  :   -83.5769102 Eh     change       -0.2580276E-03 Eh
 * total energy  :   -83.5770884 Eh     change       -0.1782008E-03 Eh
 * total energy  :   -83.5838464 Eh     change       -0.3056757E-04 Eh
 * total energy  :   -83.5838690 Eh     change       -0.2257162E-04 Eh
 * total energy  :   -83.5838839 Eh     change       -0.1497034E-04 Eh
 * total energy  :   -83.5839013 Eh     change       -0.1737442E-04 Eh
 * total energy  :   -83.5839098 Eh     change       -0.8551456E-05 Eh
 * total energy  :   -83.5839230 Eh     change       -0.1310404E-04 Eh
 * total energy  :   -83.5839237 Eh     change       -0.7642308E-06 Eh
 * total energy  :   -83.5839302 Eh     change       -0.6525031E-05 Eh
 * total energy  :   -83.5839332 Eh     change       -0.2938356E-05 Eh
   *** GEOMETRY OPTIMIZATION CONVERGED AFTER 84 ITERATIONS ***

 final structure:
================
42
 xtb: 6.5.1 (579679a)
C           -3.90402470107537        1.24372279727453       -1.55226171221078
O           -3.50601085867695        2.07279210054007       -0.47193238947547
C           -3.44642361809529        1.47458900599042        0.79539990009286
O           -4.36865529355136        2.00090737951684        1.68270217661782
C           -5.60290249683791        1.30363311832999        1.81159026762466
C           -2.48882554454968        0.52936860151660        1.11566425182982
N           -1.58714858777337        0.22781044627106        0.08996302083439
C           -0.60313481744985       -0.57209743054940        0.32611438997730
C            0.34712052638763       -0.98080623077216       -0.78649397514856
C            0.26669361547957        0.00689769642843       -1.95780771469996
C           -0.05624707549724       -2.38402311281446       -1.26357266427197
N            1.70774896249809       -1.08172573238705       -0.25437283746242
C            2.39718542790969        0.09175604063944        0.10948290029466
O            1.81094376860631        1.14530237024991        0.42710620053479
C            3.80960483778040       -0.11470864604710        0.12148135525594
N            4.45044036794610       -1.24186010023810       -0.21557832115304
N            5.78706282460992       -0.97885960857650       -0.08977851061003
C            5.90516351400300        0.24815788923779        0.30140911953662
C            7.16778914625614        0.98303353682952        0.56501146520919
O            4.71400667581201        0.87281675267762        0.46452531514097
N           -0.39954449329940       -1.15030600922256        1.53843514116943
C           -1.27231618614394       -1.00733475718482        2.62699066294176
O           -0.99612075208674       -1.64614631063698        3.67645582877558
C           -2.40209669314683       -0.12846555276306        2.41546304951002
O           -3.28513231619197        0.03799052683351        3.32666711182156
H           -4.87659600388900        0.77188872391487       -1.36402240275524
H           -3.16032567435435        0.45881917365752       -1.74516129277334
H           -3.98474422972897        1.88162434379470       -2.43487116431036
H           -6.21795175922189        1.86636501391855        2.51668518173539
H           -5.44399366477841        0.29051386210698        2.20038692776753
H           -6.12901270275346        1.24166423275941        0.85148983546518
H           -0.74189216596355       -0.00599812155394       -2.36964603255898
H            0.49202966210958        1.01883075074370       -1.62134727370087
H            0.97119569619753       -0.27752506767166       -2.73764055256516
H            0.01565772775877       -3.09626673154469       -0.44229111188918
H           -1.08267640268003       -2.36987078464446       -1.62773294430689
H            0.59612892195250       -2.71277877748092       -2.07100920226075
H            2.28832549610903       -1.73913029979657       -0.75756930826004
H            7.22779875250708        1.28041213383106        1.61270501262406
H            8.01445436282093        0.34378935867813        0.32648807640906
H            7.21561978079218        1.88570693803239       -0.04455276810952
H            0.37080697019758       -1.79048851988003        1.65124898735408

          :  Hamiltonian                  GFN1-xTB          :
         :: total energy             -83.583933180757 Eh    ::
         :: gradient norm              0.000384018438 Eh/a0 ::
         :: HOMO-LUMO gap              0.033269517187 eV    ::
         :: SCC energy               -84.306119943415 Eh    ::
         :: -> Gsolv                  -0.288339821386 Eh    ::
         :: repulsion energy           0.748410800402 Eh    ::

    * Orbital Energies and Occupations

         #    Occupation            Energy/Eh            Energy/eV
      -------------------------------------------------------------
         1        2.0000           -0.8009794             -21.7958
       ...           ...                  ...                  ...
        56        2.0000           -0.4296405             -11.6911
        57        2.0000           -0.4268728             -11.6158
        58        2.0000           -0.4214045             -11.4670
        59        2.0000           -0.4096138             -11.1462
        60        2.0000           -0.4048221             -11.0158
        61        2.0000           -0.4042239             -10.9995
        62        2.0000           -0.4013147             -10.9203
        63        2.0000           -0.3979704             -10.8293
        64        2.0000           -0.3890535             -10.5867
        65        2.0000           -0.3764831             -10.2446
        66        2.0000           -0.3457224              -9.4076
        67        2.0000           -0.3411050              -9.2819
        68        1.3111           -0.2684355              -7.3045 (HOMO)
        69        0.6889           -0.2672129              -7.2712 (LUMO)
        70                         -0.2101427              -5.7183
        71                         -0.2046358              -5.5684
        72                         -0.1800485              -4.8994
        73                         -0.1400723              -3.8116
        74                         -0.1245142              -3.3882
        75                         -0.1145118              -3.1160
        76                         -0.1074422              -2.9237
        77                         -0.1030352              -2.8037
        78                         -0.0940956              -2.5605
        79                         -0.0757707              -2.0618
       ...                                ...                  ...
       134                          0.7279727              19.8091
      -------------------------------------------------------------
                  HL-Gap            0.0012226 Eh            0.0333 eV

Wiberg/Mayer (AO) data.
largest (>0.10) Wiberg bond orders for each atom

     #   Z sym  total        # sym  WBO       # sym  WBO       # sym  WBO
 ---------------------------------------------------------------------------
     1   6 C    3.912 --    28 H    0.985    26 H    0.981    27 H    0.976
                             2 O    0.938
     2   8 O    1.999 --     1 C    0.938     3 C    0.933
     3   6 C    3.539 --     6 C    1.463     4 O    0.963     2 O    0.933
     4   8 O    2.012 --     3 C    0.963     5 C    0.927
     5   6 C    3.905 --    29 H    0.986    31 H    0.982    30 H    0.978
                             4 O    0.927
     6   6 C    3.943 --     3 C    1.463    24 C    1.125     7 N    1.108
     7   7 N    2.984 --     8 C    1.576     6 C    1.108    21 N    0.108
     8   6 C    3.910 --     7 N    1.576    21 N    1.166     9 C    0.973
     9   6 C    3.952 --    10 C    0.991    11 C    0.986     8 C    0.973
                            12 N    0.944
    10   6 C    3.993 --     9 C    0.991    34 H    0.988    32 H    0.984
                            33 H    0.981
    11   6 C    3.992 --    36 H    0.986     9 C    0.986    35 H    0.985
                            37 H    0.985
    12   7 N    3.135 --    13 C    1.065     9 C    0.944    38 H    0.920
                            14 O    0.107
    13   6 C    3.749 --    14 O    1.461    15 C    1.156    12 N    1.065
    14   8 O    1.679 --    13 C    1.461    12 N    0.107
    15   6 C    3.690 --    16 N    1.388    13 C    1.156    20 O    0.976
    16   7 N    2.737 --    15 C    1.388    17 N    1.186
    17   7 N    2.980 --    18 C    1.628    16 N    1.186
    18   6 C    3.819 --    17 N    1.628    20 O    1.050    19 C    1.023
    19   6 C    3.994 --    18 C    1.023    40 H    0.986    41 H    0.972
                            39 H    0.970
    20   8 O    2.182 --    18 C    1.050    15 C    0.976
    21   7 N    3.392 --     8 C    1.166    22 C    1.045    42 H    0.907
                             7 N    0.108
    22   6 C    3.780 --    23 O    1.424    24 C    1.144    21 N    1.045
    23   8 O    1.649 --    22 C    1.424
    24   6 C    3.807 --    25 O    1.372    22 C    1.144     6 C    1.125
    25   8 O    1.597 --    24 C    1.372
    26   1 H    1.017 --     1 C    0.981
    27   1 H    1.041 --     1 C    0.976
    28   1 H    1.020 --     1 C    0.985
    29   1 H    1.021 --     5 C    0.986
    30   1 H    1.043 --     5 C    0.978
    31   1 H    1.017 --     5 C    0.982
    32   1 H    1.019 --    10 C    0.984
    33   1 H    1.021 --    10 C    0.981
    34   1 H    1.005 --    10 C    0.988
    35   1 H    1.006 --    11 C    0.985
    36   1 H    1.007 --    11 C    0.986
    37   1 H    1.002 --    11 C    0.985
    38   1 H    0.975 --    12 N    0.920
    39   1 H    1.001 --    19 C    0.970
    40   1 H    1.004 --    19 C    0.986
    41   1 H    1.001 --    19 C    0.972
    42   1 H    0.970 --    21 N    0.907
 ---------------------------------------------------------------------------

           -------------------------------------------------
          | TOTAL ENERGY              -83.583933180757 Eh   |
          | GRADIENT NORM               0.000384018438 Eh/α |
          | HOMO-LUMO GAP               0.033269517187 eV   |
           -------------------------------------------------

 * finished run on 2023/06/21 at 17:07:30.862
