                         Program Version 5.0.1 -  RELEASE  -
|  1> # ORCA input file
|  2> ! SP r2SCAN-3c CPCM
|  3>
|  4> %maxcore 1875.0
|  5> %pal nprocs 4 end
|  6> %cpcm smd true SMDsolvent "DMSO" end
|  7>
|  8> *xyz 0 1
|  9> C      -4.381465   -3.271491   -1.098607
| 10> O      -3.429545   -2.228984   -0.875440
| 11> C      -3.758895   -1.311460    0.039001
| 12> O      -4.799910   -1.344019    0.653804
| 13> C      -2.697546   -0.272042    0.185003
| 14> N      -1.592612   -0.455835   -0.603093
| 15> C      -0.627711    0.399834   -0.558081
| 16> C       0.578030    0.207152   -1.464303
| 17> C       0.473440   -1.153828   -2.154675
| 18> C       0.629524    1.326385   -2.512975
| 19> N       1.816497    0.185577   -0.671189
| 20> C       2.413052    1.251682   -0.107162
| 21> O       1.956011    2.386658   -0.066165
| 22> C       3.717339    0.921876    0.513260
| 23> N       4.512267    1.722959    1.152163
| 24> N       5.585927    0.982624    1.542804
| 25> C       5.381899   -0.225938    1.118884
| 26> C       6.256549   -1.405995    1.288184
| 27> O       4.215965   -0.332441    0.459880
| 28> N      -0.683221    1.492644    0.245721
| 29> C      -1.721752    1.782218    1.102317
| 30> O      -1.673901    2.779194    1.810672
| 31> C      -2.810346    0.801665    1.042482
| 32> O      -3.912072    0.921195    1.794103
| 33> C      -4.116485    1.997748    2.708492
| 34> H      -4.530965   -3.847611   -0.181988
| 35> H      -5.336711   -2.847674   -1.418662
| 36> H      -3.969962   -3.907029   -1.879772
| 37> H       1.337107   -1.311071   -2.797215
| 38> H       0.425520   -1.949798   -1.413249
| 39> H      -0.431673   -1.188857   -2.758835
| 40> H       0.662570    2.306793   -2.042968
| 41> H       1.514395    1.200326   -3.134063
| 42> H      -0.257721    1.266790   -3.141365
| 43> H       2.314347   -0.689932   -0.652949
| 44> H       7.161225   -1.118627    1.818773
| 45> H       6.517091   -1.817681    0.313569
| 46> H       5.732499   -2.179199    1.849784
| 47> H       0.099576    2.146406    0.245632
| 48> H      -3.349568    2.005248    3.486447
| 49> H      -5.093186    1.815112    3.158680
| 50> H      -4.125587    2.959425    2.190487
| 51> **                         ****END OF INPUT****

CARTESIAN COORDINATES (ANGSTROEM)
---------------------------------
  C     -4.381465   -3.271491   -1.098607
  O     -3.429545   -2.228984   -0.875440
  C     -3.758895   -1.311460    0.039001
  O     -4.799910   -1.344019    0.653804
  C     -2.697546   -0.272042    0.185003
  N     -1.592612   -0.455835   -0.603093
  C     -0.627711    0.399834   -0.558081
  C      0.578030    0.207152   -1.464303
  C      0.473440   -1.153828   -2.154675
  C      0.629524    1.326385   -2.512975
  N      1.816497    0.185577   -0.671189
  C      2.413052    1.251682   -0.107162
  O      1.956011    2.386658   -0.066165
  C      3.717339    0.921876    0.513260
  N      4.512267    1.722959    1.152163
  N      5.585927    0.982624    1.542804
  C      5.381899   -0.225938    1.118884
  C      6.256549   -1.405995    1.288184
  O      4.215965   -0.332441    0.459880
  N     -0.683221    1.492644    0.245721
  C     -1.721752    1.782218    1.102317
  O     -1.673901    2.779194    1.810672
  C     -2.810346    0.801665    1.042482
  O     -3.912072    0.921195    1.794103
  C     -4.116485    1.997748    2.708492
  H     -4.530965   -3.847611   -0.181988
  H     -5.336711   -2.847674   -1.418662
  H     -3.969962   -3.907029   -1.879772
  H      1.337107   -1.311071   -2.797215
  H      0.425520   -1.949798   -1.413249
  H     -0.431673   -1.188857   -2.758835
  H      0.662570    2.306793   -2.042968
  H      1.514395    1.200326   -3.134063
  H     -0.257721    1.266790   -3.141365
  H      2.314347   -0.689932   -0.652949
  H      7.161225   -1.118627    1.818773
  H      6.517091   -1.817681    0.313569
  H      5.732499   -2.179199    1.849784
  H      0.099576    2.146406    0.245632
  H     -3.349568    2.005248    3.486447
  H     -5.093186    1.815112    3.158680
  H     -4.125587    2.959425    2.190487

 Total Charge           Charge          ....    0
 Multiplicity           Mult            ....    1
 Number of Electrons    NEL             ....  184
 Basis Dimension        Dim             ....  615

ORBITAL ENERGIES
----------------

  NO   OCC          E(Eh)            E(eV)
   0   2.0000     -19.069519      -518.9080
   1   2.0000     -18.998854      -516.9851
   2   2.0000     -18.995017      -516.8807
   3   2.0000     -18.948202      -515.6068
   4   2.0000     -18.932877      -515.1898
   5   2.0000     -18.928310      -515.0655
   6   2.0000     -14.220599      -386.9622
   7   2.0000     -14.211990      -386.7279
   8   2.0000     -14.208808      -386.6413
   9   2.0000     -14.200028      -386.4024
  10   2.0000     -14.162587      -385.3836
  11   2.0000     -10.168840      -276.7082
  12   2.0000     -10.157591      -276.4021
  13   2.0000     -10.150661      -276.2135
  14   2.0000     -10.150627      -276.2126
  15   2.0000     -10.147464      -276.1265
  16   2.0000     -10.122867      -275.4572
  17   2.0000     -10.122557      -275.4488
  18   2.0000     -10.108522      -275.0669
  19   2.0000     -10.089076      -274.5377
  20   2.0000     -10.074113      -274.1306
  21   2.0000     -10.073204      -274.1058
  22   2.0000     -10.046481      -273.3786
  23   2.0000     -10.024395      -272.7777
  24   2.0000     -10.023901      -272.7642
  25   2.0000      -1.158997       -31.5379
  26   2.0000      -1.072058       -29.1722
  27   2.0000      -1.051758       -28.6198
  28   2.0000      -1.037237       -28.2247
  29   2.0000      -1.018231       -27.7075
  30   2.0000      -0.979517       -26.6540
  31   2.0000      -0.979338       -26.6491
  32   2.0000      -0.965825       -26.2814
  33   2.0000      -0.922038       -25.0899
  34   2.0000      -0.877737       -23.8844
  35   2.0000      -0.835310       -22.7299
  36   2.0000      -0.792187       -21.5565
  37   2.0000      -0.754172       -20.5221
  38   2.0000      -0.716147       -19.4874
  39   2.0000      -0.709784       -19.3142
  40   2.0000      -0.676755       -18.4155
  41   2.0000      -0.671963       -18.2850
  42   2.0000      -0.667370       -18.1601
  43   2.0000      -0.644365       -17.5341
  44   2.0000      -0.624705       -16.9991
  45   2.0000      -0.606984       -16.5169
  46   2.0000      -0.590795       -16.0763
  47   2.0000      -0.560608       -15.2549
  48   2.0000      -0.547080       -14.8868
  49   2.0000      -0.539563       -14.6822
  50   2.0000      -0.528249       -14.3744
  51   2.0000      -0.523598       -14.2478
  52   2.0000      -0.498778       -13.5724
  53   2.0000      -0.490673       -13.3519
  54   2.0000      -0.483890       -13.1673
  55   2.0000      -0.463934       -12.6243
  56   2.0000      -0.460387       -12.5278
  57   2.0000      -0.447516       -12.1775
  58   2.0000      -0.442650       -12.0451
  59   2.0000      -0.437675       -11.9097
  60   2.0000      -0.429067       -11.6755
  61   2.0000      -0.421381       -11.4664
  62   2.0000      -0.418596       -11.3906
  63   2.0000      -0.412877       -11.2350
  64   2.0000      -0.409074       -11.1315
  65   2.0000      -0.406976       -11.0744
  66   2.0000      -0.390064       -10.6142
  67   2.0000      -0.388125       -10.5614
  68   2.0000      -0.382949       -10.4206
  69   2.0000      -0.379892       -10.3374
  70   2.0000      -0.374512       -10.1910
  71   2.0000      -0.372251       -10.1295
  72   2.0000      -0.359771        -9.7899
  73   2.0000      -0.354810        -9.6549
  74   2.0000      -0.348257        -9.4765
  75   2.0000      -0.346273        -9.4226
  76   2.0000      -0.338389        -9.2080
  77   2.0000      -0.327532        -8.9126
  78   2.0000      -0.323102        -8.7921
  79   2.0000      -0.320793        -8.7292
  80   2.0000      -0.317349        -8.6355
  81   2.0000      -0.316889        -8.6230
  82   2.0000      -0.278879        -7.5887
  83   2.0000      -0.271931        -7.3996
  84   2.0000      -0.270031        -7.3479
  85   2.0000      -0.268959        -7.3187
  86   2.0000      -0.267182        -7.2704
  87   2.0000      -0.259133        -7.0514
  88   2.0000      -0.254686        -6.9304
  89   2.0000      -0.237807        -6.4711
  90   2.0000      -0.227627        -6.1940
  91   2.0000      -0.203401        -5.5348
  92   0.0000      -0.094220        -2.5638
  93   0.0000      -0.091396        -2.4870
  94   0.0000      -0.038605        -1.0505
  95   0.0000      -0.023008        -0.6261
  96   0.0000       0.015797         0.4299

MULLIKEN ATOMIC CHARGES
-----------------------
   0 C :   -0.307993
   1 O :   -0.181676
   2 C :    0.080199
   3 O :   -0.396725
   4 C :    0.145482
   5 N :   -0.129616
   6 C :    0.103503
   7 C :    0.125247
   8 C :   -0.595342
   9 C :   -0.555206
  10 N :   -0.094351
  11 C :   -0.056522
  12 O :   -0.494728
  13 C :    0.373985
  14 N :   -0.173445
  15 N :   -0.273739
  16 C :    0.397066
  17 C :   -0.629816
  18 O :   -0.054672
  19 N :   -0.012212
  20 C :    0.122112
  21 O :   -0.426881
  22 C :    0.047567
  23 O :   -0.127272
  24 C :   -0.310625
  25 H :    0.173866
  26 H :    0.173664
  27 H :    0.174460
  28 H :    0.187612
  29 H :    0.191094
  30 H :    0.198103
  31 H :    0.193600
  32 H :    0.197493
  33 H :    0.189650
  34 H :    0.327966
  35 H :    0.206115
  36 H :    0.201539
  37 H :    0.202976
  38 H :    0.293709
  39 H :    0.173569
  40 H :    0.166581
  41 H :    0.173662
Sum of atomic charges:    0.0000000

LOEWDIN ATOMIC CHARGES
----------------------
   0 C :   -0.039225
   1 O :   -0.580747
   2 C :    0.399376
   3 O :   -0.413699
   4 C :    0.216478
   5 N :   -0.563070
   6 C :    0.357672
   7 C :    0.110378
   8 C :   -0.336542
   9 C :   -0.340397
  10 N :   -0.554423
  11 C :    0.387487
  12 O :   -0.486777
  13 C :    0.415275
  14 N :   -0.329304
  15 N :   -0.355769
  16 C :    0.382130
  17 C :   -0.316262
  18 O :   -0.390512
  19 N :   -0.444026
  20 C :    0.371213
  21 O :   -0.475295
  22 C :    0.291077
  23 O :   -0.627825
  24 C :   -0.025922
  25 H :    0.180514
  26 H :    0.180881
  27 H :    0.184475
  28 H :    0.170848
  29 H :    0.177814
  30 H :    0.182553
  31 H :    0.181859
  32 H :    0.176741
  33 H :    0.175752
  34 H :    0.303467
  35 H :    0.191892
  36 H :    0.192417
  37 H :    0.193038
  38 H :    0.312511
  39 H :    0.181899
  40 H :    0.180033
  41 H :    0.182014

  Mayer bond orders larger than 0.100000
B(  0-C ,  1-O ) :   0.8342 B(  0-C , 25-H ) :   0.9564 B(  0-C , 26-H ) :   0.9568
B(  0-C , 27-H ) :   0.9644 B(  1-O ,  2-C ) :   1.1376 B(  2-C ,  3-O ) :   1.9154
B(  2-C ,  4-C ) :   0.9611 B(  4-C ,  5-N ) :   0.9886 B(  4-C , 22-C ) :   1.4884
B(  5-N ,  6-C ) :   1.7474 B(  6-C ,  7-C ) :   0.9705 B(  6-C , 19-N ) :   1.1603
B(  6-C , 22-C ) :   0.1181 B(  7-C ,  8-C ) :   0.9181 B(  7-C ,  9-C ) :   0.9018
B(  7-C , 10-N ) :   0.8126 B(  8-C , 28-H ) :   0.9698 B(  8-C , 29-H ) :   0.9584
B(  8-C , 30-H ) :   0.9646 B(  9-C , 31-H ) :   0.9385 B(  9-C , 32-H ) :   0.9769
B(  9-C , 33-H ) :   0.9577 B( 10-N , 11-C ) :   1.2147 B( 10-N , 34-H ) :   0.8802
B( 11-C , 12-O ) :   1.7761 B( 11-C , 13-C ) :   0.8595 B( 13-C , 14-N ) :   1.7106
B( 13-C , 16-C ) :   0.1194 B( 13-C , 18-O ) :   1.0879 B( 14-N , 15-N ) :   1.2661
B( 15-N , 16-C ) :   1.6162 B( 16-C , 17-C ) :   0.8306 B( 16-C , 18-O ) :   1.0625
B( 17-C , 35-H ) :   0.9890 B( 17-C , 36-H ) :   0.9425 B( 17-C , 37-H ) :   0.9396
B( 19-N , 20-C ) :   1.0411 B( 19-N , 38-H ) :   0.8525 B( 20-C , 21-O ) :   1.9740
B( 20-C , 22-C ) :   0.9760 B( 22-C , 23-O ) :   1.1721 B( 23-O , 24-C ) :   0.8376
B( 24-C , 39-H ) :   0.9522 B( 24-C , 40-H ) :   0.9636 B( 24-C , 41-H ) :   0.9520

Dispersion correction           -0.018354210
FINAL SINGLE POINT ENERGY     -1268.639687433727

DIPOLE MOMENT
-------------
                                X             Y             Z
Electronic contribution:      3.02350       7.45234       7.45169
Nuclear contribution   :     -1.46431     -11.01859      -9.49302
                        -----------------------------------------
Total Dipole Moment    :      1.55920      -3.56625      -2.04134
                        -----------------------------------------
Magnitude (a.u.)       :      4.39503
Magnitude (Debye)      :     11.17128

Rotational constants in cm-1:     0.012312     0.003677     0.003262
Rotational constants in MHz :   369.102995   110.219850    97.796504

                             ****ORCA TERMINATED NORMALLY****
TOTAL RUN TIME: 0 days 0 hours 2 minutes 4 seconds 2 msec
