   * xtb version 6.5.1 (579679a) compiled by 'ehlert@majestix' on 2022-07-11
          program call               : /lustre/hpc/kemi/ree/PhD/git/ReactivityQM/dep/xtb-6.5.1/bin/xtb --gfn 1 /lustre/hpc/kemi/ree/PhD/git/ReactivityQM/calculations/R02methylcation/reac01prodN08/conf15/R02methylcation_reac01prodN08_conf15_gfn1.xyz --opt --vfukui --chrg 0 --uhf 0 --alpb DMSO

   ID    Z sym.   atoms
    1    6 C      1, 3, 5, 7-10, 12, 14, 17, 18, 21, 23, 25
    2    8 O      2, 4, 13, 19, 22, 24
    3    7 N      6, 11, 15, 16, 20
    4    1 H      26-42

      * Solvation model:               ALPB
        Solvent                        DMSO
        Solvent mass                       7.8130E+01 g/mol
          :  Hamiltonian                  GFN1-xTB          :
 * total energy  :   -83.0004104 Eh     change       -0.1007550E-10 Eh
 * total energy  :   -83.0137268 Eh     change       -0.1331636E-01 Eh
 * total energy  :   -83.0180120 Eh     change       -0.4285237E-02 Eh
 * total energy  :   -83.0190821 Eh     change       -0.1070028E-02 Eh
 * total energy  :   -83.0199070 Eh     change       -0.8249865E-03 Eh
 * total energy  :   -83.0204168 Eh     change       -0.5097359E-03 Eh
 * total energy  :   -83.0208610 Eh     change       -0.4441890E-03 Eh
 * total energy  :   -83.0212482 Eh     change       -0.3872856E-03 Eh
 * total energy  :   -83.0214866 Eh     change       -0.2383099E-03 Eh
 * total energy  :   -83.0215794 Eh     change       -0.9285983E-04 Eh
 * total energy  :   -83.0219606 Eh     change       -0.9550729E-05 Eh
 * total energy  :   -83.0219708 Eh     change       -0.1017132E-04 Eh
 * total energy  :   -83.0219822 Eh     change       -0.1137884E-04 Eh
 * total energy  :   -83.0219928 Eh     change       -0.1059968E-04 Eh
 * total energy  :   -83.0220015 Eh     change       -0.8684981E-05 Eh
 * total energy  :   -83.0220094 Eh     change       -0.7942756E-05 Eh
 * total energy  :   -83.0220172 Eh     change       -0.7750686E-05 Eh
 * total energy  :   -83.0220234 Eh     change       -0.6209746E-05 Eh
 * total energy  :   -83.0220276 Eh     change       -0.4189925E-05 Eh
   *** GEOMETRY OPTIMIZATION CONVERGED AFTER 36 ITERATIONS ***

 final structure:
================
42
 xtb: 6.5.1 (579679a)
C           -4.38146463264389       -3.27149053654152       -1.09860686236334
O           -3.42954520093129       -2.22898365872617       -0.87544033613943
C           -3.75889497910265       -1.31145959239069        0.03900102431793
O           -4.79990998099706       -1.34401922898655        0.65380395815499
C           -2.69754614654729       -0.27204207667281        0.18500320501277
N           -1.59261234299120       -0.45583517414286       -0.60309292536440
C           -0.62771082810565        0.39983361068603       -0.55808071000462
C            0.57802959318128        0.20715218819653       -1.46430332927650
C            0.47343985634962       -1.15382765816449       -2.15467513585184
C            0.62952406726982        1.32638479020121       -2.51297516992609
N            1.81649718642362        0.18557725212298       -0.67118889547252
C            2.41305179226272        1.25168175326736       -0.10716164977363
O            1.95601122497210        2.38665773430948       -0.06616480883353
C            3.71733901331734        0.92187607874861        0.51325978075410
N            4.51226677272336        1.72295884209148        1.15216346558795
N            5.58592696601102        0.98262431884162        1.54280447348255
C            5.38189944334169       -0.22593836444429        1.11888435776925
C            6.25654887227549       -1.40599539717332        1.28818363871053
O            4.21596451864695       -0.33244114861728        0.45988029764394
N           -0.68322102155437        1.49264398739787        0.24572107400624
C           -1.72175165047921        1.78221764839473        1.10231711088973
O           -1.67390092849407        2.77919350550828        1.81067171807382
C           -2.81034644325212        0.80166478391511        1.04248239182107
O           -3.91207212553882        0.92119507001856        1.79410335891105
C           -4.11648497205054        1.99774810849327        2.70849214681398
H           -4.53096513698245       -3.84761120820140       -0.18198764276056
H           -5.33671129912391       -2.84767401668689       -1.41866180178476
H           -3.96996240992933       -3.90702899060421       -1.87977201595830
H            1.33710692699096       -1.31107106653647       -2.79721514103589
H            0.42552019410094       -1.94979829525156       -1.41324933422905
H           -0.43167339020026       -1.18885686106604       -2.75883530505368
H            0.66257013824085        2.30679300204271       -2.04296764831777
H            1.51439531900384        1.20032642437561       -3.13406332313741
H           -0.25772060026355        1.26679027354291       -3.14136511643184
H            2.31434726305244       -0.68993186100152       -0.65294876808110
H            7.16122469053915       -1.11862749950407        1.81877322107787
H            6.51709142016445       -1.81768104868670        0.31356865587102
H            5.73249917523799       -2.17919868561655        1.84978364683743
H            0.09957627665236        2.14640621051781        0.24563237592987
H           -3.34956790460985        2.00524836817921        3.48644689636342
H           -5.09318593464700        1.81511182745930        3.15868004792781
H           -4.12558678230710        2.95942459069589        2.19048707385967

          :  Hamiltonian                  GFN1-xTB          :
         :: total energy             -83.022027563819 Eh    ::
         :: gradient norm              0.000320183694 Eh/a0 ::
         :: HOMO-LUMO gap              2.775174929499 eV    ::
         :: SCC energy               -83.803679617992 Eh    ::
         :: -> Gsolv                  -0.055022427282 Eh    ::
         :: repulsion energy           0.806824597690 Eh    ::

    * Orbital Energies and Occupations

         #    Occupation            Energy/Eh            Energy/eV
      -------------------------------------------------------------
         1        2.0000           -0.8679870             -23.6191
       ...           ...                  ...                  ...
        55        2.0000           -0.5074467             -13.8083
        56        2.0000           -0.5028564             -13.6834
        57        2.0000           -0.4953544             -13.4793
        58        2.0000           -0.4825683             -13.1314
        59        2.0000           -0.4819213             -13.1137
        60        2.0000           -0.4814044             -13.0997
        61        2.0000           -0.4707201             -12.8089
        62        2.0000           -0.4670596             -12.7093
        63        2.0000           -0.4578216             -12.4580
        64        2.0000           -0.4547995             -12.3757
        65        2.0000           -0.4483728             -12.2008
        66        2.0000           -0.4443592             -12.0916
        67        2.0000           -0.4250210             -11.5654 (HOMO)
        68                         -0.3230352              -8.7902 (LUMO)
        69                         -0.3154636              -8.5842
        70                         -0.2834511              -7.7131
        71                         -0.2587357              -7.0406
        72                         -0.2382617              -6.4834
        73                         -0.2030386              -5.5250
        74                         -0.1591362              -4.3303
        75                         -0.1429339              -3.8894
        76                         -0.1370467              -3.7292
        77                         -0.1311660              -3.5692
        78                         -0.1292040              -3.5158
       ...                                ...                  ...
       134                          0.7343488              19.9826
      -------------------------------------------------------------
                  HL-Gap            0.1019858 Eh            2.7752 eV

Wiberg/Mayer (AO) data.
largest (>0.10) Wiberg bond orders for each atom

     #   Z sym  total        # sym  WBO       # sym  WBO       # sym  WBO
 ---------------------------------------------------------------------------
     1   6 C    3.874 --    28 H    0.986    27 H    0.979    26 H    0.979
                             2 O    0.900
     2   8 O    2.196 --     3 C    1.106     1 C    0.900     4 O    0.133
     3   6 C    3.851 --     4 O    1.659     2 O    1.106     5 C    1.004
     4   8 O    1.921 --     3 C    1.659     2 O    0.133
     5   6 C    3.962 --    23 C    1.478     6 N    1.189     3 C    1.004
     6   7 N    3.026 --     7 C    1.576     5 C    1.189
     7   6 C    3.932 --     6 N    1.576    20 N    1.189     8 C    0.970
     8   6 C    3.933 --     9 C    1.001    10 C    0.981     7 C    0.970
                            11 N    0.917
     9   6 C    3.990 --     8 C    1.001    29 H    0.985    30 H    0.983
                            31 H    0.982
    10   6 C    3.987 --    34 H    0.985    33 H    0.983     8 C    0.981
                            32 H    0.979
    11   7 N    3.353 --    12 C    1.273     8 C    0.917    35 H    0.891
                            13 O    0.175
    12   6 C    3.916 --    13 O    1.556    11 N    1.273    14 C    0.998
    13   8 O    1.914 --    12 C    1.556    11 N    0.175
    14   6 C    3.874 --    15 N    1.620    19 O    1.047    12 C    0.998
    15   7 N    3.002 --    14 C    1.620    16 N    1.201
    16   7 N    2.982 --    17 C    1.608    15 N    1.201
    17   6 C    3.867 --    16 N    1.608    19 O    1.072    18 C    1.032
    18   6 C    3.986 --    17 C    1.032    36 H    0.982    37 H    0.963
                            38 H    0.962
    19   8 O    2.316 --    17 C    1.072    14 C    1.047
    20   7 N    3.476 --     7 C    1.189    21 C    1.139    39 H    0.846
                            22 O    0.133
    21   6 C    3.912 --    22 O    1.569    20 N    1.139    23 C    1.067
    22   8 O    1.895 --    21 C    1.569    20 N    0.133
    23   6 C    3.918 --     5 C    1.478    24 O    1.099    21 C    1.067
    24   8 O    2.197 --    23 C    1.099    25 C    0.898
    25   6 C    3.873 --    41 H    0.984    40 H    0.979    42 H    0.979
                            24 O    0.898
    26   1 H    1.008 --     1 C    0.979
    27   1 H    1.008 --     1 C    0.979
    28   1 H    1.011 --     1 C    0.986
    29   1 H    0.998 --     9 C    0.985
    30   1 H    1.004 --     9 C    0.983
    31   1 H    1.009 --     9 C    0.982
    32   1 H    1.008 --    10 C    0.979
    33   1 H    0.999 --    10 C    0.983
    34   1 H    1.001 --    10 C    0.985
    35   1 H    0.935 --    11 N    0.891
    36   1 H    0.998 --    18 C    0.982
    37   1 H    0.996 --    18 C    0.963
    38   1 H    0.996 --    18 C    0.962
    39   1 H    0.932 --    20 N    0.846
    40   1 H    1.015 --    25 C    0.979
    41   1 H    1.012 --    25 C    0.984
    42   1 H    1.015 --    25 C    0.979
 ---------------------------------------------------------------------------

           -------------------------------------------------
          | TOTAL ENERGY              -83.022027563819 Eh   |
          | GRADIENT NORM               0.000320183694 Eh/α |
          | HOMO-LUMO GAP               2.775174929499 eV   |
           -------------------------------------------------

 * finished run on 2023/06/21 at 17:39:11.836
