   * xtb version 6.5.1 (579679a) compiled by 'ehlert@majestix' on 2022-07-11
          program call               : /lustre/hpc/kemi/ree/PhD/git/ReactivityQM/dep/xtb-6.5.1/bin/xtb --gfn 1 /lustre/hpc/kemi/ree/PhD/git/ReactivityQM/calculations/R01/reac02prodN06/conf05/R01_reac02prodN06_conf05_gfn1.xyz --opt --vfukui --chrg 1 --uhf 0 --alpb DMSO

   ID    Z sym.   atoms
    1    6 C      1, 3, 5, 6, 8-11, 14, 16
    2    8 O      2, 4, 15, 17
    3    7 N      7, 12, 13
    4    1 H      18-33

      * Solvation model:               ALPB
        Solvent                        DMSO
        Solvent mass                       7.8130E+01 g/mol
          :  Hamiltonian                  GFN1-xTB          :
 * total energy  :   -57.7929644 Eh     change       -0.5286438E-11 Eh
 * total energy  :   -57.8086191 Eh     change       -0.1565472E-01 Eh
 * total energy  :   -57.8146086 Eh     change       -0.5989544E-02 Eh
 * total energy  :   -57.8158731 Eh     change       -0.1264503E-02 Eh
 * total energy  :   -57.8166599 Eh     change       -0.7867473E-03 Eh
 * total energy  :   -57.8168830 Eh     change       -0.2231285E-03 Eh
 * total energy  :   -57.8170371 Eh     change       -0.1541241E-03 Eh
 * total energy  :   -57.8171113 Eh     change       -0.7417833E-04 Eh
 * total energy  :   -57.8171605 Eh     change       -0.4921489E-04 Eh
 * total energy  :   -57.8172092 Eh     change       -0.4865703E-04 Eh
 * total energy  :   -57.8178630 Eh     change       -0.3314659E-04 Eh
 * total energy  :   -57.8179026 Eh     change       -0.3962209E-04 Eh
 * total energy  :   -57.8179320 Eh     change       -0.2940348E-04 Eh
 * total energy  :   -57.8179490 Eh     change       -0.1697400E-04 Eh
 * total energy  :   -57.8179693 Eh     change       -0.2035176E-04 Eh
 * total energy  :   -57.8179812 Eh     change       -0.1189693E-04 Eh
 * total energy  :   -57.8179945 Eh     change       -0.1327565E-04 Eh
 * total energy  :   -57.8180022 Eh     change       -0.7663133E-05 Eh
 * total energy  :   -57.8180061 Eh     change       -0.3975991E-05 Eh
   *** GEOMETRY OPTIMIZATION CONVERGED AFTER 39 ITERATIONS ***

 final structure:
================
33
 xtb: 6.5.1 (579679a)
C           -2.34917634634041        2.19389168739707        1.36716777183374
O           -1.71249387442690        1.05688592311208        0.73477170542629
C           -2.23695833204568        0.58888678120968       -0.35125458921659
O           -3.22283777228823        0.92557279102934       -0.92254079087927
C           -1.34224970611166       -0.63242787860545       -0.93207806182816
C           -1.89473993473222       -0.98071126585575       -2.31655116937361
N           -0.02441737249185       -0.08568906458109       -1.00826331789542
C            0.85983587695811       -0.34578387492815       -0.12503847828205
C            2.24681369679419        0.27128217512168       -0.22417980038175
C            2.28326897199311        1.49072612636682        0.70701008706299
C            2.52445188286878        0.68034383181815       -1.67397311012963
N            3.25677646251307       -0.67727024683345        0.20318595165439
N            0.63187239709536       -1.17315214677719        0.96158804852990
C           -0.52134273983718       -1.85500821957443        1.16775679970254
O           -0.75028618174958       -2.60747754510898        2.08869012411219
C           -1.52493823611540       -1.65305096719893        0.08372070119282
O           -2.56640054662692       -2.39248923010791        0.10643320233999
H           -2.02716229713601        3.10419551065386        0.86083346596988
H           -2.00925700418769        2.18761568677328        2.39976989179248
H           -3.43249676411535        2.08715583060129        1.30712044751863
H           -1.83550556462572       -0.10118953050022       -2.95362287024260
H           -2.92987052449574       -1.30352218173586       -2.22972346619745
H           -1.29393601144510       -1.78046337367238       -2.74312953360585
H            1.53792859494779        2.22160365779899        0.39661247809976
H            3.27209245502842        1.94558024084617        0.66769333025173
H            2.07408543248870        1.18626453305561        1.73121098591313
H            1.80450474743424        1.43028497313531       -1.99769350730960
H            2.44737715846542       -0.18750059878989       -2.32709281471810
H            3.53098442924894        1.08999491049379       -1.74359747872524
H            3.11071933974250       -1.58470934553174       -0.21185006620489
H            3.29545817962277       -0.76257199624441        1.20627834095435
H            1.38241401136792       -1.33739328870194        1.61920094949144
H           -2.58451342779964       -2.99987690467067        0.88112077314543

          :  Hamiltonian                  GFN1-xTB          :
         :: total energy             -57.818006139630 Eh    ::
         :: gradient norm              0.000465441463 Eh/a0 ::
         :: HOMO-LUMO gap              0.355848501518 eV    ::
         :: SCC energy               -58.398256645216 Eh    ::
         :: -> Gsolv                  -0.100963152499 Eh    ::
         :: repulsion energy           0.600243045654 Eh    ::

    * Orbital Energies and Occupations

         #    Occupation            Energy/Eh            Energy/eV
      -------------------------------------------------------------
         1        2.0000           -0.9134909             -24.8574
       ...           ...                  ...                  ...
        35        2.0000           -0.5499220             -14.9641
        36        2.0000           -0.5480288             -14.9126
        37        2.0000           -0.5385901             -14.6558
        38        2.0000           -0.5338293             -14.5262
        39        2.0000           -0.5285560             -14.3827
        40        2.0000           -0.5272275             -14.3466
        41        2.0000           -0.5224523             -14.2167
        42        2.0000           -0.5138491             -13.9825
        43        2.0000           -0.5066595             -13.7869
        44        2.0000           -0.5022864             -13.6679
        45        2.0000           -0.4903029             -13.3418
        46        2.0000           -0.4869603             -13.2509
        47        1.9980           -0.4348559             -11.8330 (HOMO)
        48        0.0020           -0.4217787             -11.4772 (LUMO)
        49                         -0.3307150              -8.9992
        50                         -0.3042449              -8.2789
        51                         -0.2632361              -7.1630
        52                         -0.1639715              -4.4619
        53                         -0.1527678              -4.1570
        54                         -0.1495761              -4.0702
        55                         -0.1483311              -4.0363
        56                         -0.1364519              -3.7130
        57                         -0.1278860              -3.4800
        58                         -0.0990508              -2.6953
       ...                                ...                  ...
       100                          0.7426860              20.2095
      -------------------------------------------------------------
                  HL-Gap            0.0130772 Eh            0.3558 eV

Wiberg/Mayer (AO) data.
largest (>0.10) Wiberg bond orders for each atom

     #   Z sym  total        # sym  WBO       # sym  WBO       # sym  WBO
 ---------------------------------------------------------------------------
     1   6 C    3.820 --    19 H    0.981    20 H    0.980    18 H    0.976
                             2 O    0.841
     2   8 O    2.249 --     3 C    1.212     1 C    0.841     4 O    0.147
     3   6 C    3.851 --     4 O    1.744     2 O    1.212     5 C    0.721
     4   8 O    2.080 --     3 C    1.744     2 O    0.147
     5   6 C    3.958 --    16 C    1.102     7 N    1.009     6 C    0.954
                             3 C    0.721
     6   6 C    3.966 --    22 H    0.981    21 H    0.980    23 H    0.978
                             5 C    0.954
     7   7 N    3.026 --     8 C    1.689     5 C    1.009
     8   6 C    3.900 --     7 N    1.689    13 N    1.097     9 C    0.960
     9   6 C    3.959 --    11 C    0.993    12 N    0.993    10 C    0.974
                             8 C    0.960
    10   6 C    3.990 --    24 H    0.985    26 H    0.984    25 H    0.980
                             9 C    0.974
    11   6 C    3.991 --     9 C    0.993    27 H    0.985    28 H    0.985
                            29 H    0.984
    12   7 N    2.986 --     9 C    0.993    30 H    0.932    31 H    0.931
    13   7 N    3.486 --    14 C    1.200     8 C    1.097    32 H    0.865
                            15 O    0.167
    14   6 C    3.922 --    15 O    1.630    13 N    1.200    16 C    0.979
    15   8 O    1.971 --    14 C    1.630    13 N    0.167
    16   6 C    3.806 --    17 O    1.355     5 C    1.102    14 C    0.979
    17   8 O    2.271 --    16 C    1.355    33 H    0.744
    18   1 H    0.998 --     1 C    0.976
    19   1 H    1.003 --     1 C    0.981
    20   1 H    0.998 --     1 C    0.980
    21   1 H    0.999 --     6 C    0.980
    22   1 H    0.999 --     6 C    0.981
    23   1 H    0.995 --     6 C    0.978
    24   1 H    1.001 --    10 C    0.985
    25   1 H    0.998 --    10 C    0.980
    26   1 H    0.998 --    10 C    0.984
    27   1 H    1.007 --    11 C    0.985
    28   1 H    1.002 --    11 C    0.985
    29   1 H    1.004 --    11 C    0.984
    30   1 H    0.946 --    12 N    0.932
    31   1 H    0.947 --    12 N    0.931
    32   1 H    0.911 --    13 N    0.865
    33   1 H    0.788 --    17 O    0.744
 ---------------------------------------------------------------------------

           -------------------------------------------------
          | TOTAL ENERGY              -57.818006139630 Eh   |
          | GRADIENT NORM               0.000465441463 Eh/α |
          | HOMO-LUMO GAP               0.355848501518 eV   |
           -------------------------------------------------

 * finished run on 2023/06/20 at 15:06:58.655
