   * xtb version 6.5.1 (579679a) compiled by 'ehlert@majestix' on 2022-07-11
          program call               : /lustre/hpc/kemi/ree/PhD/git/ReactivityQM/dep/xtb-6.5.1/bin/xtb --gfn 1 /lustre/hpc/kemi/ree/PhD/git/ReactivityQM/calculations/RaltegravirCLI/reac02prodN16/conf08/RaltegravirCLI_reac02prodN16_conf08_gfn1.xyz --opt --vfukui --chrg 1 --uhf 0 --alpb DMSO

   ID    Z sym.   atoms
    1    6 C      1, 3-7, 9, 11, 13-16, 19, 20, 22, 24, 25
    2    9 F      2
    3    7 N      8, 12, 17, 18
    4    8 O      10, 21, 23
    5    1 H      26-47

      * Solvation model:               ALPB
        Solvent                        DMSO
        Solvent mass                       7.8130E+01 g/mol
          :  Hamiltonian                  GFN1-xTB          :
 * total energy  :   -79.4279479 Eh     change       -0.1136868E-10 Eh
 * total energy  :   -79.4434855 Eh     change       -0.1553753E-01 Eh
 * total energy  :   -79.4483314 Eh     change       -0.4845899E-02 Eh
 * total energy  :   -79.4491967 Eh     change       -0.8653379E-03 Eh
 * total energy  :   -79.4497256 Eh     change       -0.5288619E-03 Eh
 * total energy  :   -79.4499965 Eh     change       -0.2709400E-03 Eh
 * total energy  :   -79.4501634 Eh     change       -0.1668921E-03 Eh
 * total energy  :   -79.4502696 Eh     change       -0.1062185E-03 Eh
 * total energy  :   -79.4503516 Eh     change       -0.8196984E-04 Eh
 * total energy  :   -79.4504112 Eh     change       -0.5959143E-04 Eh
 * total energy  :   -79.4504929 Eh     change       -0.3676915E-04 Eh
 * total energy  :   -79.4505109 Eh     change       -0.1790834E-04 Eh
 * total energy  :   -79.4505366 Eh     change       -0.2570207E-04 Eh
 * total energy  :   -79.4505478 Eh     change       -0.1128035E-04 Eh
 * total energy  :   -79.4505623 Eh     change       -0.1451461E-04 Eh
 * total energy  :   -79.4505781 Eh     change       -0.1570569E-04 Eh
 * total energy  :   -79.4505881 Eh     change       -0.1003253E-04 Eh
 * total energy  :   -79.4505952 Eh     change       -0.7152540E-05 Eh
 * total energy  :   -79.4506000 Eh     change       -0.4754984E-05 Eh
   *** GEOMETRY OPTIMIZATION CONVERGED AFTER 20 ITERATIONS ***

 final structure:
================
47
 xtb: 6.5.1 (579679a)
C            6.54678110895252        1.90330337318597        0.71200744511443
F            6.28753505218070        0.54793410897618        1.12460708159362
C            5.18561566347197       -0.32311680477605        0.69403338574313
C            5.39892984481147       -1.06868999324126       -0.43510617863735
C            4.35814072403553       -1.91447881637574       -0.80706958590677
C            3.18593893862840       -1.97616418045262       -0.05595141041596
C            2.05295026744513       -2.88503046565817       -0.48405166003639
N            0.92901350132990       -2.10323405920363       -0.97622133356818
C           -0.01634080199635       -1.66028586558390       -0.11512391034719
O           -0.01837287499345       -1.97753376782936        1.06778785167765
C           -1.07402272985026       -0.77327385232452       -0.69420696654333
N           -1.94425299291634       -0.27936110287803        0.23529507346925
C           -2.91180571039162        0.52103116913194       -0.08392386833524
C           -3.79619071172830        0.98173509225014        1.06815086360614
C           -5.04607543509081        0.09011927943539        1.12652576024542
C           -3.01250471770907        0.84278680583362        2.38488111780598
N           -4.19769298695195        2.37183355274109        0.88153184329405
N           -3.14538288168157        0.88966010235528       -1.38583725560189
C           -4.23566426389570        1.78125554191277       -1.79260777657041
C           -2.31229181741166        0.46480779579347       -2.40227860049769
O           -2.46487193980868        0.79657600490719       -3.57669317168351
C           -1.22980620777365       -0.41540587628411       -2.00130173338547
O           -0.43012275045151       -0.82682677972944       -3.00646168949911
C            3.04753608054127       -1.18612718335782        1.08647191699668
C            4.06469631427226       -0.32648829775336        1.48354186030563
H            6.68693514806142        1.86851911537467       -0.36429068084242
H            5.67711889975231        2.48018218121624        1.01234145853786
H            7.44848881781463        2.16792194542761        1.25561362720899
H            6.31729660395885       -1.00506999456703       -1.00057309797320
H            4.47429947178764       -2.52656503005029       -1.69290793154599
H            1.70674920051245       -3.47538639682149        0.37042641453572
H            2.38164162658696       -3.55440636599983       -1.28083884472781
H            1.01162070030500       -1.72199706194661       -1.90417302748877
H           -4.75117252358858       -0.95665512723781        1.19160422804472
H           -5.63399025369505        0.34581078230613        2.00686485144192
H           -5.66700897527410        0.22651516773224        0.24298030807561
H           -2.76599886784460       -0.20105877320372        2.57453925841164
H           -3.61717922119423        1.22308543591415        3.20619870648355
H           -2.08852675746833        1.41574571212199        2.33087253673205
H           -4.88886274432834        2.61248214415479        1.57887036920674
H           -3.39741947876948        2.97344065398558        1.02603712163304
H           -5.14485974369243        1.53399566216487       -1.25392645326722
H           -4.39355888663248        1.65594788092052       -2.86363352074916
H           -3.96049906136164        2.81301226467244       -1.58063601741952
H           -0.73750059357591       -0.41037851184549       -3.83584819803288
H            2.13917621412306       -1.23750193280384        1.67558510129642
H            3.98151375149043        0.29733546740710        2.36202173161268

          :  Hamiltonian                  GFN1-xTB          :
         :: total energy             -79.450599994652 Eh    ::
         :: gradient norm              0.000662494210 Eh/a0 ::
         :: HOMO-LUMO gap              2.598975103677 eV    ::
         :: SCC energy               -80.349156717649 Eh    ::
         :: -> Gsolv                  -0.111992352109 Eh    ::
         :: repulsion energy           0.927719646189 Eh    ::

    * Orbital Energies and Occupations

         #    Occupation            Energy/Eh            Energy/eV
      -------------------------------------------------------------
         1        2.0000           -1.0103209             -27.4922
       ...           ...                  ...                  ...
        55        2.0000           -0.5102466             -13.8845
        56        2.0000           -0.5027248             -13.6798
        57        2.0000           -0.4950151             -13.4700
        58        2.0000           -0.4923901             -13.3986
        59        2.0000           -0.4886911             -13.2980
        60        2.0000           -0.4871818             -13.2569
        61        2.0000           -0.4723115             -12.8523
        62        2.0000           -0.4684392             -12.7469
        63        2.0000           -0.4528854             -12.3236
        64        2.0000           -0.4478707             -12.1872
        65        2.0000           -0.4392191             -11.9518
        66        2.0000           -0.4244467             -11.5498
        67        2.0000           -0.4147006             -11.2846 (HOMO)
        68                         -0.3191900              -8.6856 (LUMO)
        69                         -0.3153655              -8.5815
        70                         -0.3145992              -8.5607
        71                         -0.2772273              -7.5437
        72                         -0.2609057              -7.0996
        73                         -0.2336695              -6.3585
        74                         -0.1933233              -5.2606
        75                         -0.1846879              -5.0256
        76                         -0.1525343              -4.1507
        77                         -0.1451678              -3.9502
        78                         -0.1438165              -3.9134
       ...                                ...                  ...
       144                          0.7107197              19.3397
      -------------------------------------------------------------
                  HL-Gap            0.0955106 Eh            2.5990 eV

Wiberg/Mayer (AO) data.
largest (>0.10) Wiberg bond orders for each atom

     #   Z sym  total        # sym  WBO       # sym  WBO       # sym  WBO
 ---------------------------------------------------------------------------
     1   6 C    3.676 --    27 H    0.980    26 H    0.980    28 H    0.974
                             2 F    0.716
     2   9 F    1.438 --     1 C    0.716     3 C    0.635
     3   6 C    3.690 --     4 C    1.438    25 C    1.429     2 F    0.635
     4   6 C    3.984 --     3 C    1.438     5 C    1.417    29 H    0.961
                            24 C    0.112
     5   6 C    3.987 --     6 C    1.424     4 C    1.417    30 H    0.965
                            25 C    0.109
     6   6 C    3.984 --     5 C    1.424    24 C    1.413     7 C    0.995
     7   6 C    3.952 --     6 C    0.995    32 H    0.976    31 H    0.962
                             8 N    0.950
     8   7 N    3.328 --     9 C    1.243     7 C    0.950    33 H    0.884
                            10 O    0.164
     9   6 C    3.902 --    10 O    1.578     8 N    1.243    11 C    0.998
    10   8 O    1.888 --     9 C    1.578     8 N    0.164
    11   6 C    3.965 --    22 C    1.505    12 N    1.196     9 C    0.998
    12   7 N    3.030 --    13 C    1.565    11 C    1.196
    13   6 C    3.922 --    12 N    1.565    18 N    1.171    14 C    0.976
    14   6 C    3.966 --    16 C    0.988    17 N    0.985    15 C    0.981
                            13 C    0.976
    15   6 C    3.993 --    34 H    0.986    35 H    0.983    14 C    0.981
                            36 H    0.980
    16   6 C    3.994 --    14 C    0.988    38 H    0.986    39 H    0.985
                            37 H    0.983
    17   7 N    2.977 --    14 C    0.985    41 H    0.942    40 H    0.938
    18   7 N    3.517 --    13 C    1.171    20 C    1.140    19 C    0.926
                            21 O    0.134
    19   6 C    3.920 --    42 H    0.978    43 H    0.976    44 H    0.975
                            18 N    0.926
    20   6 C    3.918 --    21 O    1.538    18 N    1.140    22 C    1.089
    21   8 O    1.889 --    20 C    1.538    18 N    0.134
    22   6 C    3.916 --    11 C    1.505    20 C    1.089    23 O    1.073
    23   8 O    2.065 --    22 C    1.073    45 H    0.798
    24   6 C    3.983 --    25 C    1.427     6 C    1.413    46 H    0.960
                             4 C    0.112
    25   6 C    3.984 --     3 C    1.429    24 C    1.427    47 H    0.961
                             5 C    0.109
    26   1 H    0.993 --     1 C    0.980
    27   1 H    0.993 --     1 C    0.980
    28   1 H    0.991 --     1 C    0.974
    29   1 H    0.989 --     4 C    0.961
    30   1 H    0.994 --     5 C    0.965
    31   1 H    1.007 --     7 C    0.962
    32   1 H    1.000 --     7 C    0.976
    33   1 H    0.942 --     8 N    0.884
    34   1 H    1.004 --    15 C    0.986
    35   1 H    1.000 --    15 C    0.983
    36   1 H    1.005 --    15 C    0.980
    37   1 H    1.014 --    16 C    0.983
    38   1 H    1.003 --    16 C    0.986
    39   1 H    1.008 --    16 C    0.985
    40   1 H    0.953 --    17 N    0.938
    41   1 H    0.957 --    17 N    0.942
    42   1 H    1.022 --    19 C    0.978
    43   1 H    1.009 --    19 C    0.976
    44   1 H    1.017 --    19 C    0.975
    45   1 H    0.844 --    23 O    0.798
    46   1 H    1.007 --    24 C    0.960
    47   1 H    0.990 --    25 C    0.961
 ---------------------------------------------------------------------------

           -------------------------------------------------
          | TOTAL ENERGY              -79.450599994652 Eh   |
          | GRADIENT NORM               0.000662494210 Eh/α |
          | HOMO-LUMO GAP               2.598975103677 eV   |
           -------------------------------------------------

 * finished run on 2023/06/20 at 15:39:14.572
