   * xtb version 6.5.1 (579679a) compiled by 'ehlert@majestix' on 2022-07-11
          program call               : /lustre/hpc/kemi/ree/PhD/git/ReactivityQM/dep/xtb-6.5.1/bin/xtb --gfn 1 /lustre/hpc/kemi/ree/PhD/git/ReactivityQM/calculations/R01/reac02prodN03/conf08/R01_reac02prodN03_conf08_gfn1.xyz --opt --vfukui --chrg 1 --uhf 0 --alpb DMSO

   ID    Z sym.   atoms
    1    6 C      1, 3, 5, 7-10, 13, 15, 17
    2    8 O      2, 4, 14, 16
    3    7 N      6, 11, 12
    4    1 H      18-33

      * Solvation model:               ALPB
        Solvent                        DMSO
        Solvent mass                       7.8130E+01 g/mol
          :  Hamiltonian                  GFN1-xTB          :
 * total energy  :   -57.8026344 Eh     change       -0.2721379E-11 Eh
 * total energy  :   -57.8164234 Eh     change       -0.1378899E-01 Eh
 * total energy  :   -57.8225638 Eh     change       -0.6140351E-02 Eh
 * total energy  :   -57.8247196 Eh     change       -0.2155859E-02 Eh
 * total energy  :   -57.8275338 Eh     change       -0.2814156E-02 Eh
 * total energy  :   -57.8289282 Eh     change       -0.1394433E-02 Eh
 * total energy  :   -57.8312957 Eh     change       -0.2367499E-02 Eh
 * total energy  :   -57.8349877 Eh     change       -0.3691961E-02 Eh
 * total energy  :   -57.8384973 Eh     change       -0.3509583E-02 Eh
 * total energy  :   -57.8408295 Eh     change       -0.2332250E-02 Eh
 * total energy  :   -57.8484106 Eh     change       -0.4318730E-04 Eh
 * total energy  :   -57.8484510 Eh     change       -0.4038736E-04 Eh
 * total energy  :   -57.8484859 Eh     change       -0.3495258E-04 Eh
 * total energy  :   -57.8485130 Eh     change       -0.2709466E-04 Eh
 * total energy  :   -57.8485221 Eh     change       -0.9049789E-05 Eh
 * total energy  :   -57.8485383 Eh     change       -0.1625700E-04 Eh
 * total energy  :   -57.8485435 Eh     change       -0.5140742E-05 Eh
 * total energy  :   -57.8485540 Eh     change       -0.1049724E-04 Eh
 * total energy  :   -57.8485579 Eh     change       -0.3981290E-05 Eh
   *** GEOMETRY OPTIMIZATION CONVERGED AFTER 32 ITERATIONS ***

 final structure:
================
33
 xtb: 6.5.1 (579679a)
C            3.09668879696308        3.02175927501457       -0.92683031250586
O            2.00996205030487        2.13109813015193       -0.61114153148187
C            2.19620211947174        0.86407961678898       -0.62649938048158
O            3.37329965722151        0.42804685682308       -0.92906375140920
C            1.07610100257236        0.00916782084285       -0.30326551972955
N           -0.08519272364841        0.67678540773805       -0.01202283816906
C           -1.14418609421464        0.00044947391022        0.29059772402058
C           -2.42644757527509        0.74144223327395        0.63056754904174
C           -2.68600277706549        0.60989334459680        2.13868471662386
C           -3.60494274181199        0.18571074535371       -0.17754266541130
N           -2.26088952748052        2.14811765256238        0.30624108020193
N           -1.12875529365920       -1.36310594068756        0.33461009438697
C           -0.03939759400028       -2.15606029684783        0.05683556228968
O           -0.11618187597908       -3.36783159175855        0.11241961702144
C            1.16039270114708       -1.37519111297520       -0.29282724453981
O            2.31869777148736       -1.95077984923454       -0.59570370398305
C            2.49787174198567       -3.38179331208575       -0.62761405835036
H            3.44029614080157        2.82608955836254       -1.94323524925724
H            3.91281817459726        2.86045035341857       -0.22178231494072
H            2.69415990105578        4.02797052330566       -0.83660431275259
H           -1.83892731106686        1.00410443636941        2.69832988496102
H           -3.57851339161396        1.17796462682859        2.39853050513239
H           -2.83416066132778       -0.43357954026215        2.41041977124713
H           -3.84347188996377       -0.83015364256990        0.13195471536140
H           -3.36677805677400        0.18508312864047       -1.24019505472686
H           -4.47698509153276        0.81743046944394       -0.01127535877817
H           -1.44664900017814        2.50017940157347        0.79682979270350
H           -2.06847230933885        2.23234062462154       -0.68434045916760
H           -1.96873653763774       -1.87191513739146        0.57840018965812
H            3.46024807923264       -0.55065129083237       -0.92229614228200
H            1.83080983756102       -3.82759254547278       -1.36601295931206
H            2.31044677777330       -3.80645080596204        0.35902000960893
H            3.53669570039410       -3.53305761354111       -0.91518635498025

          :  Hamiltonian                  GFN1-xTB          :
         :: total energy             -57.848557943944 Eh    ::
         :: gradient norm              0.000762167853 Eh/a0 ::
         :: HOMO-LUMO gap              1.176291384901 eV    ::
         :: SCC energy               -58.420778591246 Eh    ::
         :: -> Gsolv                  -0.093563659090 Eh    ::
         :: repulsion energy           0.590472351426 Eh    ::

    * Orbital Energies and Occupations

         #    Occupation            Energy/Eh            Energy/eV
      -------------------------------------------------------------
         1        2.0000           -0.9100283             -24.7631
       ...           ...                  ...                  ...
        35        2.0000           -0.5493926             -14.9497
        36        2.0000           -0.5423600             -14.7584
        37        2.0000           -0.5409175             -14.7191
        38        2.0000           -0.5246356             -14.2761
        39        2.0000           -0.5195644             -14.1381
        40        2.0000           -0.5142546             -13.9936
        41        2.0000           -0.5136686             -13.9776
        42        2.0000           -0.5030881             -13.6897
        43        2.0000           -0.4955497             -13.4846
        44        2.0000           -0.4844678             -13.1830
        45        2.0000           -0.4775184             -12.9939
        46        2.0000           -0.4578145             -12.4578
        47        2.0000           -0.4256532             -11.5826 (HOMO)
        48                         -0.3824253             -10.4063 (LUMO)
        49                         -0.3097698              -8.4293
        50                         -0.2884354              -7.8487
        51                         -0.1970812              -5.3629
        52                         -0.1646699              -4.4809
        53                         -0.1491276              -4.0580
        54                         -0.1455501              -3.9606
        55                         -0.1345904              -3.6624
        56                         -0.1318654              -3.5882
        57                         -0.1188360              -3.2337
        58                         -0.1006129              -2.7378
       ...                                ...                  ...
       100                          0.6848177              18.6348
      -------------------------------------------------------------
                  HL-Gap            0.0432279 Eh            1.1763 eV

Wiberg/Mayer (AO) data.
largest (>0.10) Wiberg bond orders for each atom

     #   Z sym  total        # sym  WBO       # sym  WBO       # sym  WBO
 ---------------------------------------------------------------------------
     1   6 C    3.821 --    20 H    0.982    19 H    0.972    18 H    0.972
                             2 O    0.853
     2   8 O    2.319 --     3 C    1.285     1 C    0.853
     3   6 C    3.811 --     2 O    1.285     4 O    1.249     5 C    1.119
     4   8 O    2.194 --     3 C    1.249    30 H    0.744
     5   6 C    3.960 --    15 C    1.411     6 N    1.172     3 C    1.119
     6   7 N    3.025 --     7 C    1.574     5 C    1.172
     7   6 C    3.905 --     6 N    1.574    12 N    1.168     8 C    0.970
     8   6 C    3.967 --    11 N    1.001    10 C    0.986     9 C    0.976
                             7 C    0.970
     9   6 C    3.991 --    23 H    0.985    21 H    0.985    22 H    0.982
                             8 C    0.976
    10   6 C    3.992 --     8 C    0.986    25 H    0.985    24 H    0.983
                            26 H    0.982
    11   7 N    2.955 --     8 C    1.001    28 H    0.942    27 H    0.941
    12   7 N    3.477 --     7 C    1.168    13 C    1.143    29 H    0.876
                            14 O    0.142
    13   6 C    3.915 --    14 O    1.608    12 N    1.143    15 C    1.039
    14   8 O    1.938 --    13 C    1.608    12 N    0.142
    15   6 C    3.906 --     5 C    1.411    16 O    1.134    13 C    1.039
    16   8 O    2.248 --    15 C    1.134    17 C    0.855
    17   6 C    3.830 --    33 H    0.983    31 H    0.975    32 H    0.974
                            16 O    0.855
    18   1 H    0.997 --     1 C    0.972
    19   1 H    0.997 --     1 C    0.972
    20   1 H    1.002 --     1 C    0.982
    21   1 H    1.000 --     9 C    0.985
    22   1 H    1.002 --     9 C    0.982
    23   1 H    1.000 --     9 C    0.985
    24   1 H    0.999 --    10 C    0.983
    25   1 H    0.999 --    10 C    0.985
    26   1 H    1.002 --    10 C    0.982
    27   1 H    0.967 --    11 N    0.941
    28   1 H    0.962 --    11 N    0.942
    29   1 H    0.923 --    12 N    0.876
    30   1 H    0.807 --     4 O    0.744
    31   1 H    1.007 --    17 C    0.975
    32   1 H    1.008 --    17 C    0.974
    33   1 H    1.005 --    17 C    0.983
 ---------------------------------------------------------------------------

           -------------------------------------------------
          | TOTAL ENERGY              -57.848557943944 Eh   |
          | GRADIENT NORM               0.000762167853 Eh/α |
          | HOMO-LUMO GAP               1.176291384901 eV   |
           -------------------------------------------------

 * finished run on 2023/06/20 at 15:05:08.322
