   * xtb version 6.5.1 (579679a) compiled by 'ehlert@majestix' on 2022-07-11
          program call               : /lustre/hpc/kemi/ree/PhD/git/ReactivityQM/dep/xtb-6.5.1/bin/xtb --gfn 1 /lustre/hpc/kemi/ree/PhD/git/ReactivityQM/calculations/R03/reac01prodN04/conf10/R03_reac01prodN04_conf10_gfn1.xyz --opt --vfukui --chrg 1 --uhf 0 --alpb DMSO

   ID    Z sym.   atoms
    1    6 C      1-5, 7-9
    2    7 N      6
    3    9 F      10
    4    1 H      11-21

      * Solvation model:               ALPB
        Solvent                        DMSO
        Solvent mass                       7.8130E+01 g/mol
          :  Hamiltonian                  GFN1-xTB          :
 * total energy  :   -30.7636159 Eh     change       -0.2322409E-10 Eh
 * total energy  :   -30.7680636 Eh     change       -0.4447631E-02 Eh
 * total energy  :   -30.7694413 Eh     change       -0.1377779E-02 Eh
 * total energy  :   -30.7696052 Eh     change       -0.1638947E-03 Eh
 * total energy  :   -30.7697038 Eh     change       -0.9855894E-04 Eh
 * total energy  :   -30.7697298 Eh     change       -0.2600699E-04 Eh
 * total energy  :   -30.7697550 Eh     change       -0.2524979E-04 Eh
 * total energy  :   -30.7697639 Eh     change       -0.8835375E-05 Eh
 * total energy  :   -30.7697696 Eh     change       -0.5752847E-05 Eh
 * total energy  :   -30.7697721 Eh     change       -0.2513988E-05 Eh
   *** GEOMETRY OPTIMIZATION CONVERGED AFTER 10 ITERATIONS ***

 final structure:
================
21
 xtb: 6.5.1 (579679a)
C           -2.20839492985750       -1.36846788022823       -0.58385996361807
C           -1.53924289553526       -0.19825747317827        0.18553268008078
C           -0.19899426449964       -0.52397180198852        0.70164949108615
C            0.87778402723591        0.31093501431966        0.55026237426610
C            2.25647124571077       -0.09071767835776        1.03598273609952
N            2.95163449533648       -0.80773101484817       -0.02347584767385
C            0.71007674583200        1.51944158823107       -0.16090042548404
C           -0.51520807165321        1.90902282324575       -0.69557262540990
C           -1.59148185530127        1.07348886461923       -0.54214375197275
F           -2.75043609939993        1.40369047349695       -1.04505259056663
H           -3.22364388475433       -1.08675354142576       -0.85471108465779
H           -2.22970820799537       -2.24987233073816        0.05244705954399
H           -1.63441731706379       -1.58108474017710       -1.48262983042128
H           -2.17949109678634       -0.05935224468532        1.07773573906894
H           -0.09993985742183       -1.46686754361358        1.22731157366015
H            2.83437938780008        0.79721289871912        1.30165812404992
H            2.17224947482019       -0.74306547238726        1.90766121005723
H            2.41558585591865       -1.62861955471486       -0.26993937583624
H            3.00285233569837       -0.21883197320933       -0.84372980027627
H            1.56799923833564        2.16876647338674       -0.30004412162438
H           -0.61807432641950        2.84103511353355       -1.23818057037131

          :  Hamiltonian                  GFN1-xTB          :
         :: total energy             -30.769772144425 Eh    ::
         :: gradient norm              0.000419662998 Eh/a0 ::
         :: HOMO-LUMO gap              0.435529422623 eV    ::
         :: SCC energy               -31.161336464419 Eh    ::
         :: -> Gsolv                  -0.086606045488 Eh    ::
         :: repulsion energy           0.401605219478 Eh    ::

    * Orbital Energies and Occupations

         #    Occupation            Energy/Eh            Energy/eV
      -------------------------------------------------------------
         1        2.0000           -0.9464751             -25.7549
       ...           ...                  ...                  ...
        15        2.0000           -0.5983201             -16.2811
        16        2.0000           -0.5980653             -16.2742
        17        2.0000           -0.5842438             -15.8981
        18        2.0000           -0.5770423             -15.7021
        19        2.0000           -0.5643928             -15.3579
        20        2.0000           -0.5591882             -15.2163
        21        2.0000           -0.5498343             -14.9618
        22        2.0000           -0.5415989             -14.7377
        23        2.0000           -0.5347999             -14.5526
        24        2.0000           -0.5305326             -14.4365
        25        2.0000           -0.5107571             -13.8984
        26        2.0000           -0.5035654             -13.7027
        27        1.9996           -0.4332558             -11.7895 (HOMO)
        28        0.0004           -0.4172504             -11.3540 (LUMO)
        29                         -0.3279783              -8.9247
        30                         -0.2486144              -6.7651
        31                         -0.1586004              -4.3157
        32                         -0.1514316              -4.1207
        33                         -0.1461127              -3.9759
        34                         -0.1436100              -3.9078
        35                         -0.1326223              -3.6088
        36                         -0.1198382              -3.2610
        37                         -0.1013191              -2.7570
        38                         -0.0905886              -2.4650
       ...                                ...                  ...
        62                          0.5383868              14.6503
      -------------------------------------------------------------
                  HL-Gap            0.0160054 Eh            0.4355 eV

Wiberg/Mayer (AO) data.
largest (>0.10) Wiberg bond orders for each atom

     #   Z sym  total        # sym  WBO       # sym  WBO       # sym  WBO
 ---------------------------------------------------------------------------
     1   6 C    3.963 --    13 H    0.983    12 H    0.982    11 H    0.981
                             2 C    0.910
     2   6 C    3.989 --     3 C    1.086     9 C    1.072     1 C    0.910
                            14 H    0.834
     3   6 C    3.957 --     4 C    1.552     2 C    1.086    15 H    0.963
     4   6 C    3.973 --     3 C    1.552     7 C    1.306     5 C    0.988
     5   6 C    3.973 --     6 N    0.993     4 C    0.988    17 H    0.975
                            16 H    0.975
     6   7 N    2.973 --     5 C    0.993    18 H    0.943    19 H    0.942
     7   6 C    3.940 --     8 C    1.408     4 C    1.306    20 H    0.964
     8   6 C    3.982 --     9 C    1.463     7 C    1.408    21 H    0.955
     9   6 C    3.840 --     8 C    1.463     2 C    1.072    10 F    1.034
    10   9 F    1.203 --     9 C    1.034
    11   1 H    0.995 --     1 C    0.981
    12   1 H    0.992 --     1 C    0.982
    13   1 H    0.994 --     1 C    0.983
    14   1 H    0.976 --     2 C    0.834
    15   1 H    0.989 --     3 C    0.963
    16   1 H    1.004 --     5 C    0.975
    17   1 H    1.003 --     5 C    0.975
    18   1 H    0.955 --     6 N    0.943
    19   1 H    0.954 --     6 N    0.942
    20   1 H    0.990 --     7 C    0.964
    21   1 H    0.984 --     8 C    0.955
 ---------------------------------------------------------------------------

           -------------------------------------------------
          | TOTAL ENERGY              -30.769772144425 Eh   |
          | GRADIENT NORM               0.000419662998 Eh/α |
          | HOMO-LUMO GAP               0.435529422623 eV   |
           -------------------------------------------------

 * finished run on 2023/06/20 at 15:14:33.635
