   * xtb version 6.5.1 (579679a) compiled by 'ehlert@majestix' on 2022-07-11
          program call               : /lustre/hpc/kemi/ree/PhD/git/ReactivityQM/dep/xtb-6.5.1/bin/xtb --gfn 1 /lustre/hpc/kemi/ree/PhD/git/ReactivityQM/calculations/RaltegravirCLI/reac02prodN07/conf08/RaltegravirCLI_reac02prodN07_conf08_gfn1.xyz --opt --vfukui --chrg 1 --uhf 0 --alpb DMSO

   ID    Z sym.   atoms
    1    6 C      1, 3-6, 9-11, 14-18, 20-22, 24
    2    7 N      2, 7, 8, 13
    3    8 O      12, 23, 25
    4    9 F      19
    5    1 H      26-47

      * Solvation model:               ALPB
        Solvent                        DMSO
        Solvent mass                       7.8130E+01 g/mol
          :  Hamiltonian                  GFN1-xTB          :
 * total energy  :   -79.3774165 Eh     change       -0.9632117E-10 Eh
 * total energy  :   -79.3873040 Eh     change       -0.9887553E-02 Eh
 * total energy  :   -79.3907304 Eh     change       -0.3426362E-02 Eh
 * total energy  :   -79.3913089 Eh     change       -0.5785561E-03 Eh
 * total energy  :   -79.3918089 Eh     change       -0.4999228E-03 Eh
 * total energy  :   -79.3923259 Eh     change       -0.5170485E-03 Eh
 * total energy  :   -79.3930284 Eh     change       -0.7025025E-03 Eh
 * total energy  :   -79.3942364 Eh     change       -0.1207994E-02 Eh
 * total energy  :   -79.3967493 Eh     change       -0.2512900E-02 Eh
 * total energy  :   -79.4009442 Eh     change       -0.4194901E-02 Eh
 * total energy  :   -79.5168067 Eh     change       -0.1456329E-04 Eh
 * total energy  :   -79.5168171 Eh     change       -0.1038445E-04 Eh
 * total energy  :   -79.5168391 Eh     change       -0.2194578E-04 Eh
 * total energy  :   -79.5168559 Eh     change       -0.1686243E-04 Eh
 * total energy  :   -79.5168733 Eh     change       -0.1740567E-04 Eh
 * total energy  :   -79.5168917 Eh     change       -0.1832952E-04 Eh
 * total energy  :   -79.5169035 Eh     change       -0.1184013E-04 Eh
 * total energy  :   -79.5169094 Eh     change       -0.5866391E-05 Eh
 * total energy  :   -79.5169133 Eh     change       -0.3887347E-05 Eh
   *** GEOMETRY OPTIMIZATION CONVERGED AFTER 131 ITERATIONS ***

 final structure:
================
47
 xtb: 6.5.1 (579679a)
C           -2.86886403306744        0.93164306055693       -2.24635836227426
N           -1.78709702463628        0.25810365342258       -1.51412166221797
C           -1.59540570318807        0.41315012523674       -0.17304622800416
C           -2.50659755003699        1.25361653688126        0.70978622950541
C           -3.72778696412321        0.39811130553130        1.08344546908457
C           -1.75033196940161        1.64750691188610        1.98978467727558
N           -2.94568218415707        2.45354188557841        0.01204726593366
N           -0.63548423925510       -0.21809648573290        0.45664506835191
C            0.17971911252990       -1.02420152767825       -0.23761848938902
C            0.57548920229204       -2.85940578562764        1.29825368076240
C            0.13738638737572       -3.96638705067839        0.42236211101160
O            0.47004803631526       -2.74355132852471        2.46803903126894
N            1.23033279707139       -1.71221724875209        0.52221465870594
C            1.96137765301030       -0.78314397714626        1.44888611493703
C            2.75722885664333        0.20352745090664        0.63919004553236
C            2.29138084096931        1.50341336159336        0.45587161982353
C            3.03045525399860        2.41568239139621       -0.28248048774934
C            4.22893935122325        1.99778896574081       -0.83433169640792
F            4.94577212914555        2.87210517918278       -1.54645749901370
C            4.71449007001490        0.71062471805681       -0.67916987841768
C            3.96747580076459       -0.18789543014378        0.06741121461894
C            0.07717835806258       -1.23338134120768       -1.57014578750146
O            0.91210076701672       -2.07304544539364       -2.21324451079328
C           -0.95734882689555       -0.53805592857049       -2.30656512637801
O           -1.09853602769503       -0.64909189343505       -3.51425820194468
H           -3.78563851752882        0.89754127283431       -1.66735324343577
H           -3.00799295277072        0.41372674200949       -3.19464313435667
H           -2.59078860708204        1.96818463890643       -2.42701864350477
H           -4.36899618217931        0.96079301992856        1.76041957058854
H           -4.30266824397953        0.12830772399187        0.19944525556585
H           -3.40054425398572       -0.51290702573792        1.58225487793009
H           -1.48854339257608        0.76401865815597        2.56973081832312
H           -0.83743591900967        2.18280949826919        1.73290332389541
H           -2.38239428400641        2.29675424879883        2.59322940682162
H           -3.68539829072229        2.89207736406659        0.54420216106899
H           -2.17666389194546        3.10834526392633       -0.04247250851299
H            0.71555203375205       -4.02019368189023       -0.49637809062585
H            0.19874726437456       -4.90201080570992        0.97678390493822
H           -0.90929575717883       -3.79546809241945        0.16380129327371
H            1.88059180805980       -2.11709789810270       -0.15688020664404
H            2.60213138467441       -1.41024704154176        2.07047834019829
H            1.20237292161118       -0.29937600855839        2.06522250444331
H            1.34612976350993        1.80277648752521        0.89179174383503
H            2.68511481090333        3.43043720830980       -0.42903569958366
H            5.65483691037018        0.42056167794234       -1.12964688444573
H            4.32816492354230       -1.19919747559158        0.20979596310195
H            0.71648137818236       -2.08017487818381       -3.16764400961210

          :  Hamiltonian                  GFN1-xTB          :
         :: total energy             -79.516913264263 Eh    ::
         :: gradient norm              0.000483468807 Eh/a0 ::
         :: HOMO-LUMO gap              2.123905470311 eV    ::
         :: SCC energy               -80.419815931197 Eh    ::
         :: -> Gsolv                  -0.103453760209 Eh    ::
         :: repulsion energy           0.936768600681 Eh    ::

    * Orbital Energies and Occupations

         #    Occupation            Energy/Eh            Energy/eV
      -------------------------------------------------------------
         1        2.0000           -0.8944791             -24.3400
       ...           ...                  ...                  ...
        55        2.0000           -0.5235552             -14.2467
        56        2.0000           -0.5168870             -14.0652
        57        2.0000           -0.5138452             -13.9824
        58        2.0000           -0.5096172             -13.8674
        59        2.0000           -0.5024712             -13.6729
        60        2.0000           -0.4917525             -13.3813
        61        2.0000           -0.4879779             -13.2786
        62        2.0000           -0.4815515             -13.1037
        63        2.0000           -0.4780453             -13.0083
        64        2.0000           -0.4705088             -12.8032
        65        2.0000           -0.4587520             -12.4833
        66        2.0000           -0.4485746             -12.2063
        67        2.0000           -0.4249166             -11.5626 (HOMO)
        68                         -0.3468645              -9.4387 (LUMO)
        69                         -0.3230485              -8.7906
        70                         -0.3010413              -8.1918
        71                         -0.2923565              -7.9554
        72                         -0.2905070              -7.9051
        73                         -0.1980760              -5.3899
        74                         -0.1736123              -4.7242
        75                         -0.1675601              -4.5595
        76                         -0.1569301              -4.2703
        77                         -0.1447416              -3.9386
        78                         -0.1406113              -3.8262
       ...                                ...                  ...
       144                          0.7280530              19.8113
      -------------------------------------------------------------
                  HL-Gap            0.0780521 Eh            2.1239 eV

Wiberg/Mayer (AO) data.
largest (>0.10) Wiberg bond orders for each atom

     #   Z sym  total        # sym  WBO       # sym  WBO       # sym  WBO
 ---------------------------------------------------------------------------
     1   6 C    3.907 --    26 H    0.977    27 H    0.975    28 H    0.973
                             2 N    0.918
     2   7 N    3.525 --     3 C    1.225    24 C    1.104     1 C    0.918
                            25 O    0.131
     3   6 C    3.911 --     8 N    1.484     2 N    1.225     4 C    0.978
     4   6 C    3.964 --     7 N    0.989     6 C    0.987     3 C    0.978
                             5 C    0.975
     5   6 C    3.991 --    31 H    0.985    29 H    0.981    30 H    0.980
                             4 C    0.975
     6   6 C    3.993 --     4 C    0.987    34 H    0.984    32 H    0.983
                            33 H    0.982
     7   7 N    2.977 --     4 C    0.989    36 H    0.939    35 H    0.935
     8   7 N    3.031 --     3 C    1.484     9 C    1.250
     9   6 C    3.901 --    22 C    1.515     8 N    1.250    13 N    0.888
    10   6 C    3.815 --    12 O    1.873    11 C    1.033    13 N    0.817
    11   6 C    3.976 --    10 C    1.033    37 H    0.969    38 H    0.956
                            39 H    0.929
    12   8 O    2.089 --    10 C    1.873
    13   7 N    3.609 --     9 C    0.888    40 H    0.875    14 C    0.869
                            10 C    0.817
    14   6 C    3.886 --    15 C    1.006    42 H    0.970    41 H    0.969
                            13 N    0.869
    15   6 C    3.984 --    16 C    1.417    21 C    1.412    14 C    1.006
    16   6 C    3.993 --    17 C    1.446    15 C    1.417    43 H    0.967
                            20 C    0.109
    17   6 C    3.991 --    16 C    1.446    18 C    1.397    44 H    0.967
                            21 C    0.109
    18   6 C    3.865 --    17 C    1.397    20 C    1.395    19 F    0.940
    19   9 F    1.073 --    18 C    0.940
    20   6 C    3.991 --    21 C    1.449    18 C    1.395    45 H    0.967
                            16 C    0.109
    21   6 C    3.993 --    20 C    1.449    15 C    1.412    46 H    0.969
                            17 C    0.109
    22   6 C    3.924 --     9 C    1.515    24 C    1.088    23 O    1.072
    23   8 O    2.053 --    22 C    1.072    47 H    0.794
    24   6 C    3.921 --    25 O    1.577     2 N    1.104    22 C    1.088
    25   8 O    1.917 --    24 C    1.577     2 N    0.131
    26   1 H    1.020 --     1 C    0.977
    27   1 H    1.005 --     1 C    0.975
    28   1 H    1.014 --     1 C    0.973
    29   1 H    0.997 --     5 C    0.981
    30   1 H    1.003 --     5 C    0.980
    31   1 H    1.003 --     5 C    0.985
    32   1 H    1.011 --     6 C    0.983
    33   1 H    1.007 --     6 C    0.982
    34   1 H    1.001 --     6 C    0.984
    35   1 H    0.949 --     7 N    0.935
    36   1 H    0.954 --     7 N    0.939
    37   1 H    0.996 --    11 C    0.969
    38   1 H    0.987 --    11 C    0.956
    39   1 H    0.988 --    11 C    0.929
    40   1 H    0.937 --    13 N    0.875
    41   1 H    0.997 --    14 C    0.969
    42   1 H    1.009 --    14 C    0.970
    43   1 H    1.005 --    16 C    0.967
    44   1 H    0.995 --    17 C    0.967
    45   1 H    0.995 --    20 C    0.967
    46   1 H    0.995 --    21 C    0.969
    47   1 H    0.825 --    23 O    0.794
 ---------------------------------------------------------------------------

           -------------------------------------------------
          | TOTAL ENERGY              -79.516913264263 Eh   |
          | GRADIENT NORM               0.000483468807 Eh/α |
          | HOMO-LUMO GAP               2.123905470311 eV   |
           -------------------------------------------------

 * finished run on 2023/06/20 at 15:25:41.713
