   * xtb version 6.5.1 (579679a) compiled by 'ehlert@majestix' on 2022-07-11
          program call               : /lustre/hpc/kemi/ree/PhD/git/ReactivityQM/dep/xtb-6.5.1/bin/xtb --gfn 1 /lustre/hpc/kemi/ree/PhD/git/ReactivityQM/calculations/R02/reac01prodN10/conf02/R02_reac01prodN10_conf02_gfn1.xyz --opt --vfukui --chrg 1 --uhf 0 --alpb DMSO

   ID    Z sym.   atoms
    1    6 C      1, 3, 5, 6, 8, 11-15, 17, 19, 22, 23
    2    8 O      2, 4, 7, 9, 18, 24
    3    7 N      10, 16, 20, 21, 25
    4    1 H      26-43

      * Solvation model:               ALPB
        Solvent                        DMSO
        Solvent mass                       7.8130E+01 g/mol
          :  Hamiltonian                  GFN1-xTB          :
 * total energy  :   -83.0839551 Eh     change       -0.1026734E-09 Eh
 * total energy  :   -83.1034061 Eh     change       -0.1945094E-01 Eh
 * total energy  :   -83.1119127 Eh     change       -0.8506665E-02 Eh
 * total energy  :   -83.1138158 Eh     change       -0.1903015E-02 Eh
 * total energy  :   -83.1150084 Eh     change       -0.1192679E-02 Eh
 * total energy  :   -83.1155695 Eh     change       -0.5610213E-03 Eh
 * total energy  :   -83.1160156 Eh     change       -0.4460986E-03 Eh
 * total energy  :   -83.1164251 Eh     change       -0.4095687E-03 Eh
 * total energy  :   -83.1168022 Eh     change       -0.3770942E-03 Eh
 * total energy  :   -83.1171464 Eh     change       -0.3441749E-03 Eh
 * total energy  :   -83.1203475 Eh     change       -0.1242292E-04 Eh
 * total energy  :   -83.1203598 Eh     change       -0.1237179E-04 Eh
 * total energy  :   -83.1203697 Eh     change       -0.9853909E-05 Eh
 * total energy  :   -83.1203702 Eh     change       -0.5370424E-06 Eh
 * total energy  :   -83.1203799 Eh     change       -0.9638239E-05 Eh
 * total energy  :   -83.1203872 Eh     change       -0.7319046E-05 Eh
 * total energy  :   -83.1203926 Eh     change       -0.5466776E-05 Eh
 * total energy  :   -83.1203975 Eh     change       -0.4822871E-05 Eh
 * total energy  :   -83.1204023 Eh     change       -0.4808776E-05 Eh
   *** GEOMETRY OPTIMIZATION CONVERGED AFTER 59 ITERATIONS ***

 final structure:
================
43
 xtb: 6.5.1 (579679a)
C           -4.09066216333671        3.61789765816294       -3.69501950494815
O           -3.70411275316711        2.43193648851084       -2.96440190863330
C           -2.42170384023021        2.33389568418215       -2.64127944037866
O           -1.58058159556235        3.14723533064962       -2.90259663698263
C           -2.11601108004373        1.05943566626479       -1.88054866951155
C           -3.09390227126366        0.14121339190603       -1.42885708287653
O           -4.36150614466342        0.25990942796781       -1.60606516646577
C           -2.66558848902962       -1.09304174331678       -0.69437376393069
O           -3.43030298444461       -1.94302067279147       -0.30609078157885
N           -1.31751926754252       -1.16434067684898       -0.52826196176671
C           -0.35683738476315       -0.18940251527766       -0.92357963298966
C            0.81979302764212       -0.87333839123164       -1.62410749091286
C            0.20194335522451        0.58000952385673        0.46828574116663
C            0.96894196473147        1.82827256394733        0.05868140072726
C           -1.01776987123050        0.93446020169250        1.30892775720876
N            0.97648612361563       -0.37272492605092        1.17437980622400
C            2.33834906531992       -0.56986767341045        1.07054805568902
O            3.07132803865122        0.03044227059448        0.31919911407556
C            2.76939070361086       -1.61690368399126        2.01082939255586
N            2.00112928870515       -2.27719342207113        2.82942905881263
N            2.79707534787981       -3.14228132624692        3.50092571193144
C            4.00835375841532       -2.96141517071902        3.05243846521445
C            5.23877795210957       -3.66597239295207        3.46882643458606
O            4.05028825713054       -2.01045368365621        2.11193470624794
N           -0.83885077940041        0.85364337498539       -1.67267180678122
H           -3.93706183453406        4.49491665657373       -3.06458564556816
H           -3.48649665684882        3.69829811693684       -4.59999666570482
H           -5.14216372247972        3.49589957074943       -3.93977440976267
H           -4.63848903131985        1.06627639853488       -2.09660083228478
H           -0.97599014408975       -1.98705582955579       -0.05272930688057
H            1.20849750187614       -1.66812359230495       -0.99350302807339
H            0.45208691206474       -1.29932013483005       -2.55558801561416
H            1.60757011604244       -0.15677701653657       -1.84195336451234
H            1.66767171350773        1.64253552144650       -0.75266791168316
H            1.52633450502582        2.19608166473314        0.91942867780950
H            0.25744664538032        2.58614584089112       -0.26624786916229
H           -1.51265470361910        0.04146189916207        1.68426241540720
H           -0.68152996043180        1.52987399169396        2.15765129660901
H           -1.72856423606416        1.52366953532994        0.73333829650122
H            0.48528016408689       -0.99408054172863        1.80364506824308
H            5.91496283438938       -2.96860282726954        3.96613452826809
H            5.75112946733786       -4.06535385018625        2.59349130932342
H            4.98546217132229       -4.47424370779428        4.15126366040454

          :  Hamiltonian                  GFN1-xTB          :
         :: total energy             -83.120402276974 Eh    ::
         :: gradient norm              0.000996050299 Eh/a0 ::
         :: HOMO-LUMO gap              1.035858803659 eV    ::
         :: SCC energy               -83.910473553953 Eh    ::
         :: -> Gsolv                  -0.114039528274 Eh    ::
         :: repulsion energy           0.818478169310 Eh    ::

    * Orbital Energies and Occupations

         #    Occupation            Energy/Eh            Energy/eV
      -------------------------------------------------------------
         1        2.0000           -0.8971274             -24.4121
       ...           ...                  ...                  ...
        55        2.0000           -0.5340385             -14.5319
        56        2.0000           -0.5310173             -14.4497
        57        2.0000           -0.5244707             -14.2716
        58        2.0000           -0.5233260             -14.2404
        59        2.0000           -0.5221724             -14.2090
        60        2.0000           -0.5151525             -14.0180
        61        2.0000           -0.5051691             -13.7464
        62        2.0000           -0.5014585             -13.6454
        63        2.0000           -0.4932127             -13.4210
        64        2.0000           -0.4898520             -13.3296
        65        2.0000           -0.4833693             -13.1531
        66        2.0000           -0.4697914             -12.7837
        67        2.0000           -0.4690919             -12.7646 (HOMO)
        68                         -0.4310248             -11.7288 (LUMO)
        69                         -0.3589231              -9.7668
        70                         -0.3372112              -9.1760
        71                         -0.2802984              -7.6273
        72                         -0.2714725              -7.3871
        73                         -0.2289613              -6.2304
        74                         -0.2220110              -6.0412
        75                         -0.1599162              -4.3515
        76                         -0.1558957              -4.2421
        77                         -0.1509275              -4.1069
        78                         -0.1476942              -4.0190
       ...                                ...                  ...
       136                          0.7254227              19.7398
      -------------------------------------------------------------
                  HL-Gap            0.0380671 Eh            1.0359 eV

Wiberg/Mayer (AO) data.
largest (>0.10) Wiberg bond orders for each atom

     #   Z sym  total        # sym  WBO       # sym  WBO       # sym  WBO
 ---------------------------------------------------------------------------
     1   6 C    3.833 --    28 H    0.985    27 H    0.978    26 H    0.978
                             2 O    0.859
     2   8 O    2.226 --     3 C    1.125     1 C    0.859     4 O    0.144
     3   6 C    3.858 --     4 O    1.710     2 O    1.125     5 C    0.952
     4   8 O    1.974 --     3 C    1.710     2 O    0.144
     5   6 C    3.955 --    25 N    1.501     6 C    1.245     3 C    0.952
     6   6 C    3.833 --     7 O    1.311     5 C    1.245     8 C    0.977
     7   8 O    2.233 --     6 C    1.311    29 H    0.748
     8   6 C    3.917 --     9 O    1.646    10 N    1.197     6 C    0.977
     9   8 O    1.947 --     8 C    1.646    10 N    0.183
    10   7 N    3.424 --     8 C    1.197    11 C    0.991    30 H    0.874
                             9 O    0.183
    11   6 C    3.907 --    25 N    1.156    10 N    0.991    12 C    0.940
                            13 C    0.678
    12   6 C    3.961 --    31 H    0.980    33 H    0.975    32 H    0.975
                            11 C    0.940
    13   6 C    3.899 --    16 N    1.034    14 C    1.002    15 C    1.001
                            11 C    0.678
    14   6 C    3.978 --    13 C    1.002    36 H    0.978    34 H    0.971
                            35 H    0.969
    15   6 C    3.985 --    13 C    1.001    39 H    0.981    37 H    0.980
                            38 H    0.965
    16   7 N    3.378 --    17 C    1.135    13 C    1.034    40 H    0.883
                            18 O    0.132
    17   6 C    3.899 --    18 O    1.648    16 N    1.135    19 C    1.015
    18   8 O    1.949 --    17 C    1.648    16 N    0.132
    19   6 C    3.879 --    20 N    1.579    24 O    1.066    17 C    1.015
    20   7 N    3.024 --    19 C    1.579    21 N    1.228
    21   7 N    2.979 --    22 C    1.572    20 N    1.228
    22   6 C    3.857 --    21 N    1.572    24 O    1.092    23 C    1.035
    23   6 C    3.982 --    22 C    1.035    43 H    0.981    42 H    0.963
                            41 H    0.956
    24   8 O    2.342 --    22 C    1.092    19 C    1.066
    25   7 N    3.031 --     5 C    1.501    11 C    1.156
    26   1 H    1.001 --     1 C    0.978
    27   1 H    1.001 --     1 C    0.978
    28   1 H    1.004 --     1 C    0.985
    29   1 H    0.812 --     7 O    0.748
    30   1 H    0.911 --    10 N    0.874
    31   1 H    0.996 --    12 C    0.980
    32   1 H    0.995 --    12 C    0.975
    33   1 H    1.002 --    12 C    0.975
    34   1 H    1.010 --    14 C    0.971
    35   1 H    0.993 --    14 C    0.969
    36   1 H    1.005 --    14 C    0.978
    37   1 H    0.996 --    15 C    0.980
    38   1 H    0.992 --    15 C    0.965
    39   1 H    0.998 --    15 C    0.981
    40   1 H    0.943 --    16 N    0.883
    41   1 H    0.994 --    23 C    0.956
    42   1 H    0.994 --    23 C    0.963
    43   1 H    0.997 --    23 C    0.981
 ---------------------------------------------------------------------------

           -------------------------------------------------
          | TOTAL ENERGY              -83.120402276974 Eh   |
          | GRADIENT NORM               0.000996050299 Eh/α |
          | HOMO-LUMO GAP               1.035858803659 eV   |
           -------------------------------------------------

 * finished run on 2023/06/20 at 15:31:07.461
