   * xtb version 6.5.1 (579679a) compiled by 'ehlert@majestix' on 2022-07-11
          program call               : /lustre/hpc/kemi/ree/PhD/git/ReactivityQM/dep/xtb-6.5.1/bin/xtb --gfn 1 /lustre/hpc/kemi/ree/PhD/git/ReactivityQM/calculations/R02oxygendeprot/reac01prodN10/conf02/R02oxygendeprot_reac01prodN10_conf02_gfn1.xyz --opt --vfukui --chrg 0 --uhf 0 --alpb DMSO

   ID    Z sym.   atoms
    1    6 C      1, 3, 5, 6, 8, 11-15, 17, 19, 22, 23
    2    8 O      2, 4, 7, 9, 18, 24
    3    7 N      10, 16, 20, 21, 25
    4    1 H      26-42

      * Solvation model:               ALPB
        Solvent                        DMSO
        Solvent mass                       7.8130E+01 g/mol
          :  Hamiltonian                  GFN1-xTB          :
 * total energy  :   -82.9661944 Eh     change       -0.1507772E-10 Eh
 * total energy  :   -82.9770114 Eh     change       -0.1081700E-01 Eh
 * total energy  :   -82.9814837 Eh     change       -0.4472295E-02 Eh
 * total energy  :   -82.9823555 Eh     change       -0.8717998E-03 Eh
 * total energy  :   -82.9831164 Eh     change       -0.7608552E-03 Eh
 * total energy  :   -82.9837197 Eh     change       -0.6033599E-03 Eh
 * total energy  :   -82.9842190 Eh     change       -0.4992397E-03 Eh
 * total energy  :   -82.9845649 Eh     change       -0.3458909E-03 Eh
 * total energy  :   -82.9847462 Eh     change       -0.1813301E-03 Eh
 * total energy  :   -82.9848669 Eh     change       -0.1206929E-03 Eh
 * total energy  :   -82.9853840 Eh     change       -0.3539367E-04 Eh
 * total energy  :   -82.9854176 Eh     change       -0.3354095E-04 Eh
 * total energy  :   -82.9854351 Eh     change       -0.1750872E-04 Eh
 * total energy  :   -82.9854481 Eh     change       -0.1298906E-04 Eh
 * total energy  :   -82.9854561 Eh     change       -0.8018248E-05 Eh
 * total energy  :   -82.9854681 Eh     change       -0.1200617E-04 Eh
 * total energy  :   -82.9854619 Eh     change        0.6178266E-05 Eh
 * total energy  :   -82.9854704 Eh     change       -0.8508872E-05 Eh
 * total energy  :   -82.9854741 Eh     change       -0.3644998E-05 Eh
   *** GEOMETRY OPTIMIZATION CONVERGED AFTER 26 ITERATIONS ***

 final structure:
================
42
 xtb: 6.5.1 (579679a)
C            3.67092775589962       -2.49608934495894       -2.92809808785448
O            3.47432817462385       -1.40284518005997       -2.02130220151650
C            2.23102181915819       -1.00787531892519       -1.82056714743556
O            1.25932144535736       -1.50629216456814       -2.32864718993953
C            2.14772699590053        0.14953621881605       -0.84302919238568
C            3.31986855432106        1.03609925768855       -0.58911140417411
O            4.22967954339843        1.18944021460049       -1.36245904529510
C            3.24660868741539        1.79001798954303        0.74147708634401
O            4.22375978117348        2.25956826143111        1.28738941921132
N            2.00452228457500        1.86475494280402        1.26347128920983
C            0.78182970668118        1.39328441316429        0.64309475188456
C            0.14183993732360        2.54294238082519       -0.15179819911674
C           -0.16601053827743        0.81361044858980        1.74165434677760
C           -0.68339533789081        1.90235323190823        2.68361592922504
C            0.57057571581987       -0.28474148666816        2.51777235458957
N           -1.28622594390794        0.22078682435280        1.01077653633028
C           -2.34977866572138       -0.35079046816025        1.61198728093179
O           -2.55912043560520       -0.37606202775358        2.81354041309409
C           -3.29889010136468       -0.94991114996804        0.63938654715780
N           -4.41519522160808       -1.55625058689353        0.89983336668628
N           -4.95282782555267       -1.92289077024359       -0.29710881838997
C           -4.13174313132611       -1.51766868461239       -1.21557257114274
C           -4.26530433872929       -1.67573694564532       -2.68016943340991
O           -3.06324014165956       -0.89556998276755       -0.69004990050788
N            1.01477786126973        0.33236398320612       -0.28794439444570
H            3.40553199703519       -2.18699639217009       -3.94098781437576
H            3.04879134592246       -3.34258882295281       -2.63104662368570
H            4.72534036869118       -2.75747201201848       -2.87295383604024
H            1.90706861658331        2.45804823343933        2.07358491467925
H            0.79805338361277        2.80973461645485       -0.97810493377804
H            0.01429888357015        3.40767521435767        0.49422241572993
H           -0.82490721559539        2.23599276146729       -0.54396938065835
H            0.14500210102434        2.47819217214619        3.08977499316180
H           -1.22147818167336        1.44512924231702        3.51256123487984
H           -1.36008968217043        2.57326091161192        2.15848240071944
H            1.41911890499894        0.14180280726623        3.04904760963677
H            0.92760844028733       -1.04952516096593        1.82945905660196
H           -0.10548104820521       -0.74010977931529        3.23980273364330
H           -1.14578292631077        0.05484902697628        0.02370769573292
H           -5.26204230671167       -2.03862488077108       -2.91945036433038
H           -3.52602252818005       -2.38818370094632       -3.04730433648443
H           -4.09006873415573       -0.72167829260907       -3.17496450125334

          :  Hamiltonian                  GFN1-xTB          :
         :: total energy             -82.985474050077 Eh    ::
         :: gradient norm              0.000309472534 Eh/a0 ::
         :: HOMO-LUMO gap              1.758833458083 eV    ::
         :: SCC energy               -83.766634051195 Eh    ::
         :: -> Gsolv                  -0.056394445333 Eh    ::
         :: repulsion energy           0.808543817987 Eh    ::

    * Orbital Energies and Occupations

         #    Occupation            Energy/Eh            Energy/eV
      -------------------------------------------------------------
         1        2.0000           -0.8660080             -23.5653
       ...           ...                  ...                  ...
        55        2.0000           -0.5062012             -13.7744
        56        2.0000           -0.5057984             -13.7635
        57        2.0000           -0.5039802             -13.7140
        58        2.0000           -0.5008998             -13.6302
        59        2.0000           -0.4955501             -13.4846
        60        2.0000           -0.4820879             -13.1183
        61        2.0000           -0.4807396             -13.0816
        62        2.0000           -0.4698212             -12.7845
        63        2.0000           -0.4642434             -12.6327
        64        2.0000           -0.4599849             -12.5168
        65        2.0000           -0.4523971             -12.3104
        66        2.0000           -0.4482774             -12.1982
        67        2.0000           -0.4383925             -11.9293 (HOMO)
        68                         -0.3737566             -10.1704 (LUMO)
        69                         -0.3197064              -8.6997
        70                         -0.3114888              -8.4760
        71                         -0.2574990              -7.0069
        72                         -0.2504973              -6.8164
        73                         -0.2042575              -5.5581
        74                         -0.1994660              -5.4277
        75                         -0.1429880              -3.8909
        76                         -0.1420878              -3.8664
        77                         -0.1417349              -3.8568
        78                         -0.1377220              -3.7476
       ...                                ...                  ...
       134                          0.7674824              20.8843
      -------------------------------------------------------------
                  HL-Gap            0.0646359 Eh            1.7588 eV

Wiberg/Mayer (AO) data.
largest (>0.10) Wiberg bond orders for each atom

     #   Z sym  total        # sym  WBO       # sym  WBO       # sym  WBO
 ---------------------------------------------------------------------------
     1   6 C    3.859 --    28 H    0.985    27 H    0.979    26 H    0.978
                             2 O    0.884
     2   8 O    2.226 --     3 C    1.148     1 C    0.884     4 O    0.147
     3   6 C    3.854 --     4 O    1.686     2 O    1.148     5 C    0.944
     4   8 O    1.950 --     3 C    1.686     2 O    0.147
     5   6 C    3.952 --    25 N    1.790     6 C    0.993     3 C    0.944
     6   6 C    3.856 --     7 O    1.805     5 C    0.993     8 C    0.906
     7   8 O    2.011 --     6 C    1.805
     8   6 C    3.903 --     9 O    1.635    10 N    1.247     6 C    0.906
     9   8 O    1.928 --     8 C    1.635    10 N    0.184
    10   7 N    3.363 --     8 C    1.247    11 C    0.940    29 H    0.882
                             9 O    0.184
    11   6 C    3.913 --    25 N    1.000    12 C    0.947    10 N    0.940
                            13 C    0.930
    12   6 C    3.982 --    30 H    0.982    32 H    0.981    31 H    0.980
                            11 C    0.947
    13   6 C    3.929 --    14 C    0.999    15 C    0.991    16 N    0.934
                            11 C    0.930
    14   6 C    3.988 --    13 C    0.999    35 H    0.982    33 H    0.981
                            34 H    0.974
    15   6 C    3.989 --    13 C    0.991    36 H    0.984    37 H    0.983
                            38 H    0.980
    16   7 N    3.349 --    17 C    1.255    13 C    0.934    39 H    0.886
                            18 O    0.176
    17   6 C    3.917 --    18 O    1.585    16 N    1.255    19 C    0.992
    18   8 O    1.903 --    17 C    1.585    16 N    0.176
    19   6 C    3.872 --    20 N    1.622    24 O    1.047    17 C    0.992
    20   7 N    3.000 --    19 C    1.622    21 N    1.199
    21   7 N    2.981 --    22 C    1.610    20 N    1.199
    22   6 C    3.869 --    21 N    1.610    24 O    1.073    23 C    1.032
    23   6 C    3.986 --    22 C    1.032    40 H    0.982    42 H    0.967
                            41 H    0.959
    24   8 O    2.317 --    22 C    1.073    19 C    1.047
    25   7 N    3.062 --     5 C    1.790    11 C    1.000
    26   1 H    1.004 --     1 C    0.978
    27   1 H    1.005 --     1 C    0.979
    28   1 H    1.009 --     1 C    0.985
    29   1 H    0.930 --    10 N    0.882
    30   1 H    0.999 --    12 C    0.982
    31   1 H    0.999 --    12 C    0.980
    32   1 H    0.998 --    12 C    0.981
    33   1 H    0.998 --    14 C    0.981
    34   1 H    1.009 --    14 C    0.974
    35   1 H    1.001 --    14 C    0.982
    36   1 H    1.002 --    15 C    0.984
    37   1 H    1.004 --    15 C    0.983
    38   1 H    1.006 --    15 C    0.980
    39   1 H    0.955 --    16 N    0.886
    40   1 H    0.998 --    23 C    0.982
    41   1 H    0.996 --    23 C    0.959
    42   1 H    0.997 --    23 C    0.967
 ---------------------------------------------------------------------------

           -------------------------------------------------
          | TOTAL ENERGY              -82.985474050077 Eh   |
          | GRADIENT NORM               0.000309472534 Eh/α |
          | HOMO-LUMO GAP               1.758833458083 eV   |
           -------------------------------------------------

 * finished run on 2023/06/21 at 17:25:38.870
