   * xtb version 6.5.1 (579679a) compiled by 'ehlert@majestix' on 2022-07-11
          program call               : /lustre/hpc/kemi/ree/PhD/git/ReactivityQM/dep/xtb-6.5.1/bin/xtb --gfn 1 /lustre/hpc/kemi/ree/PhD/git/ReactivityQM/calculations/R01/reac01prodE06/conf12/R01_reac01prodE06_conf12_gfn1.xyz --opt --vfukui --chrg -1 --uhf 0 --alpb DMSO

   ID    Z sym.   atoms
    1    6 C      1, 3, 5, 8-10
    2    8 O      2, 4, 11
    3    7 N      6, 7
    4    1 H      12-20

      * Solvation model:               ALPB
        Solvent                        DMSO
        Solvent mass                       7.8130E+01 g/mol
          :  Hamiltonian                  GFN1-xTB          :
 * total energy  :   -38.3452331 Eh     change       -0.2742695E-11 Eh
 * total energy  :   -38.3528025 Eh     change       -0.7569447E-02 Eh
 * total energy  :   -38.3548328 Eh     change       -0.2030256E-02 Eh
 * total energy  :   -38.3550351 Eh     change       -0.2022820E-03 Eh
 * total energy  :   -38.3551501 Eh     change       -0.1150645E-03 Eh
 * total energy  :   -38.3551726 Eh     change       -0.2245848E-04 Eh
 * total energy  :   -38.3551873 Eh     change       -0.1475843E-04 Eh
 * total energy  :   -38.3551936 Eh     change       -0.6267001E-05 Eh
 * total energy  :   -38.3551960 Eh     change       -0.2375046E-05 Eh
   *** GEOMETRY OPTIMIZATION CONVERGED AFTER 9 ITERATIONS ***

 final structure:
================
20
 xtb: 6.5.1 (579679a)
C            4.11943711455132       -0.12942719926357       -0.53067728302671
O            2.76229505814312       -0.04061170650762       -0.92578597168047
C            1.84447396933278       -0.07873742891634        0.12364132049807
O            2.24087071448268       -0.16946405398769        1.29370952398264
C            0.52163346806083       -0.00400294431400       -0.34293796012940
N            0.12279686334159        0.08318906919611       -1.61126711750929
N           -1.16563096090965        0.12801449006846       -1.69445379978069
C           -1.70806474159991        0.06391960120713       -0.32545475893991
C           -2.51239538806695        1.33962614101807       -0.02867767130515
C           -2.58711564313629       -1.18819865295408       -0.17628879001382
O           -0.58109111804542       -0.02029012938498        0.53253495366497
H            4.38079446791570        0.67293748876455        0.16894939383364
H            4.32776761238101       -1.09268568026022       -0.05043558803994
H            4.72468650504449       -0.03566531651703       -1.43298225375986
H           -3.35356052581879        1.41162287846578       -0.71496028431197
H           -2.88248156544893        1.32164005002780        0.99486343650456
H           -1.87059736593870        2.20958269495377       -0.15980221199248
H           -3.42398190425841       -1.13521056523035       -0.86953050932096
H           -1.99399063015019       -2.07333750473275       -0.40098294753352
H           -2.96584592987968       -1.26290123163296        0.84149951886024

          :  Hamiltonian                  GFN1-xTB          :
         :: total energy             -38.355195987615 Eh    ::
         :: gradient norm              0.000689709420 Eh/a0 ::
         :: HOMO-LUMO gap              2.121573449193 eV    ::
         :: SCC energy               -38.663021047162 Eh    ::
         :: -> Gsolv                  -0.096826017970 Eh    ::
         :: repulsion energy           0.316277754124 Eh    ::

    * Orbital Energies and Occupations

         #    Occupation            Energy/Eh            Energy/eV
      -------------------------------------------------------------
         1        2.0000           -0.7798446             -21.2207
       ...           ...                  ...                  ...
        19        2.0000           -0.5081679             -13.8280
        20        2.0000           -0.4952944             -13.4776
        21        2.0000           -0.4864263             -13.2363
        22        2.0000           -0.4841150             -13.1734
        23        2.0000           -0.4777785             -13.0010
        24        2.0000           -0.4703414             -12.7986
        25        2.0000           -0.4503975             -12.2559
        26        2.0000           -0.4496260             -12.2349
        27        2.0000           -0.4391748             -11.9506
        28        2.0000           -0.4243228             -11.5464
        29        2.0000           -0.4127303             -11.2310
        30        2.0000           -0.3743657             -10.1870
        31        2.0000           -0.3215141              -8.7488 (HOMO)
        32                         -0.2435478              -6.6273 (LUMO)
        33                         -0.1280791              -3.4852
        34                         -0.1157450              -3.1496
        35                         -0.1056284              -2.8743
        36                         -0.0996996              -2.7130
        37                         -0.0588687              -1.6019
        38                         -0.0541621              -1.4738
        39                         -0.0518186              -1.4101
        40                         -0.0472972              -1.2870
        41                         -0.0291222              -0.7925
        42                         -0.0274389              -0.7467
       ...                                ...                  ...
        62                          0.7031593              19.1339
      -------------------------------------------------------------
                  HL-Gap            0.0779664 Eh            2.1216 eV

Wiberg/Mayer (AO) data.
largest (>0.10) Wiberg bond orders for each atom

     #   Z sym  total        # sym  WBO       # sym  WBO       # sym  WBO
 ---------------------------------------------------------------------------
     1   6 C    3.908 --    14 H    0.987    13 H    0.981    12 H    0.980
                             2 O    0.939
     2   8 O    2.085 --     3 C    0.961     1 C    0.939
     3   6 C    3.882 --     4 O    1.489     5 C    1.250     2 O    0.961
                             7 N    0.105
     4   8 O    1.811 --     3 C    1.489
     5   6 C    3.846 --     6 N    1.367     3 C    1.250    11 O    0.931
                             7 N    0.151
     6   7 N    3.024 --     7 N    1.503     5 C    1.367
     7   7 N    2.900 --     6 N    1.503     8 C    0.977     5 C    0.151
                             3 C    0.105
     8   6 C    3.900 --     9 C    0.978    10 C    0.978     7 N    0.977
                            11 O    0.929
     9   6 C    3.995 --    15 H    0.988    16 H    0.986    17 H    0.985
                             8 C    0.978
    10   6 C    3.995 --    18 H    0.988    20 H    0.986    19 H    0.985
                             8 C    0.978
    11   8 O    2.050 --     5 C    0.931     8 C    0.929
    12   1 H    1.017 --     1 C    0.980
    13   1 H    1.016 --     1 C    0.981
    14   1 H    1.018 --     1 C    0.987
    15   1 H    1.010 --     9 C    0.988
    16   1 H    1.008 --     9 C    0.986
    17   1 H    1.014 --     9 C    0.985
    18   1 H    1.010 --    10 C    0.988
    19   1 H    1.014 --    10 C    0.985
    20   1 H    1.008 --    10 C    0.986
 ---------------------------------------------------------------------------

           -------------------------------------------------
          | TOTAL ENERGY              -38.355195987615 Eh   |
          | GRADIENT NORM               0.000689709420 Eh/α |
          | HOMO-LUMO GAP               2.121573449193 eV   |
           -------------------------------------------------

 * finished run on 2023/06/20 at 14:54:21.362
