   * xtb version 6.5.1 (579679a) compiled by 'ehlert@majestix' on 2022-07-11
          program call               : /lustre/hpc/kemi/ree/PhD/git/ReactivityQM/dep/xtb-6.5.1/bin/xtb --gfn 1 /lustre/hpc/kemi/ree/PhD/git/ReactivityQM/calculations/R02/reac01prodE02/conf07/R02_reac01prodE02_conf07_gfn1.xyz --opt --vfukui --chrg -1 --uhf 0 --alpb DMSO

   ID    Z sym.   atoms
    1    6 C      1, 3, 4, 6, 8-11, 13, 15, 18, 19, 22, 24
    2    8 O      2, 5, 14, 20, 23, 25
    3    7 N      7, 12, 16, 17, 21
    4    1 H      26-43

      * Solvation model:               ALPB
        Solvent                        DMSO
        Solvent mass                       7.8130E+01 g/mol
          :  Hamiltonian                  GFN1-xTB          :
 * total energy  :   -83.8466766 Eh     change       -0.7617018E-11 Eh
 * total energy  :   -83.8589454 Eh     change       -0.1226877E-01 Eh
 * total energy  :   -83.8639884 Eh     change       -0.5043012E-02 Eh
 * total energy  :   -83.8653202 Eh     change       -0.1331856E-02 Eh
 * total energy  :   -83.8658782 Eh     change       -0.5579620E-03 Eh
 * total energy  :   -83.8661478 Eh     change       -0.2695877E-03 Eh
 * total energy  :   -83.8663523 Eh     change       -0.2044828E-03 Eh
 * total energy  :   -83.8664970 Eh     change       -0.1447098E-03 Eh
 * total energy  :   -83.8666283 Eh     change       -0.1313109E-03 Eh
 * total energy  :   -83.8667813 Eh     change       -0.1530209E-03 Eh
 * total energy  :   -83.8700596 Eh     change       -0.8876586E-05 Eh
 * total energy  :   -83.8700661 Eh     change       -0.6500596E-05 Eh
 * total energy  :   -83.8700736 Eh     change       -0.7523073E-05 Eh
 * total energy  :   -83.8700834 Eh     change       -0.9805497E-05 Eh
 * total energy  :   -83.8700923 Eh     change       -0.8861183E-05 Eh
 * total energy  :   -83.8700983 Eh     change       -0.6064832E-05 Eh
 * total energy  :   -83.8701056 Eh     change       -0.7247255E-05 Eh
 * total energy  :   -83.8701124 Eh     change       -0.6837188E-05 Eh
 * total energy  :   -83.8701146 Eh     change       -0.2198381E-05 Eh
   *** GEOMETRY OPTIMIZATION CONVERGED AFTER 87 ITERATIONS ***

 final structure:
================
43
 xtb: 6.5.1 (579679a)
C           -4.75886071820267        1.68271766946245        1.86655519577517
O           -3.47445188663346        1.11971765188283        1.96883848610133
C           -2.65044299448517        1.24574267201297        0.70216788829101
C           -1.32901696521635        1.91024953822097        1.22312012866789
O           -3.23393626866486        1.86787999215257       -0.26508447800246
C           -2.30879415415198       -0.26020715276972        0.32778060185868
N           -0.99790580968347       -0.50549517959469       -0.00399953597303
C           -0.61417318592883       -1.66774666482755       -0.40736457956740
C            0.84788356108245       -1.91172152774346       -0.73820040206451
C            1.44963003572183       -2.88969658355100        0.28134643467041
C            1.00409950465793       -2.44321833599842       -2.16890900771501
N            1.50317163377686       -0.61401926547213       -0.62225078775050
C            2.81246326062922       -0.39274898992363       -0.80375356052575
O            3.64699671403583       -1.23058120021585       -1.10893842056850
C            3.13386927486895        1.04531454753097       -0.58535000657647
N            2.28660806723888        1.97823521709479       -0.27338399223644
N            2.99698852598275        3.13672846226422       -0.16782435175118
C            4.23286816845880        2.83596002059374       -0.42167398789721
C            5.39920317698257        3.74585675264861       -0.43207861408284
O            4.38493371719435        1.53085522453656       -0.69373204521082
N           -1.47889579588625       -2.71329068984358       -0.52870153163580
C           -2.82560308804395       -2.58964923575396       -0.24535377432770
O           -3.59376578749700       -3.54674737805738       -0.36014836313242
C           -3.22170273923723       -1.27074733333483        0.19279205761238
O           -4.54729440080633       -1.13867950698792        0.47213420131633
H           -5.27287334721784        1.50899677065758        2.81772073572353
H           -4.72335723266196        2.76904725193071        1.68375899760131
H           -5.35114514518495        1.22112777214473        1.06145804858700
H           -0.90137209496825        1.33649428960523        2.04340099410948
H           -0.60777340972715        1.97791603583184        0.41022154519192
H           -1.57162122144491        2.91375475895593        1.56930764335452
H            2.49789034856297       -3.06871553724718        0.04991004028064
H            0.91467233915006       -3.83605037557439        0.24310159056014
H            1.37028512079703       -2.47600172453848        1.28581721945528
H            2.05941145584271       -2.58210061818575       -2.39658101421605
H            0.49895526606057       -3.40156910639998       -2.26694087928547
H            0.57505732693693       -1.73955748787121       -2.88099140767840
H            0.90063331149951        0.16069263611670       -0.34672608605021
H            6.14219927157641        3.40735898811478        0.28948959159306
H            5.86355053306962        3.74692792145059       -1.41783233737717
H            5.07905671067782        4.75351757381662       -0.17946743449901
H           -1.16269523026001       -3.61954159018253       -0.82954786987357
H           -4.97474384890864       -1.99700626294862        0.32376606723907

          :  Hamiltonian                  GFN1-xTB          :
         :: total energy             -83.870114612527 Eh    ::
         :: gradient norm              0.000489277120 Eh/a0 ::
         :: HOMO-LUMO gap              1.038354634247 eV    ::
         :: SCC energy               -84.632970858498 Eh    ::
         :: -> Gsolv                  -0.132057666632 Eh    ::
         :: repulsion energy           0.789729942353 Eh    ::

    * Orbital Energies and Occupations

         #    Occupation            Energy/Eh            Energy/eV
      -------------------------------------------------------------
         1        2.0000           -0.8595461             -23.3894
       ...           ...                  ...                  ...
        56        2.0000           -0.4592262             -12.4962
        57        2.0000           -0.4578259             -12.4581
        58        2.0000           -0.4573084             -12.4440
        59        2.0000           -0.4554995             -12.3948
        60        2.0000           -0.4472975             -12.1716
        61        2.0000           -0.4402448             -11.9797
        62        2.0000           -0.4397912             -11.9673
        63        2.0000           -0.4330855             -11.7849
        64        2.0000           -0.4250384             -11.5659
        65        2.0000           -0.4067437             -11.0681
        66        2.0000           -0.3934181             -10.7055
        67        2.0000           -0.3631283              -9.8812
        68        2.0000           -0.3418115              -9.3012 (HOMO)
        69                         -0.3036526              -8.2628 (LUMO)
        70                         -0.2748814              -7.4799
        71                         -0.2529952              -6.8844
        72                         -0.2519094              -6.8548
        73                         -0.1919867              -5.2242
        74                         -0.1423309              -3.8730
        75                         -0.1412169              -3.8427
        76                         -0.1322633              -3.5991
        77                         -0.1194021              -3.2491
        78                         -0.1003819              -2.7315
        79                         -0.0957434              -2.6053
       ...                                ...                  ...
       136                          0.7280837              19.8122
      -------------------------------------------------------------
                  HL-Gap            0.0381588 Eh            1.0384 eV

Wiberg/Mayer (AO) data.
largest (>0.10) Wiberg bond orders for each atom

     #   Z sym  total        # sym  WBO       # sym  WBO       # sym  WBO
 ---------------------------------------------------------------------------
     1   6 C    3.933 --    26 H    0.985    27 H    0.980    28 H    0.978
                             2 O    0.973
     2   8 O    1.939 --     1 C    0.973     3 C    0.786
     3   6 C    3.897 --     5 O    1.246     4 C    0.937     6 C    0.876
                             2 O    0.786
     4   6 C    3.992 --    29 H    0.990    31 H    0.987    30 H    0.985
                             3 C    0.937
     5   8 O    1.546 --     3 C    1.246
     6   6 C    3.910 --    24 C    1.522     7 N    1.183     3 C    0.876
     7   7 N    3.061 --     8 C    1.581     6 C    1.183
     8   6 C    3.937 --     7 N    1.581    21 N    1.173     9 C    0.978
     9   6 C    3.939 --    11 C    0.983    10 C    0.979     8 C    0.978
                            12 N    0.933
    10   6 C    3.990 --    34 H    0.985    33 H    0.985    32 H    0.980
                             9 C    0.979
    11   6 C    3.990 --    37 H    0.985    36 H    0.984     9 C    0.983
                            35 H    0.980
    12   7 N    3.370 --    13 C    1.280     9 C    0.933    38 H    0.872
                            14 O    0.183
    13   6 C    3.921 --    14 O    1.576    12 N    1.280    15 C    0.984
    14   8 O    1.896 --    13 C    1.576    12 N    0.183
    15   6 C    3.873 --    16 N    1.615    20 O    1.062    13 C    0.984
    16   7 N    3.020 --    15 C    1.615    17 N    1.196
    17   7 N    2.981 --    18 C    1.611    16 N    1.196
    18   6 C    3.873 --    17 N    1.611    20 O    1.081    19 C    1.031
    19   6 C    3.987 --    18 C    1.031    41 H    0.983    39 H    0.964
                            40 H    0.964
    20   8 O    2.326 --    18 C    1.081    15 C    1.062
    21   7 N    3.450 --     8 C    1.173    22 C    1.109    42 H    0.891
                            23 O    0.120
    22   6 C    3.905 --    23 O    1.525    24 C    1.120    21 N    1.109
    23   8 O    1.851 --    22 C    1.525    21 N    0.120
    24   6 C    3.913 --     6 C    1.522    22 C    1.120    25 O    1.046
    25   8 O    2.039 --    24 C    1.046    43 H    0.832
    26   1 H    1.024 --     1 C    0.985
    27   1 H    1.028 --     1 C    0.980
    28   1 H    1.037 --     1 C    0.978
    29   1 H    1.016 --     4 C    0.990
    30   1 H    1.028 --     4 C    0.985
    31   1 H    1.019 --     4 C    0.987
    32   1 H    1.008 --    10 C    0.980
    33   1 H    1.001 --    10 C    0.985
    34   1 H    1.003 --    10 C    0.985
    35   1 H    1.008 --    11 C    0.980
    36   1 H    1.000 --    11 C    0.984
    37   1 H    1.003 --    11 C    0.985
    38   1 H    0.976 --    12 N    0.872
    39   1 H    0.997 --    19 C    0.964
    40   1 H    0.997 --    19 C    0.964
    41   1 H    0.999 --    19 C    0.983
    42   1 H    0.938 --    21 N    0.891
    43   1 H    0.871 --    25 O    0.832
 ---------------------------------------------------------------------------

           -------------------------------------------------
          | TOTAL ENERGY              -83.870114612527 Eh   |
          | GRADIENT NORM               0.000489277120 Eh/α |
          | HOMO-LUMO GAP               1.038354634247 eV   |
           -------------------------------------------------

 * finished run on 2023/06/20 at 14:54:22.565
