   * xtb version 6.5.1 (579679a) compiled by 'ehlert@majestix' on 2022-07-11
          program call               : /lustre/hpc/kemi/ree/PhD/git/ReactivityQM/dep/xtb-6.5.1/bin/xtb --gfn 1 /lustre/hpc/kemi/ree/PhD/git/ReactivityQM/calculations/RaltegravirCLI/reac01prodN08/conf06/RaltegravirCLI_reac01prodN08_conf06_gfn1.xyz --opt --vfukui --chrg 1 --uhf 0 --alpb DMSO

   ID    Z sym.   atoms
    1    6 C      1, 3, 5, 8, 9
    2   17 Cl     2
    3    8 O      4, 10
    4    7 N      6, 7
    5    1 H      11-16

      * Solvation model:               ALPB
        Solvent                        DMSO
        Solvent mass                       7.8130E+01 g/mol
          :  Hamiltonian                  GFN1-xTB          :
 * total energy  :   -33.3861638 Eh     change       -0.2430056E-11 Eh
 * total energy  :   -33.3921587 Eh     change       -0.5994981E-02 Eh
 * total energy  :   -33.3945675 Eh     change       -0.2408744E-02 Eh
 * total energy  :   -33.3948263 Eh     change       -0.2588315E-03 Eh
 * total energy  :   -33.3949198 Eh     change       -0.9347297E-04 Eh
 * total energy  :   -33.3949609 Eh     change       -0.4114061E-04 Eh
 * total energy  :   -33.3949798 Eh     change       -0.1882835E-04 Eh
 * total energy  :   -33.3949907 Eh     change       -0.1090517E-04 Eh
 * total energy  :   -33.3949985 Eh     change       -0.7787102E-05 Eh
 * total energy  :   -33.3950030 Eh     change       -0.4546713E-05 Eh
 * total energy  :   -33.3950075 Eh     change       -0.4491199E-05 Eh
   *** GEOMETRY OPTIMIZATION CONVERGED AFTER 11 ITERATIONS ***

 final structure:
================
16
 xtb: 6.5.1 (579679a)
C           -3.92427844826812       -0.31473315121955        0.01445937936327
Cl          -2.39966908594873       -0.30386527723362        0.94448235759757
C           -1.13694211665533       -0.04947696693324       -0.37203005446199
O           -1.51116517826395        0.03657602226815       -1.48638851155972
C            0.15987720360475       -0.00426900125815        0.22547544664881
N            0.46342439293214       -0.11396104605841        1.49834302088927
N            1.78694859532780       -0.00834723500799        1.59241081608083
C            2.25059433309267        0.16364355716094        0.37081691801540
C            3.65655975486122        0.32241454055189       -0.03689933091422
O            1.26826756367223        0.17263750434949       -0.52163481484167
H           -4.42972166787919        0.63412690525777        0.17132858027090
H           -3.68468915758056       -0.45270187999485       -1.03888495566586
H           -4.51854744944754       -1.14450654620187        0.38524875441800
H            4.27797664494941        0.50279854663951        0.83724116718492
H            3.99454746339033       -0.58647341007091       -0.53855053796181
H            3.74681815220765        1.14613843775100       -0.74453423506746

          :  Hamiltonian                  GFN1-xTB          :
         :: total energy             -33.395007492650 Eh    ::
         :: gradient norm              0.000813255546 Eh/a0 ::
         :: HOMO-LUMO gap              2.763782773003 eV    ::
         :: SCC energy               -33.689692150910 Eh    ::
         :: -> Gsolv                  -0.083562597874 Eh    ::
         :: repulsion energy           0.301397203302 Eh    ::

    * Orbital Energies and Occupations

         #    Occupation            Energy/Eh            Energy/eV
      -------------------------------------------------------------
         1        2.0000           -1.0707489             -29.1366
       ...           ...                  ...                  ...
        15        2.0000           -0.6237831             -16.9740
        16        2.0000           -0.6127830             -16.6747
        17        2.0000           -0.6072208             -16.5233
        18        2.0000           -0.5845655             -15.9068
        19        2.0000           -0.5773295             -15.7099
        20        2.0000           -0.5708370             -15.5333
        21        2.0000           -0.5584935             -15.1974
        22        2.0000           -0.5572090             -15.1624
        23        2.0000           -0.5503911             -14.9769
        24        2.0000           -0.5457646             -14.8510
        25        2.0000           -0.5279338             -14.3658
        26        2.0000           -0.5001719             -13.6104
        27        2.0000           -0.4972772             -13.5316 (HOMO)
        28                         -0.3957100             -10.7678 (LUMO)
        29                         -0.3194365              -8.6923
        30                         -0.3006495              -8.1811
        31                         -0.2994579              -8.1487
        32                         -0.2728433              -7.4244
        33                         -0.1885232              -5.1300
        34                         -0.1835331              -4.9942
        35                         -0.1655604              -4.5051
        36                         -0.1612597              -4.3881
        37                         -0.1585851              -4.3153
        38                         -0.1120591              -3.0493
       ...                                ...                  ...
        57                          0.7637588              20.7829
      -------------------------------------------------------------
                  HL-Gap            0.1015671 Eh            2.7638 eV

Wiberg/Mayer (AO) data.
largest (>0.10) Wiberg bond orders for each atom

     #   Z sym  total        # sym  WBO       # sym  WBO       # sym  WBO
 ---------------------------------------------------------------------------
     1   6 C    3.858 --    11 H    0.980    13 H    0.977    12 H    0.968
                             2 Cl   0.910
     2  17 Cl   1.909 --     1 C    0.910     3 C    0.783     4 O    0.147
     3   6 C    3.874 --     4 O    1.846     5 C    1.110     2 Cl   0.783
     4   8 O    2.168 --     3 C    1.846     2 Cl   0.147
     5   6 C    3.889 --     6 N    1.497     3 C    1.110    10 O    1.048
     6   7 N    3.023 --     5 C    1.497     7 N    1.314
     7   7 N    2.993 --     8 C    1.484     6 N    1.314
     8   6 C    3.848 --     7 N    1.484    10 O    1.126     9 C    1.044
     9   6 C    3.973 --     8 C    1.044    14 H    0.977    16 H    0.958
                            15 H    0.942
    10   8 O    2.363 --     8 C    1.126     5 C    1.048
    11   1 H    0.994 --     1 C    0.980
    12   1 H    0.994 --     1 C    0.968
    13   1 H    0.994 --     1 C    0.977
    14   1 H    0.993 --     9 C    0.977
    15   1 H    0.988 --     9 C    0.942
    16   1 H    0.989 --     9 C    0.958
 ---------------------------------------------------------------------------

           -------------------------------------------------
          | TOTAL ENERGY              -33.395007492650 Eh   |
          | GRADIENT NORM               0.000813255546 Eh/α |
          | HOMO-LUMO GAP               2.763782773003 eV   |
           -------------------------------------------------

 * finished run on 2023/06/20 at 14:55:57.108
