   * xtb version 6.5.1 (579679a) compiled by 'ehlert@majestix' on 2022-07-11
          program call               : /lustre/hpc/kemi/ree/PhD/git/ReactivityQM/dep/xtb-6.5.1/bin/xtb --gfn 1 /lustre/hpc/kemi/ree/PhD/git/ReactivityQM/calculations/R02methylcation/reac01prodN19/conf06/R02methylcation_reac01prodN19_conf06_gfn1.xyz --opt --vfukui --chrg 0 --uhf 0 --alpb DMSO

   ID    Z sym.   atoms
    1    6 C      1, 3, 5, 7-10, 12, 14, 17, 18, 21, 23, 24
    2    8 O      2, 4, 13, 19, 22, 25
    3    7 N      6, 11, 15, 16, 20
    4    1 H      26-42

      * Solvation model:               ALPB
        Solvent                        DMSO
        Solvent mass                       7.8130E+01 g/mol
          :  Hamiltonian                  GFN1-xTB          :
 * total energy  :   -82.9729193 Eh     change       -0.3612399E-10 Eh
 * total energy  :   -82.9876657 Eh     change       -0.1474633E-01 Eh
 * total energy  :   -82.9928899 Eh     change       -0.5224279E-02 Eh
 * total energy  :   -82.9944091 Eh     change       -0.1519207E-02 Eh
 * total energy  :   -82.9955176 Eh     change       -0.1108428E-02 Eh
 * total energy  :   -82.9960937 Eh     change       -0.5761572E-03 Eh
 * total energy  :   -82.9964359 Eh     change       -0.3421204E-03 Eh
 * total energy  :   -82.9966122 Eh     change       -0.1763859E-03 Eh
 * total energy  :   -82.9966918 Eh     change       -0.7954067E-04 Eh
 * total energy  :   -82.9967410 Eh     change       -0.4917842E-04 Eh
 * total energy  :   -82.9971391 Eh     change       -0.7165984E-05 Eh
 * total energy  :   -82.9971476 Eh     change       -0.8492723E-05 Eh
 * total energy  :   -82.9971549 Eh     change       -0.7269811E-05 Eh
 * total energy  :   -82.9971626 Eh     change       -0.7729333E-05 Eh
 * total energy  :   -82.9971711 Eh     change       -0.8491648E-05 Eh
 * total energy  :   -82.9971790 Eh     change       -0.7893400E-05 Eh
 * total energy  :   -82.9971856 Eh     change       -0.6624870E-05 Eh
 * total energy  :   -82.9971911 Eh     change       -0.5419333E-05 Eh
 * total energy  :   -82.9971957 Eh     change       -0.4606164E-05 Eh
   *** GEOMETRY OPTIMIZATION CONVERGED AFTER 37 ITERATIONS ***

 final structure:
================
42
 xtb: 6.5.1 (579679a)
C           -4.90353301024833       -3.49548848278979        0.29311722794006
O           -3.87581631893838       -2.52077894726991        0.11318859624632
C           -4.16151030447725       -1.27613202967898        0.53682998335976
O           -5.22432163612051       -0.99611924962917        1.04541457594044
C           -3.04003281608715       -0.33858892981393        0.29521215735117
N           -1.94273075506734       -0.87907592392337       -0.28071093708258
C           -0.90566634787988       -0.15862904228356       -0.55725938611095
C            0.30424802833544       -0.74303749868462       -1.24698297743031
C            0.26421537787217       -0.33339321834812       -2.72759235116997
C            0.30977080719416       -2.26657565898417       -1.09014075102119
N            1.49265943709355       -0.17038392604213       -0.60195708302533
C            2.75558085033382       -0.42473801822749       -1.01816637422273
O            3.06267728948779       -1.05977638760019       -2.00900828971059
C            3.74273217021148        0.19849959699197       -0.10041506243570
N            3.46864376805081        0.85102682766445        0.98968169110159
N            4.65879383270215        1.24611982046082        1.52042955485513
C            5.58424201493114        0.80879203716765        0.71998474479911
C            7.04782104697681        0.97911276962210        0.85197468046727
O            5.06801420097886        0.13819299009454       -0.32010301350193
N           -0.91089974744096        1.18966881295680       -0.29020661892221
C           -1.93878304442453        1.80560914563407        0.28755886222015
O           -1.74427282835912        3.10148517652550        0.46201525411345
C           -2.72521242016662        3.94861702378880        1.07752616041616
C           -3.14145041640425        1.04507095015830        0.65125959767712
O           -4.10846818889980        1.59370756811549        1.19749245151374
H           -5.13815979358426       -3.60808935610161        1.35504770427362
H           -4.52048514199160       -4.43196889692719       -0.10758012918767
H           -5.80725621815859       -3.19704856988301       -0.24517710180115
H            1.08347182949761       -0.79791838693085       -3.27238778239512
H            0.34679672071027        0.74833855193266       -2.81435666520323
H           -0.68015695829073       -0.65496603308154       -3.16411895353807
H            0.37363813649288       -2.53009836540532       -0.03548618619682
H            1.16047132926976       -2.69127837821616       -1.61946679475350
H           -0.61191865237302       -2.67478495035040       -1.50188891492988
H            1.38341383633933        0.26821807643911        0.29955943748651
H            7.26954234133873        1.56074851187478        1.74338707757731
H            7.44287003266946        1.48995173080681       -0.02632967465532
H            7.53139411144590        0.00453895087648        0.92138878253662
H           -0.10990643658330        1.75409934155141       -0.53580853033641
H           -2.28247928682183        4.94436079876719        1.08318264135553
H           -3.64940903688635        3.95115396397911        0.49721005959318
H           -2.92852880272910        3.62155660476328        2.09863633680644

          :  Hamiltonian                  GFN1-xTB          :
         :: total energy             -82.997195660611 Eh    ::
         :: gradient norm              0.000383599416 Eh/a0 ::
         :: HOMO-LUMO gap              2.196599855714 eV    ::
         :: SCC energy               -83.775788185860 Eh    ::
         :: -> Gsolv                  -0.060339773682 Eh    ::
         :: repulsion energy           0.803354541564 Eh    ::

    * Orbital Energies and Occupations

         #    Occupation            Energy/Eh            Energy/eV
      -------------------------------------------------------------
         1        2.0000           -0.8660829             -23.5673
       ...           ...                  ...                  ...
        55        2.0000           -0.5075735             -13.8118
        56        2.0000           -0.5040134             -13.7149
        57        2.0000           -0.4955636             -13.4850
        58        2.0000           -0.4883133             -13.2877
        59        2.0000           -0.4853569             -13.2072
        60        2.0000           -0.4729800             -12.8704
        61        2.0000           -0.4718584             -12.8399
        62        2.0000           -0.4664758             -12.6935
        63        2.0000           -0.4640385             -12.6271
        64        2.0000           -0.4549249             -12.3791
        65        2.0000           -0.4514950             -12.2858
        66        2.0000           -0.4235825             -11.5263
        67        2.0000           -0.4147883             -11.2870 (HOMO)
        68                         -0.3340647              -9.0904 (LUMO)
        69                         -0.3144096              -8.5555
        70                         -0.2847284              -7.7479
        71                         -0.2590714              -7.0497
        72                         -0.2425143              -6.5991
        73                         -0.2024139              -5.5080
        74                         -0.1553966              -4.2286
        75                         -0.1440269              -3.9192
        76                         -0.1430957              -3.8938
        77                         -0.1344324              -3.6581
        78                         -0.1341677              -3.6509
       ...                                ...                  ...
       134                          0.7289205              19.8349
      -------------------------------------------------------------
                  HL-Gap            0.0807236 Eh            2.1966 eV

Wiberg/Mayer (AO) data.
largest (>0.10) Wiberg bond orders for each atom

     #   Z sym  total        # sym  WBO       # sym  WBO       # sym  WBO
 ---------------------------------------------------------------------------
     1   6 C    3.879 --    27 H    0.986    26 H    0.980    28 H    0.980
                             2 O    0.906
     2   8 O    2.178 --     3 C    1.083     1 C    0.906     4 O    0.127
     3   6 C    3.854 --     4 O    1.648     2 O    1.083     5 C    1.033
     4   8 O    1.916 --     3 C    1.648     2 O    0.127
     5   6 C    3.949 --     6 N    1.281    24 C    1.214     3 C    1.033
                            25 O    0.130
     6   7 N    3.044 --     7 C    1.544     5 C    1.281
     7   6 C    3.915 --     6 N    1.544    20 N    1.118     8 C    0.984
     8   6 C    3.932 --    10 C    0.990     7 C    0.984     9 C    0.977
                            11 N    0.921
     9   6 C    3.986 --    31 H    0.985    30 H    0.985    29 H    0.977
                             8 C    0.977
    10   6 C    3.989 --     8 C    0.990    32 H    0.985    34 H    0.983
                            33 H    0.982
    11   7 N    3.327 --    12 C    1.237     8 C    0.921    35 H    0.895
                            13 O    0.174
    12   6 C    3.915 --    13 O    1.605    11 N    1.237    14 C    0.990
    13   8 O    1.920 --    12 C    1.605    11 N    0.174
    14   6 C    3.876 --    15 N    1.608    19 O    1.065    12 C    0.990
    15   7 N    3.018 --    14 C    1.608    16 N    1.202
    16   7 N    2.981 --    17 C    1.602    15 N    1.202
    17   6 C    3.870 --    16 N    1.602    19 O    1.084    18 C    1.032
    18   6 C    3.986 --    17 C    1.032    36 H    0.982    37 H    0.963
                            38 H    0.963
    19   8 O    2.332 --    17 C    1.084    14 C    1.065
    20   7 N    3.529 --    21 C    1.320     7 C    1.118    39 H    0.877
    21   6 C    3.856 --    20 N    1.320    22 O    1.143    24 C    1.068
    22   8 O    2.226 --    21 C    1.143    23 C    0.876
    23   6 C    3.846 --    40 H    0.984    42 H    0.977    41 H    0.977
                            22 O    0.876
    24   6 C    3.950 --    25 O    1.513     5 C    1.214    21 C    1.068
    25   8 O    1.862 --    24 C    1.513     5 C    0.130
    26   1 H    1.008 --     1 C    0.980
    27   1 H    1.012 --     1 C    0.986
    28   1 H    1.009 --     1 C    0.980
    29   1 H    1.009 --     9 C    0.977
    30   1 H    1.001 --     9 C    0.985
    31   1 H    1.001 --     9 C    0.985
    32   1 H    1.004 --    10 C    0.985
    33   1 H    1.006 --    10 C    0.982
    34   1 H    1.009 --    10 C    0.983
    35   1 H    0.952 --    11 N    0.895
    36   1 H    0.998 --    18 C    0.982
    37   1 H    0.996 --    18 C    0.963
    38   1 H    0.996 --    18 C    0.963
    39   1 H    0.925 --    20 N    0.877
    40   1 H    1.009 --    23 C    0.984
    41   1 H    1.015 --    23 C    0.977
    42   1 H    1.015 --    23 C    0.977
 ---------------------------------------------------------------------------

           -------------------------------------------------
          | TOTAL ENERGY              -82.997195660611 Eh   |
          | GRADIENT NORM               0.000383599416 Eh/α |
          | HOMO-LUMO GAP               2.196599855714 eV   |
           -------------------------------------------------

 * finished run on 2023/06/21 at 18:02:59.116
