   * xtb version 6.5.1 (579679a) compiled by 'ehlert@majestix' on 2022-07-11
          program call               : /lustre/hpc/kemi/ree/PhD/git/ReactivityQM/dep/xtb-6.5.1/bin/xtb --gfn 1 /lustre/hpc/kemi/ree/PhD/git/ReactivityQM/calculations/R02deprot/reac01prodN11/conf06/R02deprot_reac01prodN11_conf06_gfn1.xyz --opt --vfukui --chrg 0 --uhf 0 --alpb DMSO

   ID    Z sym.   atoms
    1    6 C      1, 3, 5, 6, 8, 11-15, 17, 19, 22, 23
    2    8 O      2, 4, 7, 9, 18, 24
    3    7 N      10, 16, 20, 21, 25
    4    1 H      26-42

      * Solvation model:               ALPB
        Solvent                        DMSO
        Solvent mass                       7.8130E+01 g/mol
          :  Hamiltonian                  GFN1-xTB          :
 * total energy  :   -82.9202905 Eh     change       -0.8185452E-11 Eh
 * total energy  :   -82.9327456 Eh     change       -0.1245506E-01 Eh
 * total energy  :   -82.9370979 Eh     change       -0.4352348E-02 Eh
 * total energy  :   -82.9381033 Eh     change       -0.1005436E-02 Eh
 * total energy  :   -82.9389649 Eh     change       -0.8615347E-03 Eh
 * total energy  :   -82.9395551 Eh     change       -0.5902479E-03 Eh
 * total energy  :   -82.9401618 Eh     change       -0.6067179E-03 Eh
 * total energy  :   -82.9407194 Eh     change       -0.5575343E-03 Eh
 * total energy  :   -82.9410804 Eh     change       -0.3609892E-03 Eh
 * total energy  :   -82.9412891 Eh     change       -0.2087514E-03 Eh
 * total energy  :   -82.9423899 Eh     change       -0.1653078E-04 Eh
 * total energy  :   -82.9424022 Eh     change       -0.1232533E-04 Eh
 * total energy  :   -82.9424107 Eh     change       -0.8542686E-05 Eh
 * total energy  :   -82.9424202 Eh     change       -0.9456172E-05 Eh
 * total energy  :   -82.9424285 Eh     change       -0.8344037E-05 Eh
 * total energy  :   -82.9424366 Eh     change       -0.8091317E-05 Eh
 * total energy  :   -82.9424427 Eh     change       -0.6085391E-05 Eh
 * total energy  :   -82.9424487 Eh     change       -0.5991640E-05 Eh
 * total energy  :   -82.9424520 Eh     change       -0.3259863E-05 Eh
   *** GEOMETRY OPTIMIZATION CONVERGED AFTER 44 ITERATIONS ***

 final structure:
================
42
 xtb: 6.5.1 (579679a)
C           -1.53580533877224        3.35015383777526        1.97357986352193
O           -1.47804779456364        2.17483257494476        1.15535030612689
C           -2.62631931294015        1.56922775871381        0.89750305606872
O           -3.69953689958162        1.93773730699702        1.30155277384362
C           -2.42589244726171        0.35048875785833        0.02587740705133
C           -3.49098889367408       -0.50218324657168       -0.35085241692282
O           -4.73069463662875       -0.34463602491049       -0.03501355309087
C           -3.23603940169784       -1.71905954470141       -1.17098612712399
O           -4.23507405035282       -2.41141083464694       -1.40756093508375
N           -1.98784062715352       -1.93208281144573       -1.56524733925119
C           -0.95692927702940       -1.03537651495666       -1.22155833784465
C           -0.42798600270805       -0.41177557889191       -2.53881252271804
C            0.19001855898359       -1.85905529936708       -0.51406947564897
C            0.70605960157893       -2.95572484048315       -1.44247824867015
C           -0.36217932484591       -2.45351792286134        0.78524718103713
N            1.24025385700775       -0.89651363460935       -0.19889987968521
C            2.44750432632996       -1.24523253681694        0.29583006023467
O            2.86164439373427       -2.38440374246660        0.42447751575782
C            3.26933936055298       -0.06308194145747        0.65927174327166
N            4.47657422631672       -0.05443709154427        1.13267769495431
N            4.82174868922547        1.25184514802336        1.30692640241265
C            3.80426506503084        1.96109636880486        0.92887160533366
C            3.68165232771998        3.43457981519219        0.92437118279135
O            2.78754129525258        1.19061267070051        0.50809763379247
N           -1.22138862456466        0.07515414213683       -0.37868285835771
H           -1.78374671373072        3.07323456095329        3.00036084646458
H           -0.54846472103546        3.80374646882867        1.93153631805607
H           -2.29078590941900        4.03807435825082        1.58731194459031
H           -5.20000294348001       -1.13268801764388       -0.44573194082037
H           -0.26448957494850       -1.20130024704730       -3.26713226749650
H           -1.18029937435029        0.27621406778365       -2.91761136810126
H            0.49670728213332        0.12732401079406       -2.35141146623986
H           -0.13866549413388       -3.48714782566072       -1.87845798159952
H            1.31240099498460       -3.66238117040927       -0.87793205486120
H            1.31688944254523       -2.53542141250517       -2.23873062902397
H            0.43305929318445       -2.99507462093896        1.29632039729681
H           -1.17595076273294       -3.14130032641426        0.56181830860120
H           -0.72843607863439       -1.66374562085279        1.43855203265557
H            0.94677003810840        0.06535632226635       -0.09843987060165
H            4.60230570088229        3.87982007346795        1.29402273684890
H            2.84826692193866        3.73921582634309        1.55674639571895
H            3.48256382872923        3.78884173736959       -0.08669213327724

          :  Hamiltonian                  GFN1-xTB          :
         :: total energy             -82.942451950825 Eh    ::
         :: gradient norm              0.000529647843 Eh/a0 ::
         :: HOMO-LUMO gap              0.963180429981 eV    ::
         :: SCC energy               -83.706654327772 Eh    ::
         :: -> Gsolv                  -0.054312787017 Eh    ::
         :: repulsion energy           0.791826544061 Eh    ::

    * Orbital Energies and Occupations

         #    Occupation            Energy/Eh            Energy/eV
      -------------------------------------------------------------
         1        2.0000           -0.8670162             -23.5927
       ...           ...                  ...                  ...
        55        2.0000           -0.5046030             -13.7309
        56        2.0000           -0.5042753             -13.7220
        57        2.0000           -0.4982868             -13.5591
        58        2.0000           -0.4945076             -13.4562
        59        2.0000           -0.4886163             -13.2959
        60        2.0000           -0.4812950             -13.0967
        61        2.0000           -0.4678219             -12.7301
        62        2.0000           -0.4637059             -12.6181
        63        2.0000           -0.4616238             -12.5614
        64        2.0000           -0.4535033             -12.3405
        65        2.0000           -0.4497312             -12.2378
        66        2.0000           -0.4323029             -11.7636
        67        2.0000           -0.4270025             -11.6193 (HOMO)
        68                         -0.3916063             -10.6561 (LUMO)
        69                         -0.3220290              -8.7629
        70                         -0.3126997              -8.5090
        71                         -0.2582553              -7.0275
        72                         -0.2360301              -6.4227
        73                         -0.2007836              -5.4636
        74                         -0.1831373              -4.9834
        75                         -0.1478229              -4.0225
        76                         -0.1386265              -3.7722
        77                         -0.1355173              -3.6876
        78                         -0.1223041              -3.3281
       ...                                ...                  ...
       134                          0.7387908              20.1035
      -------------------------------------------------------------
                  HL-Gap            0.0353962 Eh            0.9632 eV

Wiberg/Mayer (AO) data.
largest (>0.10) Wiberg bond orders for each atom

     #   Z sym  total        # sym  WBO       # sym  WBO       # sym  WBO
 ---------------------------------------------------------------------------
     1   6 C    3.860 --    27 H    0.986    28 H    0.979    26 H    0.978
                             2 O    0.886
     2   8 O    2.219 --     3 C    1.139     1 C    0.886     4 O    0.144
     3   6 C    3.855 --     4 O    1.683     2 O    1.139     5 C    0.955
     4   8 O    1.942 --     3 C    1.683     2 O    0.144
     5   6 C    3.963 --    25 N    1.581     6 C    1.200     3 C    0.955
     6   6 C    3.830 --     7 O    1.299     5 C    1.200     8 C    1.000
                            10 N    0.149
     7   8 O    2.236 --     6 C    1.299    29 H    0.742
     8   6 C    3.936 --     9 O    1.483    10 N    1.351     6 C    1.000
     9   8 O    1.861 --     8 C    1.483    10 N    0.166
    10   7 N    3.021 --     8 C    1.351    11 C    1.058     9 O    0.166
                             6 C    0.149    25 N    0.143
    11   6 C    3.940 --    10 N    1.058    25 N    1.032    12 C    0.892
                            13 C    0.859
    12   6 C    3.976 --    31 H    0.983    32 H    0.983    30 H    0.980
                            11 C    0.892
    13   6 C    3.925 --    14 C    1.001    15 C    0.989    16 N    0.936
                            11 C    0.859
    14   6 C    3.988 --    13 C    1.001    35 H    0.983    33 H    0.981
                            34 H    0.972
    15   6 C    3.989 --    13 C    0.989    38 H    0.985    37 H    0.983
                            36 H    0.979
    16   7 N    3.349 --    17 C    1.247    13 C    0.936    39 H    0.885
                            18 O    0.173
    17   6 C    3.915 --    18 O    1.591    16 N    1.247    19 C    0.992
    18   8 O    1.905 --    17 C    1.591    16 N    0.173
    19   6 C    3.871 --    20 N    1.622    24 O    1.047    17 C    0.992
    20   7 N    3.000 --    19 C    1.622    21 N    1.199
    21   7 N    2.982 --    22 C    1.610    20 N    1.199
    22   6 C    3.868 --    21 N    1.610    24 O    1.073    23 C    1.032
    23   6 C    3.986 --    22 C    1.032    40 H    0.982    41 H    0.963
                            42 H    0.963
    24   8 O    2.316 --    22 C    1.073    19 C    1.047
    25   7 N    3.042 --     5 C    1.581    11 C    1.032    10 N    0.143
    26   1 H    1.004 --     1 C    0.978
    27   1 H    1.010 --     1 C    0.986
    28   1 H    1.005 --     1 C    0.979
    29   1 H    0.834 --     7 O    0.742
    30   1 H    1.005 --    12 C    0.980
    31   1 H    1.000 --    12 C    0.983
    32   1 H    1.002 --    12 C    0.983
    33   1 H    1.012 --    14 C    0.981
    34   1 H    1.009 --    14 C    0.972
    35   1 H    1.002 --    14 C    0.983
    36   1 H    1.004 --    15 C    0.979
    37   1 H    1.004 --    15 C    0.983
    38   1 H    1.003 --    15 C    0.985
    39   1 H    0.957 --    16 N    0.885
    40   1 H    0.998 --    23 C    0.982
    41   1 H    0.998 --    23 C    0.963
    42   1 H    0.997 --    23 C    0.963
 ---------------------------------------------------------------------------

           -------------------------------------------------
          | TOTAL ENERGY              -82.942451950825 Eh   |
          | GRADIENT NORM               0.000529647843 Eh/α |
          | HOMO-LUMO GAP               0.963180429981 eV   |
           -------------------------------------------------

 * finished run on 2023/06/20 at 18:18:13.269
