   * xtb version 6.5.1 (579679a) compiled by 'ehlert@majestix' on 2022-07-11
          program call               : /lustre/hpc/kemi/ree/PhD/git/ReactivityQM/dep/xtb-6.5.1/bin/xtb --gfn 1 /lustre/hpc/kemi/ree/PhD/git/ReactivityQM/calculations/R01/reac02prodE01/conf11/R01_reac02prodE01_conf11_gfn1.xyz --opt --vfukui --chrg -1 --uhf 0 --alpb DMSO

   ID    Z sym.   atoms
    1    6 C      1, 3, 4, 6, 8-11, 14, 16
    2    8 O      2, 5, 15, 17
    3    7 N      7, 12, 13
    4    1 H      18-33

      * Solvation model:               ALPB
        Solvent                        DMSO
        Solvent mass                       7.8130E+01 g/mol
          :  Hamiltonian                  GFN1-xTB          :
 * total energy  :   -58.5395089 Eh     change       -0.5165646E-11 Eh
 * total energy  :   -58.5465869 Eh     change       -0.7077964E-02 Eh
 * total energy  :   -58.5492513 Eh     change       -0.2664433E-02 Eh
 * total energy  :   -58.5506533 Eh     change       -0.1401948E-02 Eh
 * total energy  :   -58.5524533 Eh     change       -0.1800004E-02 Eh
 * total energy  :   -58.5541700 Eh     change       -0.1716773E-02 Eh
 * total energy  :   -58.5559104 Eh     change       -0.1740401E-02 Eh
 * total energy  :   -58.5585717 Eh     change       -0.2661300E-02 Eh
 * total energy  :   -58.5601011 Eh     change       -0.1529333E-02 Eh
 * total energy  :   -58.5612151 Eh     change       -0.1113983E-02 Eh
 * total energy  :   -58.5730449 Eh     change       -0.2307661E-04 Eh
 * total energy  :   -58.5730741 Eh     change       -0.2922584E-04 Eh
 * total energy  :   -58.5731110 Eh     change       -0.3686899E-04 Eh
 * total energy  :   -58.5731226 Eh     change       -0.1154712E-04 Eh
 * total energy  :   -58.5731368 Eh     change       -0.1419476E-04 Eh
 * total energy  :   -58.5731450 Eh     change       -0.8274487E-05 Eh
 * total energy  :   -58.5731552 Eh     change       -0.1012951E-04 Eh
 * total energy  :   -58.5731693 Eh     change       -0.1417759E-04 Eh
 * total energy  :   -58.5731741 Eh     change       -0.4796523E-05 Eh
   *** GEOMETRY OPTIMIZATION CONVERGED AFTER 44 ITERATIONS ***

 final structure:
================
33
 xtb: 6.5.1 (579679a)
C            3.92115823662302        1.56102831371034       -0.51105789205739
O            2.63851316648960        1.15953193100196       -0.07532552745245
C            2.34408621737882       -0.25731842250163       -0.14475200189730
C            2.19428648605310       -0.68158466632763       -1.61952528237739
O            3.36100305576278       -1.00380915657028        0.43784658595828
C            1.02181064122291       -0.44106580687608        0.60591986428407
N           -0.10468609749808       -0.12190535490657       -0.10059150895685
C           -1.26179631157377       -0.21932703702086        0.46553055890637
C           -2.53606923686472        0.11602196373712       -0.28941176348293
C           -2.17879852428651        0.73519131044592       -1.64455023791069
C           -3.37332182091685       -1.15423843542615       -0.49166334818107
N           -3.34851771713447        1.07927521335789        0.45752262688301
N           -1.38050341318592       -0.63648391598585        1.76908851746401
C           -0.32051138345205       -1.00061030344505        2.57258875741719
O           -0.54159886311176       -1.36632332710435        3.73181112812494
C            1.01118704867654       -0.89146371819675        1.92461533956167
O            2.06510977573558       -1.20807905129973        2.58206850492072
H            3.99157144402104        1.59164824542081       -1.60744874501310
H            4.09298377985326        2.56934448893247       -0.12531264927782
H            4.70637751461627        0.89726499737628       -0.12676643111381
H            1.88290903978450       -1.72400456340369       -1.65707573138317
H            1.44373209778341       -0.06245384691376       -2.10688698227049
H            3.14612016517517       -0.57911953627144       -2.13658530068188
H           -1.62195391202840        0.02012967789188       -2.24984425123415
H           -1.56165688776721        1.62213940964985       -1.50120193844927
H           -3.08942170120825        1.01894305116991       -2.17057072764109
H           -2.81846723596680       -1.88253160331705       -1.08255854419337
H           -3.62293032111848       -1.60131752490694        0.47000202021584
H           -4.29897537598763       -0.90752563514078       -1.01073779300006
H           -3.74710311214059        0.64388629850000        1.27705541714934
H           -2.77950535730491        1.86060043448692        0.75732760475725
H           -2.29439140851309       -0.67581436737217        2.18889438139081
H            3.05936101088055       -1.15016606269521        1.41159234954241

          :  Hamiltonian                  GFN1-xTB          :
         :: total energy             -58.573174131676 Eh    ::
         :: gradient norm              0.000352625435 Eh/a0 ::
         :: HOMO-LUMO gap              2.902266735790 eV    ::
         :: SCC energy               -59.104271170820 Eh    ::
         :: -> Gsolv                  -0.104610282570 Eh    ::
         :: repulsion energy           0.550138143348 Eh    ::

    * Orbital Energies and Occupations

         #    Occupation            Energy/Eh            Energy/eV
      -------------------------------------------------------------
         1        2.0000           -0.7848805             -21.3577
       ...           ...                  ...                  ...
        36        2.0000           -0.4817903             -13.1102
        37        2.0000           -0.4746520             -12.9159
        38        2.0000           -0.4735618             -12.8863
        39        2.0000           -0.4650132             -12.6537
        40        2.0000           -0.4495857             -12.2338
        41        2.0000           -0.4409008             -11.9975
        42        2.0000           -0.4345648             -11.8251
        43        2.0000           -0.4261632             -11.5965
        44        2.0000           -0.4211506             -11.4601
        45        2.0000           -0.4111307             -11.1874
        46        2.0000           -0.3934798             -10.7071
        47        2.0000           -0.3625820              -9.8664
        48        2.0000           -0.3462999              -9.4233 (HOMO)
        49                         -0.2396436              -6.5210 (LUMO)
        50                         -0.2242012              -6.1008
        51                         -0.1185132              -3.2249
        52                         -0.1166719              -3.1748
        53                         -0.1130335              -3.0758
        54                         -0.1097760              -2.9872
        55                         -0.0998577              -2.7173
        56                         -0.0964271              -2.6239
        57                         -0.0670572              -1.8247
        58                         -0.0647822              -1.7628
        59                         -0.0584079              -1.5894
       ...                                ...                  ...
       100                          0.7321959              19.9241
      -------------------------------------------------------------
                  HL-Gap            0.1066563 Eh            2.9023 eV

Wiberg/Mayer (AO) data.
largest (>0.10) Wiberg bond orders for each atom

     #   Z sym  total        # sym  WBO       # sym  WBO       # sym  WBO
 ---------------------------------------------------------------------------
     1   6 C    3.923 --    19 H    0.984    18 H    0.982    20 H    0.979
                             2 O    0.954
     2   8 O    1.978 --     1 C    0.954     3 C    0.883
     3   6 C    3.862 --     5 O    0.997     4 C    0.976     6 C    0.959
                             2 O    0.883
     4   6 C    3.996 --    21 H    0.987    22 H    0.987    23 H    0.985
                             3 C    0.976
     5   8 O    1.879 --     3 C    0.997    33 H    0.715
     6   6 C    3.938 --    16 C    1.396     7 N    1.215     3 C    0.959
                            17 O    0.139
     7   7 N    3.033 --     8 C    1.567     6 C    1.215
     8   6 C    3.928 --     7 N    1.567    13 N    1.124     9 C    0.972
     9   6 C    3.968 --    10 C    0.999    11 C    0.989    12 N    0.975
                             8 C    0.972
    10   6 C    3.997 --     9 C    0.999    26 H    0.987    24 H    0.986
                            25 H    0.985
    11   6 C    3.994 --     9 C    0.989    27 H    0.986    29 H    0.985
                            28 H    0.984
    12   7 N    2.950 --     9 C    0.975    31 H    0.945    30 H    0.945
    13   7 N    3.433 --    14 C    1.138     8 C    1.124    32 H    0.902
                            15 O    0.129
    14   6 C    3.889 --    15 O    1.534    13 N    1.138    16 C    1.030
    15   8 O    1.828 --    14 C    1.534    13 N    0.129
    16   6 C    3.957 --     6 C    1.396    17 O    1.339    14 C    1.030
    17   8 O    1.823 --    16 C    1.339    33 H    0.159     6 C    0.139
    18   1 H    1.015 --     1 C    0.982
    19   1 H    1.021 --     1 C    0.984
    20   1 H    1.022 --     1 C    0.979
    21   1 H    1.013 --     4 C    0.987
    22   1 H    1.021 --     4 C    0.987
    23   1 H    1.007 --     4 C    0.985
    24   1 H    1.014 --    10 C    0.986
    25   1 H    1.011 --    10 C    0.985
    26   1 H    1.009 --    10 C    0.987
    27   1 H    1.005 --    11 C    0.986
    28   1 H    1.003 --    11 C    0.984
    29   1 H    1.005 --    11 C    0.985
    30   1 H    0.961 --    12 N    0.945
    31   1 H    0.963 --    12 N    0.945
    32   1 H    0.952 --    13 N    0.902
    33   1 H    0.888 --     5 O    0.715    17 O    0.159
 ---------------------------------------------------------------------------

           -------------------------------------------------
          | TOTAL ENERGY              -58.573174131676 Eh   |
          | GRADIENT NORM               0.000352625435 Eh/α |
          | HOMO-LUMO GAP               2.902266735790 eV   |
           -------------------------------------------------

 * finished run on 2023/06/20 at 14:57:25.333
