   * xtb version 6.5.1 (579679a) compiled by 'ehlert@majestix' on 2022-07-11
          program call               : /lustre/hpc/kemi/ree/PhD/git/ReactivityQM/dep/xtb-6.5.1/bin/xtb --gfn 1 /lustre/hpc/kemi/ree/PhD/git/ReactivityQM/calculations/R02oxygendeprot/reac01prodE11/conf06/R02oxygendeprot_reac01prodE11_conf06_gfn1.xyz --opt --vfukui --chrg -2 --uhf 0 --alpb DMSO

   ID    Z sym.   atoms
    1    6 C      1, 3, 5, 7-10, 12, 14, 17-19, 22, 24
    2    8 O      2, 4, 13, 20, 23, 25
    3    7 N      6, 11, 15, 16, 21
    4    1 H      26-42

      * Solvation model:               ALPB
        Solvent                        DMSO
        Solvent mass                       7.8130E+01 g/mol
          :  Hamiltonian                  GFN1-xTB          :
 * total energy  :   -83.6517975 Eh     change       -0.2987122E-10 Eh
 * total energy  :   -83.6630130 Eh     change       -0.1121549E-01 Eh
 * total energy  :   -83.6666017 Eh     change       -0.3588684E-02 Eh
 * total energy  :   -83.6670995 Eh     change       -0.4978174E-03 Eh
 * total energy  :   -83.6673459 Eh     change       -0.2463437E-03 Eh
 * total energy  :   -83.6674518 Eh     change       -0.1059524E-03 Eh
 * total energy  :   -83.6675540 Eh     change       -0.1021913E-03 Eh
 * total energy  :   -83.6676265 Eh     change       -0.7251533E-04 Eh
 * total energy  :   -83.6676663 Eh     change       -0.3979784E-04 Eh
 * total energy  :   -83.6676919 Eh     change       -0.2562224E-04 Eh
 * total energy  :   -83.6677519 Eh     change       -0.2079535E-04 Eh
 * total energy  :   -83.6677648 Eh     change       -0.1288086E-04 Eh
 * total energy  :   -83.6677856 Eh     change       -0.2081194E-04 Eh
 * total energy  :   -83.6677968 Eh     change       -0.1122054E-04 Eh
 * total energy  :   -83.6678051 Eh     change       -0.8281894E-05 Eh
 * total energy  :   -83.6678125 Eh     change       -0.7434338E-05 Eh
 * total energy  :   -83.6678194 Eh     change       -0.6905030E-05 Eh
 * total energy  :   -83.6678256 Eh     change       -0.6168042E-05 Eh
 * total energy  :   -83.6678298 Eh     change       -0.4239411E-05 Eh
   *** GEOMETRY OPTIMIZATION CONVERGED AFTER 21 ITERATIONS ***

 final structure:
================
42
 xtb: 6.5.1 (579679a)
C           -7.06714693885428        0.51607660557100        1.35832098260834
O           -5.94408152246950        0.86611222599500        0.56493467604048
C           -4.85743425029474        0.05708446591638        0.69066918685478
O           -4.88444056523883       -0.89859683389224        1.45974034845257
C           -3.72416311992950        0.42383536265851       -0.14131154802908
N           -2.64906154719957       -0.43604873473461        0.01335543932920
C           -1.56975392319124       -0.25754268457391       -0.65234659264788
C           -0.40027232705313       -1.21823244072896       -0.54279305537657
C           -0.52853438574938       -2.03907479009574        0.74844100086361
C           -0.43651471059734       -2.13808475241403       -1.77540436133918
N            0.81919764991989       -0.40817275286860       -0.55181541154902
C            2.07469940939181       -1.02280734860911       -0.31899169791113
O            2.27127828506703       -2.22825516108534       -0.56460391116453
C            3.02638727348194       -0.09311542303731        0.15457131243300
N            2.78140625666537        1.18135108531382        0.43303203262440
N            3.84782535216197        1.78542804968582        0.86403915312532
C            4.93740099634037        0.79579660587424        0.88147842195914
C            6.07009128192581        1.24977462799372       -0.05507804403449
C            5.45716442860588        0.62547299462773        2.31924934745525
O            4.36987457142477       -0.41909003023788        0.41495033506294
N           -1.43336176618472        0.78380808226806       -1.54896948266373
C           -2.40901874621060        1.70768695832894       -1.80008267634286
O           -2.20564928223896        2.60926578090782       -2.61416893644897
C           -3.69816367655953        1.53064085002086       -1.02866534314975
O           -4.62246528990918        2.34595949258616       -1.22129119521079
H           -7.84933406956005        1.24380026375586        1.14518453265446
H           -6.81632293625128        0.54547423056024        2.42379343729602
H           -7.42106092100193       -0.48950470496565        1.10910731245478
H           -1.49567360151084       -2.54108030308859        0.76498265387224
H           -0.46088983323847       -1.38421106071450        1.61691349862750
H            0.26142853743610       -2.78618414809385        0.80182254800255
H           -1.39764981713712       -2.64987130692040       -1.82069924653475
H            0.35651136496897       -2.88182240560558       -1.72431014653432
H           -0.30833864185019       -1.54746417199856       -2.68196344591764
H            0.72294136445671        0.45410551802042       -0.02209240536722
H            6.87918966936239        0.52143707427135       -0.04942262380021
H            6.45159363030060        2.21453644035302        0.27258012187951
H            5.68462332620770        1.34519143636009       -1.06904785477326
H            6.23712762354059       -0.13312676776437        2.35051195990842
H            5.85862062310521        1.57074607127118        2.67830704084346
H            4.63621831698529        0.31899379268142        2.96567415461436
H           -0.56424608911861        0.87971080640695       -2.05398551816416

          :  Hamiltonian                  GFN1-xTB          :
         :: total energy             -83.667829821950 Eh    ::
         :: gradient norm              0.000459892491 Eh/a0 ::
         :: HOMO-LUMO gap              1.320919399643 eV    ::
         :: SCC energy               -84.404565995618 Eh    ::
         :: -> Gsolv                  -0.252997112412 Eh    ::
         :: repulsion energy           0.762095211838 Eh    ::

    * Orbital Energies and Occupations

         #    Occupation            Energy/Eh            Energy/eV
      -------------------------------------------------------------
         1        2.0000           -0.7931381             -21.5824
       ...           ...                  ...                  ...
        56        2.0000           -0.4472228             -12.1696
        57        2.0000           -0.4434233             -12.0662
        58        2.0000           -0.4312078             -11.7338
        59        2.0000           -0.4305581             -11.7161
        60        2.0000           -0.4295846             -11.6896
        61        2.0000           -0.4132417             -11.2449
        62        2.0000           -0.4064328             -11.0596
        63        2.0000           -0.4001900             -10.8897
        64        2.0000           -0.3875012             -10.5444
        65        2.0000           -0.3709079             -10.0929
        66        2.0000           -0.3673502              -9.9961
        67        2.0000           -0.3572029              -9.7200
        68        2.0000           -0.3116510              -8.4805 (HOMO)
        69                         -0.2631081              -7.1595 (LUMO)
        70                         -0.2359696              -6.4211
        71                         -0.2264636              -6.1624
        72                         -0.1900972              -5.1728
        73                         -0.1227183              -3.3393
        74                         -0.1194082              -3.2493
        75                         -0.1026055              -2.7920
        76                         -0.1016852              -2.7670
        77                         -0.0989102              -2.6915
        78                         -0.0956257              -2.6021
        79                         -0.0955388              -2.5997
       ...                                ...                  ...
       134                          0.7564476              20.5840
      -------------------------------------------------------------
                  HL-Gap            0.0485429 Eh            1.3209 eV

Wiberg/Mayer (AO) data.
largest (>0.10) Wiberg bond orders for each atom

     #   Z sym  total        # sym  WBO       # sym  WBO       # sym  WBO
 ---------------------------------------------------------------------------
     1   6 C    3.902 --    26 H    0.987    28 H    0.980    27 H    0.980
                             2 O    0.928
     2   8 O    2.155 --     3 C    1.040     1 C    0.928     4 O    0.108
     3   6 C    3.849 --     4 O    1.570     5 C    1.122     2 O    1.040
     4   8 O    1.847 --     3 C    1.570     2 O    0.108
     5   6 C    3.918 --    24 C    1.277     6 N    1.146     3 C    1.122
                            25 O    0.130
     6   7 N    3.026 --     7 C    1.638     5 C    1.146
     7   6 C    3.928 --     6 N    1.638    21 N    1.092     8 C    0.977
     8   6 C    3.957 --     9 C    0.990    10 C    0.982     7 C    0.977
                            11 N    0.950
     9   6 C    3.994 --     8 C    0.990    30 H    0.986    29 H    0.985
                            31 H    0.984
    10   6 C    3.992 --    32 H    0.988    34 H    0.986     8 C    0.982
                            33 H    0.978
    11   7 N    3.162 --    12 C    1.045     8 C    0.950    35 H    0.921
    12   6 C    3.924 --    13 O    1.467    14 C    1.228    11 N    1.045
    13   8 O    1.812 --    12 C    1.467
    14   6 C    3.849 --    15 N    1.391    12 C    1.228    20 O    0.933
                            16 N    0.160
    15   7 N    3.049 --    16 N    1.465    14 C    1.391
    16   7 N    2.880 --    15 N    1.465    17 C    0.981    14 C    0.160
    17   6 C    3.901 --    16 N    0.981    18 C    0.977    19 C    0.977
                            20 O    0.929
    18   6 C    3.995 --    37 H    0.988    36 H    0.987    38 H    0.985
                            17 C    0.977
    19   6 C    3.995 --    40 H    0.988    39 H    0.987    41 H    0.985
                            17 C    0.977
    20   8 O    2.054 --    14 C    0.933    17 C    0.929
    21   7 N    3.434 --    22 C    1.174     7 C    1.092    42 H    0.896
                            23 O    0.136
    22   6 C    3.882 --    23 O    1.564    21 N    1.174    24 C    0.971
    23   8 O    1.845 --    22 C    1.564    21 N    0.136
    24   6 C    3.944 --    25 O    1.509     5 C    1.277    22 C    0.971
    25   8 O    1.814 --    24 C    1.509     5 C    0.130
    26   1 H    1.016 --     1 C    0.987
    27   1 H    1.015 --     1 C    0.980
    28   1 H    1.015 --     1 C    0.980
    29   1 H    1.018 --     9 C    0.985
    30   1 H    1.008 --     9 C    0.986
    31   1 H    1.015 --     9 C    0.984
    32   1 H    1.007 --    10 C    0.988
    33   1 H    1.024 --    10 C    0.978
    34   1 H    1.009 --    10 C    0.986
    35   1 H    0.987 --    11 N    0.921
    36   1 H    1.008 --    18 C    0.987
    37   1 H    1.011 --    18 C    0.988
    38   1 H    1.015 --    18 C    0.985
    39   1 H    1.009 --    19 C    0.987
    40   1 H    1.010 --    19 C    0.988
    41   1 H    1.015 --    19 C    0.985
    42   1 H    0.956 --    21 N    0.896
 ---------------------------------------------------------------------------

           -------------------------------------------------
          | TOTAL ENERGY              -83.667829821950 Eh   |
          | GRADIENT NORM               0.000459892491 Eh/α |
          | HOMO-LUMO GAP               1.320919399643 eV   |
           -------------------------------------------------

 * finished run on 2023/06/21 at 17:12:39.961
