   * xtb version 6.5.1 (579679a) compiled by 'ehlert@majestix' on 2022-07-11
          program call               : /lustre/hpc/kemi/ree/PhD/git/ReactivityQM/dep/xtb-6.5.1/bin/xtb --gfn 1 /lustre/hpc/kemi/ree/PhD/git/ReactivityQM/calculations/R03/reac02prodN14/conf13/R03_reac02prodN14_conf13_gfn1.xyz --opt --vfukui --chrg 1 --uhf 0 --alpb DMSO

   ID    Z sym.   atoms
    1    6 C      1, 3, 5, 6, 8, 9, 12-16, 18, 20, 23, 24
    2    8 O      2, 4, 7, 10, 19, 25
    3    7 N      11, 17, 21, 22, 26
    4    1 H      27-46

      * Solvation model:               ALPB
        Solvent                        DMSO
        Solvent mass                       7.8130E+01 g/mol
          :  Hamiltonian                  GFN1-xTB          :
 * total energy  :   -86.2038577 Eh     change       -0.6297114E-09 Eh
 * total energy  :   -86.2242601 Eh     change       -0.2040242E-01 Eh
 * total energy  :   -86.2371553 Eh     change       -0.1289520E-01 Eh
 * total energy  :   -86.2420765 Eh     change       -0.4921206E-02 Eh
 * total energy  :   -86.2459230 Eh     change       -0.3846524E-02 Eh
 * total energy  :   -86.2478400 Eh     change       -0.1916966E-02 Eh
 * total energy  :   -86.2491516 Eh     change       -0.1311632E-02 Eh
 * total energy  :   -86.2503683 Eh     change       -0.1216664E-02 Eh
 * total energy  :   -86.2513923 Eh     change       -0.1024016E-02 Eh
 * total energy  :   -86.2525383 Eh     change       -0.1146043E-02 Eh
 * total energy  :   -86.3059160 Eh     change       -0.1635032E-04 Eh
 * total energy  :   -86.3059252 Eh     change       -0.9214142E-05 Eh
 * total energy  :   -86.3059372 Eh     change       -0.1193047E-04 Eh
 * total energy  :   -86.3059553 Eh     change       -0.1814750E-04 Eh
 * total energy  :   -86.3059697 Eh     change       -0.1443538E-04 Eh
 * total energy  :   -86.3059797 Eh     change       -0.9914162E-05 Eh
 * total energy  :   -86.3059890 Eh     change       -0.9316044E-05 Eh
 * total energy  :   -86.3059944 Eh     change       -0.5458528E-05 Eh
 * total energy  :   -86.3059989 Eh     change       -0.4493595E-05 Eh
   *** GEOMETRY OPTIMIZATION CONVERGED AFTER 69 ITERATIONS ***

 final structure:
================
46
 xtb: 6.5.1 (579679a)
C           -0.89781969716076        4.24428990929464       -1.50915351559217
O           -1.08764009291540        2.82403755381997       -1.36173814457397
C           -1.59873521563424        2.38750895263263       -0.23862949951897
O           -1.92209667538794        3.04237466221013        0.71301716760072
C           -1.71759074632622        0.86886027570347       -0.22646701972824
C           -2.96206534213361        0.22694291566334        0.27497668843494
O           -4.06422435893484        1.02647460987439        0.01712919011410
C           -3.11340863033749       -1.14774799821136       -0.35359454403489
C           -2.78835980426591       -0.01985306910780        1.80476438641064
O           -4.15583345330220       -1.71077506840072       -0.48050157275968
N           -1.87672025985372       -1.82139293649633       -0.67550849921385
C           -2.08635490131669       -3.20641984716599       -1.10760027995104
C           -0.71341692477329       -1.19850059943199       -0.56514916433614
C            0.64716034158020       -1.84157883025506       -0.63492776537661
C            0.76014454800528       -3.15401760071869        0.15457775906654
C            0.99971769794858       -2.01597214116547       -2.13078058335385
N            1.57947579039029       -0.88303460978658       -0.04848507780997
C            2.92699200202529       -1.04223773791954       -0.06722510641047
O            3.51214464697217       -1.99482992815376       -0.54792512105213
C            3.63245982354831        0.08312253614424        0.58370864450013
N            4.91116713155028        0.23475150335503        0.73253364528943
N            5.09365907832323        1.40996902053633        1.39169945603500
C            3.91520754136384        1.90716711000017        1.60737446575591
C            3.57898780924720        3.17060448172048        2.29737073780319
O            2.94414780237365        1.11674266930256        1.11818519675648
N           -0.68264978569732        0.16105182337206       -0.50696344656249
H           -0.14327470369735        4.37220006196700       -2.28233763217466
H           -1.84032693652713        4.70140666737033       -1.81488217701180
H           -0.56365623954770        4.67284042968693       -0.56315783387654
H           -4.88976589378578        0.56295490996640        0.21686921497015
H           -3.67296659506111       -0.53582961148781        2.17119966661982
H           -1.90111805351534       -0.61628723380325        1.99740808629702
H           -2.70010330959078        0.95210030242262        2.28743805487232
H           -1.23889291749739       -3.55781308374788       -1.68130649478132
H           -2.98247667886287       -3.22295434401590       -1.72657059407363
H           -2.24651357348764       -3.82517631675065       -0.22584666152445
H            0.32916526824410       -3.02699297353031        1.14527181970008
H            0.26732272792224       -3.97672478377980       -0.35329615258250
H            1.81594639219624       -3.40244758002028        0.25432354844566
H            1.04342661681984       -1.03790777207312       -2.60610232101775
H            1.97102376800385       -2.50201143122142       -2.20384895343572
H            0.25893261733396       -2.62767695990232       -2.63746958163912
H            1.19460603654956       -0.05385537249632        0.37698806755812
H            2.91545466792198        2.96848390045001        3.13775006075121
H            3.05949677516100        3.84086863146035        1.61296990086014
H            4.48937170611434        3.64728490268737        2.65391198454981

          :  Hamiltonian                  GFN1-xTB          :
         :: total energy             -86.305998925739 Eh    ::
         :: gradient norm              0.000878417666 Eh/a0 ::
         :: HOMO-LUMO gap              1.022813875448 eV    ::
         :: SCC energy               -87.136912694076 Eh    ::
         :: -> Gsolv                  -0.116158069547 Eh    ::
         :: repulsion energy           0.860761712161 Eh    ::

    * Orbital Energies and Occupations

         #    Occupation            Energy/Eh            Energy/eV
      -------------------------------------------------------------
         1        2.0000           -0.8983954             -24.4466
       ...           ...                  ...                  ...
        58        2.0000           -0.5360266             -14.5860
        59        2.0000           -0.5331941             -14.5090
        60        2.0000           -0.5303740             -14.4322
        61        2.0000           -0.5264213             -14.3247
        62        2.0000           -0.5224780             -14.2173
        63        2.0000           -0.5148598             -14.0100
        64        2.0000           -0.5039383             -13.7129
        65        2.0000           -0.4944571             -13.4549
        66        2.0000           -0.4901265             -13.3370
        67        2.0000           -0.4802334             -13.0678
        68        2.0000           -0.4773705             -12.9899
        69        2.0000           -0.4624959             -12.5852
        70        2.0000           -0.4619972             -12.5716 (HOMO)
        71                         -0.4244095             -11.5488 (LUMO)
        72                         -0.3514475              -9.5634
        73                         -0.3247260              -8.8362
        74                         -0.3122907              -8.4979
        75                         -0.2818228              -7.6688
        76                         -0.2653091              -7.2194
        77                         -0.2115117              -5.7555
        78                         -0.1765252              -4.8035
        79                         -0.1551660              -4.2223
        80                         -0.1540079              -4.1908
        81                         -0.1500979              -4.0844
       ...                                ...                  ...
       144                          0.7191729              19.5697
      -------------------------------------------------------------
                  HL-Gap            0.0375877 Eh            1.0228 eV

Wiberg/Mayer (AO) data.
largest (>0.10) Wiberg bond orders for each atom

     #   Z sym  total        # sym  WBO       # sym  WBO       # sym  WBO
 ---------------------------------------------------------------------------
     1   6 C    3.840 --    27 H    0.982    29 H    0.979    28 H    0.976
                             2 O    0.866
     2   8 O    2.242 --     3 C    1.176     1 C    0.866     4 O    0.157
     3   6 C    3.864 --     4 O    1.698     2 O    1.176     5 C    0.922
     4   8 O    1.986 --     3 C    1.698     2 O    0.157
     5   6 C    3.901 --    26 N    1.659     6 C    1.005     3 C    0.922
     6   6 C    3.939 --     5 C    1.005     7 O    0.999     8 C    0.935
                             9 C    0.876
     7   8 O    1.916 --     6 C    0.999    30 H    0.819
     8   6 C    3.851 --    10 O    1.801    11 N    0.970     6 C    0.935
     9   6 C    3.962 --    32 H    0.985    31 H    0.974    33 H    0.973
                             6 C    0.876
    10   8 O    2.053 --     8 C    1.801
    11   7 N    3.558 --    13 C    1.415     8 C    0.970    12 C    0.903
    12   6 C    3.881 --    34 H    0.974    35 H    0.964    36 H    0.962
                            11 N    0.903
    13   6 C    3.885 --    11 N    1.415    26 N    1.212    14 C    1.010
    14   6 C    3.933 --    13 C    1.010    15 C    0.969    17 N    0.946
                            16 C    0.930
    15   6 C    3.977 --    37 H    0.984    38 H    0.979    39 H    0.972
                            14 C    0.969
    16   6 C    3.969 --    40 H    0.983    42 H    0.979    41 H    0.966
                            14 C    0.930
    17   7 N    3.329 --    18 C    1.222    14 C    0.946    43 H    0.877
                            19 O    0.167
    18   6 C    3.911 --    19 O    1.600    17 N    1.222    20 C    1.001
    19   8 O    1.918 --    18 C    1.600    17 N    0.167
    20   6 C    3.875 --    21 N    1.618    25 O    1.045    18 C    1.001
    21   7 N    3.004 --    20 C    1.618    22 N    1.205
    22   7 N    2.983 --    23 C    1.605    21 N    1.205
    23   6 C    3.865 --    22 N    1.605    25 O    1.071    24 C    1.033
    24   6 C    3.985 --    23 C    1.033    46 H    0.982    44 H    0.962
                            45 H    0.961
    25   8 O    2.314 --    23 C    1.071    20 C    1.045
    26   7 N    3.112 --     5 C    1.659    13 C    1.212
    27   1 H    1.005 --     1 C    0.982
    28   1 H    1.000 --     1 C    0.976
    29   1 H    1.002 --     1 C    0.979
    30   1 H    0.837 --     7 O    0.819
    31   1 H    0.992 --     9 C    0.974
    32   1 H    0.994 --     9 C    0.985
    33   1 H    0.999 --     9 C    0.973
    34   1 H    1.001 --    12 C    0.974
    35   1 H    0.994 --    12 C    0.964
    36   1 H    0.990 --    12 C    0.962
    37   1 H    0.997 --    15 C    0.984
    38   1 H    0.998 --    15 C    0.979
    39   1 H    1.001 --    15 C    0.972
    40   1 H    0.997 --    16 C    0.983
    41   1 H    1.002 --    16 C    0.966
    42   1 H    0.998 --    16 C    0.979
    43   1 H    0.942 --    17 N    0.877
    44   1 H    0.996 --    24 C    0.962
    45   1 H    0.996 --    24 C    0.961
    46   1 H    0.997 --    24 C    0.982
 ---------------------------------------------------------------------------

           -------------------------------------------------
          | TOTAL ENERGY              -86.305998925739 Eh   |
          | GRADIENT NORM               0.000878417666 Eh/α |
          | HOMO-LUMO GAP               1.022813875448 eV   |
           -------------------------------------------------

 * finished run on 2023/06/20 at 15:50:23.416
