   * xtb version 6.5.1 (579679a) compiled by 'ehlert@majestix' on 2022-07-11
          program call               : /lustre/hpc/kemi/ree/PhD/git/ReactivityQM/dep/xtb-6.5.1/bin/xtb --gfn 1 /lustre/hpc/kemi/ree/PhD/git/ReactivityQM/calculations/R02deprot/reac01prodE08/conf14/R02deprot_reac01prodE08_conf14_gfn1.xyz --opt --vfukui --chrg -2 --uhf 0 --alpb DMSO

   ID    Z sym.   atoms
    1    6 C      1, 3, 5, 7-10, 12, 14, 15, 18, 19, 22, 24
    2    8 O      2, 4, 13, 20, 23, 25
    3    7 N      6, 11, 16, 17, 21
    4    1 H      26-42

      * Solvation model:               ALPB
        Solvent                        DMSO
        Solvent mass                       7.8130E+01 g/mol
          :  Hamiltonian                  GFN1-xTB          :
 * total energy  :   -83.6090623 Eh     change       -0.6394885E-11 Eh
 * total energy  :   -83.6238846 Eh     change       -0.1482230E-01 Eh
 * total energy  :   -83.6294639 Eh     change       -0.5579296E-02 Eh
 * total energy  :   -83.6303244 Eh     change       -0.8605088E-03 Eh
 * total energy  :   -83.6308805 Eh     change       -0.5560862E-03 Eh
 * total energy  :   -83.6310664 Eh     change       -0.1859024E-03 Eh
 * total energy  :   -83.6312126 Eh     change       -0.1461599E-03 Eh
 * total energy  :   -83.6313348 Eh     change       -0.1222259E-03 Eh
 * total energy  :   -83.6314382 Eh     change       -0.1034329E-03 Eh
 * total energy  :   -83.6315205 Eh     change       -0.8224093E-04 Eh
 * total energy  :   -83.6330021 Eh     change       -0.2694591E-04 Eh
 * total energy  :   -83.6330228 Eh     change       -0.2068047E-04 Eh
 * total energy  :   -83.6330354 Eh     change       -0.1256529E-04 Eh
 * total energy  :   -83.6330495 Eh     change       -0.1416490E-04 Eh
 * total energy  :   -83.6330591 Eh     change       -0.9548362E-05 Eh
 * total energy  :   -83.6330700 Eh     change       -0.1093712E-04 Eh
 * total energy  :   -83.6330755 Eh     change       -0.5448413E-05 Eh
 * total energy  :   -83.6330813 Eh     change       -0.5838475E-05 Eh
 * total energy  :   -83.6330846 Eh     change       -0.3293114E-05 Eh
   *** GEOMETRY OPTIMIZATION CONVERGED AFTER 48 ITERATIONS ***

 final structure:
================
42
 xtb: 6.5.1 (579679a)
C           -6.97286754433895       -0.34622159212253        0.11303004911761
O           -5.67427240527212       -0.27228820523590        0.69795185260221
C           -4.64703325667097       -0.08447718710920       -0.17519399206453
O           -4.85576154684176        0.01414545597996       -1.37142341994674
C           -3.32104135979575       -0.01974245911217        0.45923082364333
N           -2.30398983720039        0.17868282584612       -0.43638012313858
C           -1.07708096115102        0.24576155177147        0.04126748952178
C            0.00586496199867        0.48590970413774       -1.00999555847296
C           -0.07298006684375       -0.62503906499793       -2.06922860652350
C           -0.25128553360112        1.85609400136985       -1.66039321990501
N            1.30842508114334        0.47289083764740       -0.36627961888234
C            2.47898982823806        0.66864649260081       -0.97342073443682
O            2.61948780496689        0.86394970574688       -2.18309234811495
C            3.69230957283897        0.64767650536819        0.02305815478156
C            4.43912229573096        1.98723766584631       -0.14185090064308
N            3.23620573019099        0.44043481782034        1.38702390859503
N            3.81548990257859       -0.73130967761376        1.79938336987009
C            4.54608424995712       -1.21482431549827        0.86496189817977
C            5.35490789183379       -2.46511782139016        0.89281217148562
O            4.55748193699435       -0.44084969252260       -0.30291653277435
N           -0.70641731143445        0.14169320827246        1.30912686664622
C           -1.65048125920035       -0.05500962088213        2.27291036147259
O           -1.35093800466025       -0.15566935309948        3.47668823351400
C           -3.04137772001022       -0.13863371236915        1.80520503906409
O           -3.96775417096094       -0.33433861108513        2.78372503550133
H           -7.68260161426149       -0.47122416812907        0.92796134290931
H           -7.03401595807733       -1.19786832303623       -0.57015208373972
H           -7.19535674494679        0.57150504483660       -0.43826361931403
H            0.16927488694984       -1.58935176725973       -1.62234522903091
H            0.62171384412239       -0.42755001048360       -2.88450574691189
H           -1.08629383437836       -0.66609835497672       -2.46726707145251
H           -1.26534479572127        1.87684328870831       -2.05764912045061
H            0.45258724570114        2.03543611376780       -2.47192596225755
H           -0.14736802122544        2.64766575140373       -0.91828954758331
H            1.33851632023572        0.35733837453399        0.65668426986290
H            3.79740949304611        2.80133962114346        0.18988665614039
H            5.33998732514708        1.97195509664086        0.46798779309537
H            4.71144616835902        2.13978119405480       -1.18536902881826
H            5.02045691048594       -3.17008718790843        0.12747219424985
H            5.25614163348130       -2.93406518142865        1.87069024178362
H            6.41049397371404       -2.25281516007465        0.70942250630227
H           -4.86813711111996       -0.37084679116819        2.42946120613301

          :  Hamiltonian                  GFN1-xTB          :
         :: total energy             -83.633084598625 Eh    ::
         :: gradient norm              0.000813983003 Eh/a0 ::
         :: HOMO-LUMO gap              0.165398851201 eV    ::
         :: SCC energy               -84.364780160252 Eh    ::
         :: -> Gsolv                  -0.276670541895 Eh    ::
         :: repulsion energy           0.757710210530 Eh    ::

    * Orbital Energies and Occupations

         #    Occupation            Energy/Eh            Energy/eV
      -------------------------------------------------------------
         1        2.0000           -0.8112929             -22.0764
       ...           ...                  ...                  ...
        56        2.0000           -0.4461099             -12.1393
        57        2.0000           -0.4437062             -12.0739
        58        2.0000           -0.4224247             -11.4948
        59        2.0000           -0.4105587             -11.1719
        60        2.0000           -0.4021154             -10.9421
        61        2.0000           -0.3977920             -10.8245
        62        2.0000           -0.3967155             -10.7952
        63        2.0000           -0.3884476             -10.5702
        64        2.0000           -0.3782319             -10.2922
        65        2.0000           -0.3620579              -9.8521
        66        2.0000           -0.3589409              -9.7673
        67        2.0000           -0.3510286              -9.5520
        68        1.9216           -0.2771243              -7.5409 (HOMO)
        69        0.0784           -0.2710460              -7.3755 (LUMO)
        70                         -0.2156961              -5.8694
        71                         -0.2026261              -5.5137
        72                         -0.1812896              -4.9331
        73                         -0.1645303              -4.4771
        74                         -0.1241675              -3.3788
        75                         -0.1088488              -2.9619
        76                         -0.0994925              -2.7073
        77                         -0.0949668              -2.5842
        78                         -0.0929691              -2.5298
        79                         -0.0890202              -2.4224
       ...                                ...                  ...
       134                          0.7349001              19.9977
      -------------------------------------------------------------
                  HL-Gap            0.0060783 Eh            0.1654 eV

Wiberg/Mayer (AO) data.
largest (>0.10) Wiberg bond orders for each atom

     #   Z sym  total        # sym  WBO       # sym  WBO       # sym  WBO
 ---------------------------------------------------------------------------
     1   6 C    3.884 --    26 H    0.987    27 H    0.981    28 H    0.981
                             2 O    0.908
     2   8 O    2.165 --     3 C    1.037     1 C    0.908     4 O    0.113
     3   6 C    3.796 --     4 O    1.621     5 C    1.051     2 O    1.037
     4   8 O    1.872 --     3 C    1.621     2 O    0.113
     5   6 C    3.950 --    24 C    1.451     6 N    1.202     3 C    1.051
     6   7 N    2.984 --     7 C    1.446     5 C    1.202
     7   6 C    3.956 --     6 N    1.446    21 N    1.385     8 C    0.970
     8   6 C    3.946 --     9 C    0.985    10 C    0.982     7 C    0.970
                            11 N    0.939
     9   6 C    3.995 --    29 H    0.987    31 H    0.985     8 C    0.985
                            30 H    0.984
    10   6 C    3.995 --    34 H    0.987    32 H    0.986    33 H    0.983
                             8 C    0.982
    11   7 N    3.374 --    12 C    1.321     8 C    0.939    35 H    0.862
                            13 O    0.169
    12   6 C    3.868 --    13 O    1.553    11 N    1.321    14 C    0.889
    13   8 O    1.852 --    12 C    1.553    11 N    0.169
    14   6 C    3.896 --    16 N    1.020    15 C    0.966    20 O    0.914
                            12 C    0.889
    15   6 C    3.990 --    36 H    0.988    38 H    0.986    37 H    0.986
                            14 C    0.966
    16   7 N    2.591 --    17 N    1.175    14 C    1.020    18 C    0.186
    17   7 N    3.003 --    18 C    1.668    16 N    1.175
    18   6 C    3.841 --    17 N    1.668    19 C    1.016    20 O    0.942
                            16 N    0.186
    19   6 C    3.996 --    18 C    1.016    40 H    0.987    41 H    0.977
                            39 H    0.977
    20   8 O    2.058 --    18 C    0.942    14 C    0.914
    21   7 N    2.986 --     7 C    1.385    22 C    1.221    23 O    0.121
    22   6 C    3.925 --    23 O    1.488    21 N    1.221    24 C    1.084
    23   8 O    1.770 --    22 C    1.488    21 N    0.121
    24   6 C    3.870 --     5 C    1.451    22 C    1.084    25 O    1.049
    25   8 O    2.030 --    24 C    1.049    42 H    0.827
    26   1 H    1.013 --     1 C    0.987
    27   1 H    1.011 --     1 C    0.981
    28   1 H    1.012 --     1 C    0.981
    29   1 H    1.008 --     9 C    0.987
    30   1 H    1.017 --     9 C    0.984
    31   1 H    1.020 --     9 C    0.985
    32   1 H    1.017 --    10 C    0.986
    33   1 H    1.017 --    10 C    0.983
    34   1 H    1.008 --    10 C    0.987
    35   1 H    1.010 --    11 N    0.862
    36   1 H    1.015 --    15 C    0.988
    37   1 H    1.019 --    15 C    0.986
    38   1 H    1.014 --    15 C    0.986
    39   1 H    1.009 --    19 C    0.977
    40   1 H    1.010 --    19 C    0.987
    41   1 H    1.008 --    19 C    0.977
    42   1 H    0.880 --    25 O    0.827
 ---------------------------------------------------------------------------

           -------------------------------------------------
          | TOTAL ENERGY              -83.633084598625 Eh   |
          | GRADIENT NORM               0.000813983003 Eh/α |
          | HOMO-LUMO GAP               0.165398851201 eV   |
           -------------------------------------------------

 * finished run on 2023/06/20 at 17:52:15.070
