   * xtb version 6.5.1 (579679a) compiled by 'ehlert@majestix' on 2022-07-11
          program call               : /lustre/hpc/kemi/ree/PhD/git/ReactivityQM/dep/xtb-6.5.1/bin/xtb --gfn 1 /lustre/hpc/kemi/ree/PhD/git/ReactivityQM/calculations/R02methylcation/reac01prodN13/conf01/R02methylcation_reac01prodN13_conf01_gfn1.xyz --opt --vfukui --chrg 0 --uhf 0 --alpb DMSO

   ID    Z sym.   atoms
    1    6 C      1, 3, 5, 7-10, 12, 14, 17-19, 22, 24
    2    8 O      2, 4, 13, 20, 23, 25
    3    7 N      6, 11, 15, 16, 21
    4    1 H      26-42

      * Solvation model:               ALPB
        Solvent                        DMSO
        Solvent mass                       7.8130E+01 g/mol
          :  Hamiltonian                  GFN1-xTB          :
 * total energy  :   -82.9237822 Eh     change       -0.3166178E-09 Eh
 * total energy  :   -82.9338804 Eh     change       -0.1009819E-01 Eh
 * total energy  :   -82.9377393 Eh     change       -0.3858908E-02 Eh
 * total energy  :   -82.9382513 Eh     change       -0.5119589E-03 Eh
 * total energy  :   -82.9385016 Eh     change       -0.2503287E-03 Eh
 * total energy  :   -82.9386508 Eh     change       -0.1491428E-03 Eh
 * total energy  :   -82.9388141 Eh     change       -0.1633628E-03 Eh
 * total energy  :   -82.9389828 Eh     change       -0.1686998E-03 Eh
 * total energy  :   -82.9391126 Eh     change       -0.1297419E-03 Eh
 * total energy  :   -82.9392031 Eh     change       -0.9050389E-04 Eh
 * total energy  :   -82.9397611 Eh     change       -0.5315505E-04 Eh
 * total energy  :   -82.9398076 Eh     change       -0.4649884E-04 Eh
 * total energy  :   -82.9398365 Eh     change       -0.2893054E-04 Eh
 * total energy  :   -82.9398635 Eh     change       -0.2700099E-04 Eh
 * total energy  :   -82.9398568 Eh     change        0.6772374E-05 Eh
 * total energy  :   -82.9398705 Eh     change       -0.1372263E-04 Eh
 * total energy  :   -82.9398784 Eh     change       -0.7931583E-05 Eh
 * total energy  :   -82.9398859 Eh     change       -0.7456981E-05 Eh
 * total energy  :   -82.9398899 Eh     change       -0.4001502E-05 Eh
   *** GEOMETRY OPTIMIZATION CONVERGED AFTER 25 ITERATIONS ***

 final structure:
================
42
 xtb: 6.5.1 (579679a)
C            2.13185605071278        3.53510934661987        0.81603135412745
O            2.18311330331447        2.18518297124521        0.35392340051720
C            3.36643665582092        1.77240953404857       -0.13451405860432
O            4.33521195228291        2.49690731023690       -0.18561831739335
C            3.31395833404615        0.36147386143490       -0.58180798851676
N            2.10798709570408       -0.24016392626464       -0.47436935551709
C            1.94047385062726       -1.48099260659060       -0.82607542048478
C            0.57337296003861       -2.11257329280905       -0.69690448141022
C            0.61942119931404       -3.28165239219548        0.29848113651282
C            0.07035142382381       -2.57627226703047       -2.07263138455247
N           -0.30824396408944       -1.06722324662409       -0.18748806139186
C           -1.61963561695456       -1.23103879383679        0.05510813127387
O           -2.25671966346167       -2.26060430484733       -0.07419140701603
C           -2.23262012349684        0.05053032847046        0.50764131886773
N           -1.55762493097246        1.20599655967570        0.65346949141032
N           -2.38123743143949        2.11578412870905        1.02291086988553
C           -3.69846553387882        1.54414268422434        1.12966185013233
C           -4.21597768922157        1.64436373829711        2.56648050174387
C           -4.64541641302554        2.20212047874802        0.12154804082193
O           -3.50414560962753        0.17322787304773        0.77805346620883
N            2.96143980221998       -2.23458197816849       -1.30855239934392
C            4.25480369123948       -1.76515858029161       -1.48469122269929
O            5.11311951688984       -2.50269552939735       -1.92579929982795
C            4.47521251932621       -0.31738521692317       -1.09188306895327
O            5.59140447173521        0.17970560360912       -1.21867472303498
H            1.11600848661696        3.70610965627031        1.16647301231183
H            2.37142493879733        4.22435104113334        0.00183130102762
H            2.84231180596824        3.68306175962018        1.63386660315970
H            1.32025636699840       -4.03565630764670       -0.05313951440371
H            0.93638841194751       -2.92530232555085        1.27725279817175
H           -0.36825523424984       -3.73076607442485        0.38224627955625
H           -0.91910798117266       -3.01755034305632       -1.97059949337835
H            0.01705438446000       -1.72844996090480       -2.75364155473412
H            0.74780499814931       -3.32277251053461       -2.48091003373163
H            0.12343180019910       -0.15700370745528       -0.04286020796374
H           -5.17978687609513        1.14569116410262        2.63434484061073
H           -4.32415539876816        2.69245081195000        2.83339847003244
H           -3.50915750185268        1.16577238982668        3.24075965422768
H           -4.74870392376021        3.25635767509895        0.36488380529619
H           -5.61586882261050        1.71457323517326        0.17244862301318
H           -4.23570547320123        2.09565834827228       -0.88060520720696
H            2.80798416763461       -3.19736813526302       -1.56585674874125

          :  Hamiltonian                  GFN1-xTB          :
         :: total energy             -82.939889885901 Eh    ::
         :: gradient norm              0.000707257201 Eh/a0 ::
         :: HOMO-LUMO gap              0.049266710731 eV    ::
         :: SCC energy               -83.706070647867 Eh    ::
         :: -> Gsolv                  -0.067528291696 Eh    ::
         :: repulsion energy           0.792156596949 Eh    ::

    * Orbital Energies and Occupations

         #    Occupation            Energy/Eh            Energy/eV
      -------------------------------------------------------------
         1        2.0000           -0.8833173             -24.0363
       ...           ...                  ...                  ...
        55        2.0000           -0.5150698             -14.0158
        56        2.0000           -0.5118637             -13.9285
        57        2.0000           -0.5114134             -13.9163
        58        2.0000           -0.5045551             -13.7296
        59        2.0000           -0.4944455             -13.4545
        60        2.0000           -0.4877776             -13.2731
        61        2.0000           -0.4826999             -13.1349
        62        2.0000           -0.4767749             -12.9737
        63        2.0000           -0.4695062             -12.7759
        64        2.0000           -0.4668554             -12.7038
        65        2.0000           -0.4641619             -12.6305
        66        2.0000           -0.4238527             -11.5336
        67        1.4434           -0.4083225             -11.1110 (HOMO)
        68        0.5566           -0.4065120             -11.0618 (LUMO)
        69                         -0.3239686              -8.8156
        70                         -0.3112727              -8.4702
        71                         -0.2861969              -7.7878
        72                         -0.2362915              -6.4298
        73                         -0.2226630              -6.0590
        74                         -0.1575322              -4.2867
        75                         -0.1451155              -3.9488
        76                         -0.1448856              -3.9425
        77                         -0.1395525              -3.7974
        78                         -0.1381759              -3.7600
       ...                                ...                  ...
       134                          0.7528892              20.4872
      -------------------------------------------------------------
                  HL-Gap            0.0018105 Eh            0.0493 eV

Wiberg/Mayer (AO) data.
largest (>0.10) Wiberg bond orders for each atom

     #   Z sym  total        # sym  WBO       # sym  WBO       # sym  WBO
 ---------------------------------------------------------------------------
     1   6 C    3.877 --    26 H    0.987    27 H    0.979    28 H    0.979
                             2 O    0.904
     2   8 O    2.172 --     3 C    1.083     1 C    0.904     4 O    0.129
     3   6 C    3.840 --     4 O    1.647     2 O    1.083     5 C    1.031
     4   8 O    1.890 --     3 C    1.647     2 O    0.129
     5   6 C    3.714 --     6 N    1.279    24 C    1.168     3 C    1.031
     6   7 N    3.015 --     7 C    1.482     5 C    1.279
     7   6 C    3.802 --     6 N    1.482    21 N    1.190     8 C    0.990
     8   6 C    3.929 --     7 C    0.990     9 C    0.970    10 C    0.970
                            11 N    0.933
     9   6 C    3.975 --    30 H    0.985    29 H    0.983    31 H    0.978
                             8 C    0.970
    10   6 C    3.975 --    33 H    0.985    34 H    0.983    32 H    0.978
                             8 C    0.970
    11   7 N    3.348 --    12 C    1.266     8 C    0.933    35 H    0.867
                            13 O    0.194
    12   6 C    3.915 --    13 O    1.586    11 N    1.266    14 C    0.982
    13   8 O    1.901 --    12 C    1.586    11 N    0.194
    14   6 C    3.639 --    15 N    1.302    20 O    1.203    12 C    0.982
    15   7 N    3.010 --    16 N    1.545    14 C    1.302
    16   7 N    2.695 --    15 N    1.545    17 C    1.023
    17   6 C    3.836 --    16 N    1.023    18 C    0.938    19 C    0.935
                            20 O    0.877
    18   6 C    3.938 --    38 H    0.982    37 H    0.982    36 H    0.980
                            17 C    0.938
    19   6 C    3.936 --    41 H    0.982    39 H    0.982    40 H    0.980
                            17 C    0.935
    20   8 O    2.222 --    14 C    1.203    17 C    0.877
    21   7 N    3.422 --     7 C    1.190    22 C    1.104    42 H    0.882
                            23 O    0.113
    22   6 C    3.840 --    23 O    1.656    21 N    1.104    24 C    0.948
    23   8 O    1.879 --    22 C    1.656    21 N    0.113
    24   6 C    3.871 --    25 O    1.614     5 C    1.168    22 C    0.948
    25   8 O    1.796 --    24 C    1.614
    26   1 H    1.013 --     1 C    0.987
    27   1 H    1.007 --     1 C    0.979
    28   1 H    1.007 --     1 C    0.979
    29   1 H    0.998 --     9 C    0.983
    30   1 H    0.999 --     9 C    0.985
    31   1 H    1.005 --     9 C    0.978
    32   1 H    1.004 --    10 C    0.978
    33   1 H    0.999 --    10 C    0.985
    34   1 H    0.998 --    10 C    0.983
    35   1 H    0.966 --    11 N    0.867
    36   1 H    0.996 --    18 C    0.980
    37   1 H    0.997 --    18 C    0.982
    38   1 H    0.996 --    18 C    0.982
    39   1 H    0.997 --    19 C    0.982
    40   1 H    0.996 --    19 C    0.980
    41   1 H    0.996 --    19 C    0.982
    42   1 H    0.930 --    21 N    0.882
 ---------------------------------------------------------------------------

           -------------------------------------------------
          | TOTAL ENERGY              -82.939889885901 Eh   |
          | GRADIENT NORM               0.000707257201 Eh/α |
          | HOMO-LUMO GAP               0.049266710731 eV   |
           -------------------------------------------------

 * finished run on 2023/06/21 at 17:46:45.142
