   * xtb version 6.5.1 (579679a) compiled by 'ehlert@majestix' on 2022-07-11
          program call               : /lustre/hpc/kemi/ree/PhD/git/ReactivityQM/dep/xtb-6.5.1/bin/xtb --gfn 1 /lustre/hpc/kemi/ree/PhD/git/ReactivityQM/calculations/R02deprot/reac01prodE14/conf11/R02deprot_reac01prodE14_conf11_gfn1.xyz --opt --vfukui --chrg -2 --uhf 0 --alpb DMSO

   ID    Z sym.   atoms
    1    6 C      1, 3, 5, 7-10, 12, 14, 17, 18, 21, 23, 24
    2    8 O      2, 4, 13, 19, 22, 25
    3    7 N      6, 11, 15, 16, 20
    4    1 H      26-42

      * Solvation model:               ALPB
        Solvent                        DMSO
        Solvent mass                       7.8130E+01 g/mol
          :  Hamiltonian                  GFN1-xTB          :
 * total energy  :   -83.5954080 Eh     change       -0.2756906E-11 Eh
 * total energy  :   -83.6178532 Eh     change       -0.2244528E-01 Eh
 * total energy  :   -83.6278715 Eh     change       -0.1001821E-01 Eh
 * total energy  :   -83.6295933 Eh     change       -0.1721814E-02 Eh
 * total energy  :   -83.6308326 Eh     change       -0.1239330E-02 Eh
 * total energy  :   -83.6313230 Eh     change       -0.4904507E-03 Eh
 * total energy  :   -83.6316977 Eh     change       -0.3746543E-03 Eh
 * total energy  :   -83.6319965 Eh     change       -0.2988013E-03 Eh
 * total energy  :   -83.6322561 Eh     change       -0.2596422E-03 Eh
 * total energy  :   -83.6325299 Eh     change       -0.2737604E-03 Eh
 * total energy  :   -83.6346808 Eh     change       -0.1918517E-04 Eh
 * total energy  :   -83.6347052 Eh     change       -0.2434436E-04 Eh
 * total energy  :   -83.6347363 Eh     change       -0.3112155E-04 Eh
 * total energy  :   -83.6347635 Eh     change       -0.2715800E-04 Eh
 * total energy  :   -83.6347847 Eh     change       -0.2123698E-04 Eh
 * total energy  :   -83.6348053 Eh     change       -0.2063319E-04 Eh
 * total energy  :   -83.6348245 Eh     change       -0.1919244E-04 Eh
 * total energy  :   -83.6348410 Eh     change       -0.1649313E-04 Eh
 * total energy  :   -83.6348454 Eh     change       -0.4331352E-05 Eh
   *** GEOMETRY OPTIMIZATION CONVERGED AFTER 68 ITERATIONS ***

 final structure:
================
42
 xtb: 6.5.1 (579679a)
C           -6.34252429262730       -0.58249770177673       -0.88212728189591
O           -5.14726066594274       -0.37791206024042       -0.16028140964358
C           -3.95727330694375       -0.58793337048697       -0.91664642526148
O           -4.08530914940530       -0.95559291549950       -2.10508422451583
C           -2.78538174590816       -0.34935046414261       -0.20257534513502
N           -1.59558735695792       -0.56599051399138       -0.87924467043367
C           -0.46984093102226       -0.39061924701499       -0.26822639997163
C            0.79822412176709       -0.63708457616971       -1.09060286655805
C            0.73289065540962        0.17231030118421       -2.39309982142695
C            0.92738148301966       -2.13692420813571       -1.40243545753667
N            1.92928296644336       -0.19902904322229       -0.27717035088197
C            3.21342117678784       -0.20473147265410       -0.64222418472854
O            3.65578378913694       -0.58157492880944       -1.72803451627056
C            4.08153788247190        0.32054970743714        0.44243574428993
N            3.69287875272696        0.68594938876281        1.63268286271280
N            4.80739810301300        1.11522860709996        2.29736991434762
C            5.80030100858143        0.98673265273328        1.47668253942255
C            7.21959134330985        1.33207178737257        1.71892472290216
O            5.41673396504402        0.48897413400414        0.28804625692740
N           -0.26679049575641       -0.03440220926898        1.03847576428244
C           -1.31359173214934        0.19082798286637        1.82420889753561
O           -1.18978539648868        0.50534648565761        3.02856970905635
C           -2.76463411203666        0.12079397677078        1.23929668952375
C           -3.34938307331226        1.54550831487201        1.38812411856475
O           -3.50227580648828       -0.77322718437572        2.09856307623550
H           -6.41702267061200       -1.61307723155210       -1.25370468612514
H           -6.41489425802907        0.09860717459736       -1.74044321732306
H           -7.17500508855482       -0.38774502173470       -0.20394123099726
H            1.57467274620954       -0.05921564921266       -3.04423039815741
H            0.74054167155956        1.23930800008741       -2.17084302594319
H           -0.19649860081203       -0.07199020196702       -2.90862648584104
H            1.03690684421513       -2.70419466725907       -0.47797115690292
H            1.79059943689839       -2.32970257701305       -2.03858428788656
H            0.02493598303016       -2.46937546690349       -1.91559723227636
H            1.66589542674743        0.10955571483250        0.66509071155642
H            7.35195265907021        1.62506888593082        2.75727557932328
H            7.51918942605849        2.15638458442605        1.07173872004231
H            7.85870860702813        0.47917598366310        1.49510314793352
H           -3.29148306587511        1.85550101476163        2.43264460944908
H           -4.39024221276174        1.57418199523984        1.07110195967552
H           -2.77598820448929        2.24248353430948        0.77646795469641
H           -4.40805488236158       -0.83239151518181        1.76413669723784

          :  Hamiltonian                  GFN1-xTB          :
         :: total energy             -83.634845351756 Eh    ::
         :: gradient norm              0.000324111497 Eh/a0 ::
         :: HOMO-LUMO gap              0.149267910441 eV    ::
         :: SCC energy               -84.368379383012 Eh    ::
         :: -> Gsolv                  -0.282410548137 Eh    ::
         :: repulsion energy           0.759293878211 Eh    ::

    * Orbital Energies and Occupations

         #    Occupation            Energy/Eh            Energy/eV
      -------------------------------------------------------------
         1        2.0000           -0.8418445             -22.9078
       ...           ...                  ...                  ...
        56        2.0000           -0.4381415             -11.9224
        57        2.0000           -0.4352282             -11.8432
        58        2.0000           -0.4276273             -11.6363
        59        2.0000           -0.4234215             -11.5219
        60        2.0000           -0.4222180             -11.4891
        61        2.0000           -0.4163201             -11.3286
        62        2.0000           -0.4089957             -11.1293
        63        2.0000           -0.3930743             -10.6961
        64        2.0000           -0.3813037             -10.3758
        65        2.0000           -0.3609944              -9.8232
        66        2.0000           -0.3536946              -9.6245
        67        2.0000           -0.3299904              -8.9795
        68        1.8944           -0.2893628              -7.8740 (HOMO)
        69        0.1056           -0.2838773              -7.7247 (LUMO)
        70                         -0.2393835              -6.5140
        71                         -0.2009910              -5.4692
        72                         -0.1699589              -4.6248
        73                         -0.1363901              -3.7114
        74                         -0.1353464              -3.6830
        75                         -0.1125696              -3.0632
        76                         -0.1016190              -2.7652
        77                         -0.0961292              -2.6158
        78                         -0.0930514              -2.5321
        79                         -0.0742983              -2.0218
       ...                                ...                  ...
       134                          0.7257219              19.7479
      -------------------------------------------------------------
                  HL-Gap            0.0054855 Eh            0.1493 eV

Wiberg/Mayer (AO) data.
largest (>0.10) Wiberg bond orders for each atom

     #   Z sym  total        # sym  WBO       # sym  WBO       # sym  WBO
 ---------------------------------------------------------------------------
     1   6 C    3.921 --    28 H    0.987    27 H    0.981    26 H    0.980
                             2 O    0.952
     2   8 O    2.069 --     1 C    0.952     3 C    0.899
     3   6 C    3.847 --     4 O    1.436     5 C    1.378     2 O    0.899
     4   8 O    1.733 --     3 C    1.436     5 C    0.121
     5   6 C    3.814 --     3 C    1.378     6 N    1.146    23 C    0.981
                             4 O    0.121
     6   7 N    3.007 --     7 C    1.574     5 C    1.146
     7   6 C    3.928 --     6 N    1.574    20 N    1.176     8 C    0.960
     8   6 C    3.920 --     9 C    0.988    10 C    0.982     7 C    0.960
                            11 N    0.920
     9   6 C    3.994 --     8 C    0.988    30 H    0.987    29 H    0.985
                            31 H    0.984
    10   6 C    3.994 --    32 H    0.987    34 H    0.986    33 H    0.985
                             8 C    0.982
    11   7 N    3.371 --    12 C    1.300     8 C    0.920    35 H    0.866
                            13 O    0.182
    12   6 C    3.898 --    13 O    1.524    11 N    1.300    14 C    0.998
    13   8 O    1.831 --    12 C    1.524    11 N    0.182
    14   6 C    3.818 --    15 N    1.582    19 O    1.042    12 C    0.998
    15   7 N    2.953 --    14 C    1.582    16 N    1.186
    16   7 N    2.980 --    17 C    1.622    15 N    1.186
    17   6 C    3.864 --    16 N    1.622    19 O    1.074    18 C    1.028
    18   6 C    3.990 --    17 C    1.028    36 H    0.984    38 H    0.969
                            37 H    0.965
    19   8 O    2.291 --    17 C    1.074    14 C    1.042
    20   7 N    2.957 --    21 C    1.375     7 C    1.176    22 O    0.136
    21   6 C    3.902 --    22 O    1.485    20 N    1.375    23 C    0.909
    22   8 O    1.758 --    21 C    1.485    20 N    0.136
    23   6 C    3.895 --     5 C    0.981    24 C    0.971    25 O    0.914
                            21 C    0.909
    24   6 C    3.991 --    41 H    0.988    39 H    0.986    40 H    0.984
                            23 C    0.971
    25   8 O    1.870 --    23 C    0.914    42 H    0.870
    26   1 H    1.023 --     1 C    0.980
    27   1 H    1.022 --     1 C    0.981
    28   1 H    1.020 --     1 C    0.987
    29   1 H    1.015 --     9 C    0.985
    30   1 H    1.010 --     9 C    0.987
    31   1 H    1.025 --     9 C    0.984
    32   1 H    1.009 --    10 C    0.987
    33   1 H    1.013 --    10 C    0.985
    34   1 H    1.017 --    10 C    0.986
    35   1 H    0.997 --    11 N    0.866
    36   1 H    1.001 --    18 C    0.984
    37   1 H    0.999 --    18 C    0.965
    38   1 H    0.999 --    18 C    0.969
    39   1 H    1.022 --    24 C    0.986
    40   1 H    1.021 --    24 C    0.984
    41   1 H    1.015 --    24 C    0.988
    42   1 H    0.916 --    25 O    0.870
 ---------------------------------------------------------------------------

           -------------------------------------------------
          | TOTAL ENERGY              -83.634845351756 Eh   |
          | GRADIENT NORM               0.000324111497 Eh/α |
          | HOMO-LUMO GAP               0.149267910441 eV   |
           -------------------------------------------------

 * finished run on 2023/06/20 at 18:04:49.337
