   * xtb version 6.5.1 (579679a) compiled by 'ehlert@majestix' on 2022-07-11
          program call               : /lustre/hpc/kemi/ree/PhD/git/ReactivityQM/dep/xtb-6.5.1/bin/xtb --gfn 1 /lustre/hpc/kemi/ree/PhD/git/ReactivityQM/calculations/R03/reac01prodN02/conf06/R03_reac01prodN02_conf06_gfn1.xyz --opt --vfukui --chrg 1 --uhf 0 --alpb DMSO

   ID    Z sym.   atoms
    1    6 C      1-3, 5-7, 9, 10
    2    7 N      4
    3    9 F      8
    4    1 H      11-21

      * Solvation model:               ALPB
        Solvent                        DMSO
        Solvent mass                       7.8130E+01 g/mol
          :  Hamiltonian                  GFN1-xTB          :
 * total energy  :   -30.7615164 Eh     change       -0.7703349E-10 Eh
 * total energy  :   -30.7669247 Eh     change       -0.5408246E-02 Eh
 * total energy  :   -30.7692804 Eh     change       -0.2355723E-02 Eh
 * total energy  :   -30.7698528 Eh     change       -0.5724104E-03 Eh
 * total energy  :   -30.7712030 Eh     change       -0.1350196E-02 Eh
 * total energy  :   -30.7722531 Eh     change       -0.1050060E-02 Eh
 * total energy  :   -30.7729260 Eh     change       -0.6729404E-03 Eh
 * total energy  :   -30.7741581 Eh     change       -0.1232121E-02 Eh
 * total energy  :   -30.7746729 Eh     change       -0.5147934E-03 Eh
 * total energy  :   -30.7751190 Eh     change       -0.4461204E-03 Eh
 * total energy  :   -30.7785844 Eh     change       -0.2268655E-03 Eh
 * total energy  :   -30.7786583 Eh     change       -0.7388002E-04 Eh
 * total energy  :   -30.7787076 Eh     change       -0.4930785E-04 Eh
 * total energy  :   -30.7787413 Eh     change       -0.3370667E-04 Eh
 * total energy  :   -30.7787652 Eh     change       -0.2388273E-04 Eh
 * total energy  :   -30.7787874 Eh     change       -0.2222727E-04 Eh
 * total energy  :   -30.7787948 Eh     change       -0.7360969E-05 Eh
 * total energy  :   -30.7788015 Eh     change       -0.6781970E-05 Eh
 * total energy  :   -30.7788052 Eh     change       -0.3655843E-05 Eh
   *** GEOMETRY OPTIMIZATION CONVERGED AFTER 26 ITERATIONS ***

 final structure:
================
21
 xtb: 6.5.1 (579679a)
C           -0.78544571013972        1.62485708963976       -0.90505496982970
C           -0.01129462936980        0.52508848329694       -0.19783769202486
C           -1.38468925765764       -0.49038270251892        0.58562884882035
N           -2.31737455842627       -0.81123160464571       -0.32519487582160
C            0.70222629205789        0.89120197740926        0.99398385447722
C            1.77630918439012        0.15974950727323        1.43864627498560
C            2.23599307094731       -0.89434907736469        0.65155499944305
F            3.27432483349463       -1.59024814231348        1.07246368531580
C            1.66327345685750       -1.22575573870522       -0.57455415761364
C            0.58799900366475       -0.49302866378477       -1.01405577212203
H           -0.07591433052654        2.30681942378815       -1.37441124645850
H           -1.42412260932576        1.20375264506207       -1.67846559935361
H           -1.39435099984334        2.18663099375920       -0.19909747321146
H           -0.82666948427160       -1.32746433393988        0.98890846653788
H           -1.72249489317391        0.22589475387073        1.32604507412904
H           -2.15457635798746       -1.56557153878297       -0.96807150097549
H           -2.99022652428132       -0.12354893117858       -0.61298888551473
H            0.34252201972149        1.73391713496457        1.57240443561015
H            2.28691791720836        0.40561774016159        2.36108893867817
H            2.08437024463074       -2.02584155843669       -1.16976431102638
H            0.13322333203058       -0.71610645755449       -1.97123009404530

          :  Hamiltonian                  GFN1-xTB          :
         :: total energy             -30.778805204388 Eh    ::
         :: gradient norm              0.000593924298 Eh/a0 ::
         :: HOMO-LUMO gap              2.379539595099 eV    ::
         :: SCC energy               -31.190804722365 Eh    ::
         :: -> Gsolv                  -0.089265812260 Eh    ::
         :: repulsion energy           0.422778432731 Eh    ::

    * Orbital Energies and Occupations

         #    Occupation            Energy/Eh            Energy/eV
      -------------------------------------------------------------
         1        2.0000           -0.9125406             -24.8315
       ...           ...                  ...                  ...
        15        2.0000           -0.5995576             -16.3148
        16        2.0000           -0.5868193             -15.9682
        17        2.0000           -0.5798808             -15.7794
        18        2.0000           -0.5774142             -15.7122
        19        2.0000           -0.5719002             -15.5622
        20        2.0000           -0.5566827             -15.1481
        21        2.0000           -0.5390062             -14.6671
        22        2.0000           -0.5383317             -14.6488
        23        2.0000           -0.5289724             -14.3941
        24        2.0000           -0.5277427             -14.3606
        25        2.0000           -0.5116124             -13.9217
        26        2.0000           -0.4964597             -13.5094
        27        2.0000           -0.4698895             -12.7863 (HOMO)
        28                         -0.3824430             -10.4068 (LUMO)
        29                         -0.3149341              -8.5698
        30                         -0.2477722              -6.7422
        31                         -0.1727051              -4.6995
        32                         -0.1615780              -4.3968
        33                         -0.1531129              -4.1664
        34                         -0.1426892              -3.8828
        35                         -0.1280366              -3.4841
        36                         -0.1264910              -3.4420
        37                         -0.1209220              -3.2905
        38                         -0.1097665              -2.9869
       ...                                ...                  ...
        62                          0.5788100              15.7502
      -------------------------------------------------------------
                  HL-Gap            0.0874465 Eh            2.3795 eV

Wiberg/Mayer (AO) data.
largest (>0.10) Wiberg bond orders for each atom

     #   Z sym  total        # sym  WBO       # sym  WBO       # sym  WBO
 ---------------------------------------------------------------------------
     1   6 C    3.984 --     2 C    0.993    13 H    0.982    12 H    0.980
                            11 H    0.970
     2   6 C    3.978 --    10 C    1.204     5 C    1.203     1 C    0.993
                             3 C    0.460
     3   6 C    3.921 --     4 N    1.339    14 H    0.976    15 H    0.970
                             2 C    0.460
     4   7 N    3.363 --     3 C    1.339    16 H    0.896    17 H    0.895
     5   6 C    3.977 --     6 C    1.533     2 C    1.203    18 H    0.966
     6   6 C    3.987 --     5 C    1.533     7 C    1.337    19 H    0.961
     7   6 C    3.861 --     9 C    1.338     6 C    1.337     8 F    0.987
     8   9 F    1.130 --     7 C    0.987
     9   6 C    3.987 --    10 C    1.531     7 C    1.338    20 H    0.961
    10   6 C    3.977 --     9 C    1.531     2 C    1.204    21 H    0.966
    11   1 H    0.997 --     1 C    0.970
    12   1 H    0.999 --     1 C    0.980
    13   1 H    0.995 --     1 C    0.982
    14   1 H    1.002 --     3 C    0.976
    15   1 H    0.999 --     3 C    0.970
    16   1 H    0.921 --     4 N    0.896
    17   1 H    0.921 --     4 N    0.895
    18   1 H    0.992 --     5 C    0.966
    19   1 H    0.990 --     6 C    0.961
    20   1 H    0.990 --     9 C    0.961
    21   1 H    0.994 --    10 C    0.966
 ---------------------------------------------------------------------------

           -------------------------------------------------
          | TOTAL ENERGY              -30.778805204388 Eh   |
          | GRADIENT NORM               0.000593924298 Eh/α |
          | HOMO-LUMO GAP               2.379539595099 eV   |
           -------------------------------------------------

 * finished run on 2023/06/20 at 15:14:10.014
