   * xtb version 6.5.1 (579679a) compiled by 'ehlert@majestix' on 2022-07-11
          program call               : /lustre/hpc/kemi/ree/PhD/git/ReactivityQM/dep/xtb-6.5.1/bin/xtb --gfn 1 /lustre/hpc/kemi/ree/PhD/git/ReactivityQM/calculations/R01/reac02prodE03/conf03/R01_reac02prodE03_conf03_gfn1.xyz --opt --vfukui --chrg -1 --uhf 0 --alpb DMSO

   ID    Z sym.   atoms
    1    6 C      1, 3, 5, 6, 8-11, 14, 16
    2    8 O      2, 4, 15, 17
    3    7 N      7, 12, 13
    4    1 H      18-33

      * Solvation model:               ALPB
        Solvent                        DMSO
        Solvent mass                       7.8130E+01 g/mol
          :  Hamiltonian                  GFN1-xTB          :
 * total energy  :   -58.5242471 Eh     change       -0.6330936E-11 Eh
 * total energy  :   -58.5369049 Eh     change       -0.1265783E-01 Eh
 * total energy  :   -58.5406011 Eh     change       -0.3696207E-02 Eh
 * total energy  :   -58.5412650 Eh     change       -0.6639006E-03 Eh
 * total energy  :   -58.5417516 Eh     change       -0.4866376E-03 Eh
 * total energy  :   -58.5419479 Eh     change       -0.1962122E-03 Eh
 * total energy  :   -58.5421153 Eh     change       -0.1674714E-03 Eh
 * total energy  :   -58.5423078 Eh     change       -0.1924318E-03 Eh
 * total energy  :   -58.5425631 Eh     change       -0.2553137E-03 Eh
 * total energy  :   -58.5428610 Eh     change       -0.2979214E-03 Eh
 * total energy  :   -58.5474689 Eh     change       -0.1725009E-04 Eh
 * total energy  :   -58.5474799 Eh     change       -0.1102514E-04 Eh
 * total energy  :   -58.5474995 Eh     change       -0.1956342E-04 Eh
 * total energy  :   -58.5475078 Eh     change       -0.8337066E-05 Eh
 * total energy  :   -58.5475203 Eh     change       -0.1253979E-04 Eh
 * total energy  :   -58.5475283 Eh     change       -0.7914269E-05 Eh
 * total energy  :   -58.5475355 Eh     change       -0.7261469E-05 Eh
 * total energy  :   -58.5475438 Eh     change       -0.8288124E-05 Eh
 * total energy  :   -58.5475477 Eh     change       -0.3895143E-05 Eh
   *** GEOMETRY OPTIMIZATION CONVERGED AFTER 44 ITERATIONS ***

 final structure:
================
33
 xtb: 6.5.1 (579679a)
C            2.83466807882548        1.83279877666798       -1.25840947448728
O            1.80358170843137        0.91351667075976       -0.91001711539083
C            2.20495019552997       -0.33632608975142       -0.59840084295709
O            3.38709470806362       -0.65479553164556       -0.61094594990854
C            1.10580072463408       -1.22940681627558       -0.04111074550700
C            1.31429494923140       -2.68254789101658       -0.48681879340531
N           -0.22171516052393       -0.79766940471151       -0.44670062832780
C           -0.84908955884420        0.03607240322209        0.29535961187076
C           -2.23351554335473        0.49523550996136       -0.16076492173014
C           -3.29799151645949       -0.17576929433657        0.72057178885428
C           -2.36206606929654        2.02005884214526       -0.09023469707269
N           -2.46117332471679        0.07998589510556       -1.54336591651310
N           -0.37754743136086        0.53524010884023        1.46668208073216
C            0.70733625424900       -0.10985442319647        2.19681765534744
O            0.81478425364059        0.20747976448837        3.40842336639404
C            1.39119062766367       -1.02007960970443        1.43780986959463
O            2.47942335743402       -1.75794471336726        1.95345675514259
H            2.35266464020644        2.78317672360729       -1.48221653020863
H            3.53894707052382        1.95649110004543       -0.43031379969997
H            3.38040938922609        1.47785071600467       -2.13756634371306
H            2.34554451103157       -2.98635881099265       -0.31337561146117
H            0.64985022669071       -3.33811125946220        0.07499897439147
H            1.08768845814408       -2.77764216597433       -1.54816008949592
H           -3.21563882143352       -1.26000484896233        0.64469598251511
H           -3.17288985169379        0.11503495603538        1.76285237225786
H           -4.29125434696848        0.12223256960529        0.38627564831447
H           -2.34733320195658        2.36607176962755        0.94226851377719
H           -1.54245631456317        2.49452016152173       -0.62986181892628
H           -3.30382675385643        2.32801623208505       -0.54389377105941
H           -1.88610817096611        0.64634550356813       -2.15577472340500
H           -2.14174156809463       -0.88060264514589       -1.64604365644055
H           -0.99186475861650        1.08203642558722        2.04762202619588
H            3.29798423917702       -1.48504862433825        1.50792378432202

          :  Hamiltonian                  GFN1-xTB          :
         :: total energy             -58.547547706663 Eh    ::
         :: gradient norm              0.000322139832 Eh/a0 ::
         :: HOMO-LUMO gap              2.365318401245 eV    ::
         :: SCC energy               -59.087925775122 Eh    ::
         :: -> Gsolv                  -0.104369687435 Eh    ::
         :: repulsion energy           0.560331483928 Eh    ::

    * Orbital Energies and Occupations

         #    Occupation            Energy/Eh            Energy/eV
      -------------------------------------------------------------
         1        2.0000           -0.8053542             -21.9148
       ...           ...                  ...                  ...
        36        2.0000           -0.4765692             -12.9681
        37        2.0000           -0.4752784             -12.9330
        38        2.0000           -0.4722431             -12.8504
        39        2.0000           -0.4706372             -12.8067
        40        2.0000           -0.4561818             -12.4133
        41        2.0000           -0.4546196             -12.3708
        42        2.0000           -0.4495427             -12.2327
        43        2.0000           -0.4284862             -11.6597
        44        2.0000           -0.3968926             -10.8000
        45        2.0000           -0.3886935             -10.5769
        46        2.0000           -0.3810267             -10.3683
        47        2.0000           -0.3700229             -10.0688
        48        2.0000           -0.3147270              -8.5642 (HOMO)
        49                         -0.2278031              -6.1988 (LUMO)
        50                         -0.2116289              -5.7587
        51                         -0.1274538              -3.4682
        52                         -0.1244566              -3.3866
        53                         -0.1158303              -3.1519
        54                         -0.1102924              -3.0012
        55                         -0.0948554              -2.5811
        56                         -0.0849611              -2.3119
        57                         -0.0715181              -1.9461
        58                         -0.0619950              -1.6870
        59                         -0.0610311              -1.6607
       ...                                ...                  ...
       100                          0.7215020              19.6331
      -------------------------------------------------------------
                  HL-Gap            0.0869239 Eh            2.3653 eV

Wiberg/Mayer (AO) data.
largest (>0.10) Wiberg bond orders for each atom

     #   Z sym  total        # sym  WBO       # sym  WBO       # sym  WBO
 ---------------------------------------------------------------------------
     1   6 C    3.893 --    18 H    0.987    20 H    0.981    19 H    0.981
                             2 O    0.915
     2   8 O    2.167 --     3 C    1.069     1 C    0.915     4 O    0.109
     3   6 C    3.817 --     4 O    1.590     2 O    1.069     5 C    0.935
                            16 C    0.107
     4   8 O    1.887 --     3 C    1.590     2 O    0.109
     5   6 C    3.965 --     6 C    0.986     7 N    0.980     3 C    0.935
                            16 C    0.928
     6   6 C    3.997 --    23 H    0.988    22 H    0.987     5 C    0.986
                            21 H    0.985
     7   7 N    2.984 --     8 C    1.674     5 C    0.980    13 N    0.157
     8   6 C    3.945 --     7 N    1.674    13 N    1.186     9 C    0.961
     9   6 C    3.969 --    11 C    0.995    12 N    0.989    10 C    0.986
                             8 C    0.961
    10   6 C    3.996 --    25 H    0.986     9 C    0.986    24 H    0.986
                            26 H    0.986
    11   6 C    3.996 --     9 C    0.995    29 H    0.986    28 H    0.986
                            27 H    0.984
    12   7 N    2.951 --     9 C    0.989    30 H    0.950    31 H    0.941
    13   7 N    3.311 --     8 C    1.186    32 H    0.914    14 C    0.909
                             7 N    0.157
    14   6 C    3.916 --    16 C    1.488    15 O    1.395    13 N    0.909
    15   8 O    1.718 --    14 C    1.395    16 C    0.169
    16   6 C    3.782 --    14 C    1.488    17 O    0.949     5 C    0.928
                            15 O    0.169     3 C    0.107
    17   8 O    1.907 --    16 C    0.949    33 H    0.862
    18   1 H    1.015 --     1 C    0.987
    19   1 H    1.012 --     1 C    0.981
    20   1 H    1.012 --     1 C    0.981
    21   1 H    1.017 --     6 C    0.985
    22   1 H    1.012 --     6 C    0.987
    23   1 H    1.011 --     6 C    0.988
    24   1 H    1.006 --    10 C    0.986
    25   1 H    1.005 --    10 C    0.986
    26   1 H    1.009 --    10 C    0.986
    27   1 H    1.004 --    11 C    0.984
    28   1 H    1.004 --    11 C    0.986
    29   1 H    1.006 --    11 C    0.986
    30   1 H    0.971 --    12 N    0.950
    31   1 H    0.987 --    12 N    0.941
    32   1 H    0.966 --    13 N    0.914
    33   1 H    0.901 --    17 O    0.862
 ---------------------------------------------------------------------------

           -------------------------------------------------
          | TOTAL ENERGY              -58.547547706663 Eh   |
          | GRADIENT NORM               0.000322139832 Eh/α |
          | HOMO-LUMO GAP               2.365318401245 eV   |
           -------------------------------------------------

 * finished run on 2023/06/20 at 14:58:54.971
