   * xtb version 6.5.1 (579679a) compiled by 'ehlert@majestix' on 2022-07-11
          program call               : /lustre/hpc/kemi/ree/PhD/git/ReactivityQM/dep/xtb-6.5.1/bin/xtb --gfn 1 /lustre/hpc/kemi/ree/PhD/git/ReactivityQM/calculations/RaltegravirCLI/reac02prodE11/conf09/RaltegravirCLI_reac02prodE11_conf09_gfn1.xyz --opt --vfukui --chrg -1 --uhf 0 --alpb DMSO

   ID    Z sym.   atoms
    1    6 C      1, 3-6, 9, 10, 13-17, 19-21, 23, 24
    2    7 N      2, 7, 8, 12
    3    8 O      11, 22, 25
    4    9 F      18
    5    1 H      26-47

      * Solvation model:               ALPB
        Solvent                        DMSO
        Solvent mass                       7.8130E+01 g/mol
          :  Hamiltonian                  GFN1-xTB          :
 * total energy  :   -80.1930891 Eh     change       -0.1483613E-10 Eh
 * total energy  :   -80.2020850 Eh     change       -0.8995883E-02 Eh
 * total energy  :   -80.2050747 Eh     change       -0.2989631E-02 Eh
 * total energy  :   -80.2060344 Eh     change       -0.9597537E-03 Eh
 * total energy  :   -80.2073427 Eh     change       -0.1308293E-02 Eh
 * total energy  :   -80.2092914 Eh     change       -0.1948650E-02 Eh
 * total energy  :   -80.2073603 Eh     change        0.1931062E-02 Eh
 * total energy  :   -80.2126838 Eh     change       -0.5323479E-02 Eh
 * total energy  :   -80.2150125 Eh     change       -0.2328775E-02 Eh
 * total energy  :   -80.2191973 Eh     change       -0.4184723E-02 Eh
 * total energy  :   -80.2343827 Eh     change       -0.7716658E-05 Eh
 * total energy  :   -80.2343906 Eh     change       -0.7925932E-05 Eh
 * total energy  :   -80.2343999 Eh     change       -0.9301593E-05 Eh
 * total energy  :   -80.2344106 Eh     change       -0.1068080E-04 Eh
 * total energy  :   -80.2344202 Eh     change       -0.9637469E-05 Eh
 * total energy  :   -80.2344268 Eh     change       -0.6545035E-05 Eh
 * total energy  :   -80.2344331 Eh     change       -0.6362003E-05 Eh
 * total energy  :   -80.2344383 Eh     change       -0.5149384E-05 Eh
 * total energy  :   -80.2344414 Eh     change       -0.3152952E-05 Eh
   *** GEOMETRY OPTIMIZATION CONVERGED AFTER 66 ITERATIONS ***

 final structure:
================
47
 xtb: 6.5.1 (579679a)
C           -3.16024664923090        1.32799247741252       -1.83458128209696
N           -2.06304427930538        0.56482269974926       -1.24722981561598
C           -2.07654682596606        0.11785301237916        0.07836276248855
C           -3.15213873692103        0.55624087803690        1.07259089829861
C           -3.13578217826882       -0.40458224295595        2.27567258305405
C           -2.85105774561961        1.97968030546239        1.56740067997260
N           -4.48485752176825        0.53818682665754        0.46397839443177
N           -1.11799336577154       -0.57896856909799        0.56637179656448
C            0.00947640150034       -0.92788074377717       -0.21117374904692
C            1.15211220586467       -1.38961536728479        0.55129791119107
O            1.19118190177849       -1.44057119744594        1.79135020095530
N            2.23074797862292       -1.84466290613519       -0.19123853776121
C            3.51696667512176       -1.99857129355383        0.47021849712579
C            4.19083428617078       -0.65405876932942        0.65962091151038
C            3.92591176096609        0.11133512147544        1.79423831721606
C            4.50630484630975        1.36115417189291        1.95804358645577
C            5.35072803160591        1.82626138205089        0.96645538412478
F            5.92082300801023        3.03829781034595        1.11827733064209
C            5.63941189525944        1.09600282479759       -0.17120724163913
C            5.04822007655494       -0.15211125617308       -0.31719571839125
C           -0.02999888729688       -0.76700700324433       -1.58750057689196
O            0.89367695644639       -0.91223132579804       -2.43237788128091
C           -1.40868979617979       -0.36049794906107       -2.17536795728975
C           -2.26585067924913       -1.62754065872157       -2.40282905444895
O           -1.17249318502335        0.27356812941933       -3.40607509987302
H           -2.81788818992277        1.75336077040379       -2.78035667384757
H           -3.44331063170883        2.14484703135588       -1.17397812534866
H           -4.04301919410656        0.70841776192662       -2.02214094577167
H           -2.17106483857092       -0.36399912763811        2.78224542991357
H           -3.92089008724656       -0.12890712040866        2.97841822962174
H           -3.30761385222038       -1.42654222089011        1.93836991917403
H           -3.55781846576214        2.26059041505456        2.34809035552312
H           -2.93199996294674        2.70275250407530        0.75669490125829
H           -1.84131835074183        2.02412997016146        1.97661361326535
H           -5.14290981074524        0.96825682687735        1.09809405049801
H           -4.78250416681547       -0.42085673751500        0.33265210124143
H            2.28041672285074       -1.54633725646667       -1.16017606956201
H            3.35381340499154       -2.47908539044012        1.44093607833684
H            4.14305436352497       -2.65109223587677       -0.14498764943185
H            3.25812864693832       -0.27407466844889        2.55755872078466
H            4.31479273975947        1.96356086628811        2.83668525752634
H            6.31215055701281        1.49303130939449       -0.91985242528274
H            5.26740375968949       -0.74220738259820       -1.19974701161409
H           -0.23237452444223        0.07440021929665       -3.61509518184831
H           -1.70078224452934       -2.32779491250094       -3.01545809570350
H           -3.18733977062362       -1.37171560743075       -2.92259714321274
H           -2.50662227799374       -2.09382937172229       -1.44907467521327

          :  Hamiltonian                  GFN1-xTB          :
         :: total energy             -80.234441434988 Eh    ::
         :: gradient norm              0.000250839028 Eh/a0 ::
         :: HOMO-LUMO gap              1.925918047891 eV    ::
         :: SCC energy               -81.087999858092 Eh    ::
         :: -> Gsolv                  -0.103697086932 Eh    ::
         :: repulsion energy           0.884703005000 Eh    ::

    * Orbital Energies and Occupations

         #    Occupation            Energy/Eh            Energy/eV
      -------------------------------------------------------------
         1        2.0000           -0.8537196             -23.2309
       ...           ...                  ...                  ...
        56        2.0000           -0.4604129             -12.5285
        57        2.0000           -0.4573048             -12.4439
        58        2.0000           -0.4442188             -12.0878
        59        2.0000           -0.4400573             -11.9746
        60        2.0000           -0.4384993             -11.9322
        61        2.0000           -0.4250565             -11.5664
        62        2.0000           -0.4091257             -11.1329
        63        2.0000           -0.4004544             -10.8969
        64        2.0000           -0.3939119             -10.7189
        65        2.0000           -0.3925530             -10.6819
        66        2.0000           -0.3764398             -10.2434
        67        2.0000           -0.3668588              -9.9827
        68        2.0000           -0.3312925              -9.0149 (HOMO)
        69                         -0.2605163              -7.0890 (LUMO)
        70                         -0.2527564              -6.8779
        71                         -0.2260047              -6.1499
        72                         -0.2076479              -5.6504
        73                         -0.1323779              -3.6022
        74                         -0.1150114              -3.1296
        75                         -0.1097373              -2.9861
        76                         -0.1060753              -2.8865
        77                         -0.1041619              -2.8344
        78                         -0.1016958              -2.7673
        79                         -0.0961709              -2.6169
       ...                                ...                  ...
       144                          0.7028151              19.1246
      -------------------------------------------------------------
                  HL-Gap            0.0707762 Eh            1.9259 eV

Wiberg/Mayer (AO) data.
largest (>0.10) Wiberg bond orders for each atom

     #   Z sym  total        # sym  WBO       # sym  WBO       # sym  WBO
 ---------------------------------------------------------------------------
     1   6 C    3.965 --    26 H    0.983    27 H    0.982    28 H    0.980
                             2 N    0.960
     2   7 N    3.241 --     3 C    1.089     1 C    0.960    23 C    0.929
                             8 N    0.138
     3   6 C    3.941 --     8 N    1.673     2 N    1.089     4 C    0.971
     4   6 C    3.963 --     5 C    0.990     6 C    0.988     7 N    0.976
                             3 C    0.971
     5   6 C    3.996 --     4 C    0.990    30 H    0.987    31 H    0.985
                            29 H    0.982
     6   6 C    3.995 --     4 C    0.988    34 H    0.986    32 H    0.985
                            33 H    0.981
     7   7 N    2.978 --     4 C    0.976    36 H    0.949    35 H    0.948
     8   7 N    3.015 --     3 C    1.673     9 C    1.058     2 N    0.138
     9   6 C    3.900 --    21 C    1.393    10 C    1.141     8 N    1.058
                            22 O    0.125
    10   6 C    3.900 --    11 O    1.505     9 C    1.141    12 N    1.134
    11   8 O    1.814 --    10 C    1.505    12 N    0.115
    12   7 N    3.226 --    10 C    1.134    13 C    0.961    37 H    0.892
                            11 O    0.115
    13   6 C    3.970 --    14 C    0.993    39 H    0.979    38 H    0.973
                            12 N    0.961
    14   6 C    3.987 --    20 C    1.419    15 C    1.414    13 C    0.993
    15   6 C    3.992 --    16 C    1.444    14 C    1.414    40 H    0.968
                            19 C    0.111
    16   6 C    3.992 --    15 C    1.444    17 C    1.401    41 H    0.971
                            20 C    0.110
    17   6 C    3.856 --    19 C    1.404    16 C    1.401    18 F    0.914
    18   9 F    1.039 --    17 C    0.914
    19   6 C    3.992 --    20 C    1.440    17 C    1.404    42 H    0.970
                            15 C    0.111
    20   6 C    3.994 --    19 C    1.440    14 C    1.419    43 H    0.972
                            16 C    0.110
    21   6 C    3.934 --    22 O    1.440     9 C    1.393    23 C    0.914
    22   8 O    1.851 --    21 C    1.440     9 C    0.125
    23   6 C    3.883 --    24 C    0.967    25 O    0.966     2 N    0.929
                            21 C    0.914
    24   6 C    3.994 --    47 H    0.987    45 H    0.986    46 H    0.984
                            23 C    0.967
    25   8 O    1.899 --    23 C    0.966    44 H    0.820
    26   1 H    1.021 --     1 C    0.983
    27   1 H    1.029 --     1 C    0.982
    28   1 H    1.023 --     1 C    0.980
    29   1 H    1.024 --     5 C    0.982
    30   1 H    1.007 --     5 C    0.987
    31   1 H    1.014 --     5 C    0.985
    32   1 H    1.003 --     6 C    0.985
    33   1 H    1.009 --     6 C    0.981
    34   1 H    1.009 --     6 C    0.986
    35   1 H    0.963 --     7 N    0.948
    36   1 H    0.967 --     7 N    0.949
    37   1 H    0.969 --    12 N    0.892
    38   1 H    1.019 --    13 C    0.973
    39   1 H    1.009 --    13 C    0.979
    40   1 H    1.018 --    15 C    0.968
    41   1 H    1.000 --    16 C    0.971
    42   1 H    0.999 --    19 C    0.970
    43   1 H    1.001 --    20 C    0.972
    44   1 H    0.890 --    25 O    0.820
    45   1 H    1.009 --    24 C    0.986
    46   1 H    1.007 --    24 C    0.984
    47   1 H    1.008 --    24 C    0.987
 ---------------------------------------------------------------------------

           -------------------------------------------------
          | TOTAL ENERGY              -80.234441434988 Eh   |
          | GRADIENT NORM               0.000250839028 Eh/α |
          | HOMO-LUMO GAP               1.925918047891 eV   |
           -------------------------------------------------

 * finished run on 2023/06/20 at 15:13:28.711
