   * xtb version 6.5.1 (579679a) compiled by 'ehlert@majestix' on 2022-07-11
          program call               : /lustre/hpc/kemi/ree/PhD/git/ReactivityQM/dep/xtb-6.5.1/bin/xtb --gfn 1 /lustre/hpc/kemi/ree/PhD/git/ReactivityQM/calculations/R01/reac02prodN10/conf16/R01_reac02prodN10_conf16_gfn1.xyz --opt --vfukui --chrg 1 --uhf 0 --alpb DMSO

   ID    Z sym.   atoms
    1    6 C      1, 3, 4, 6, 8-11, 14, 16
    2    8 O      2, 5, 15, 17
    3    7 N      7, 12, 13
    4    1 H      18-33

      * Solvation model:               ALPB
        Solvent                        DMSO
        Solvent mass                       7.8130E+01 g/mol
          :  Hamiltonian                  GFN1-xTB          :
 * total energy  :   -57.7954850 Eh     change       -0.1155342E-10 Eh
 * total energy  :   -57.8051253 Eh     change       -0.9640301E-02 Eh
 * total energy  :   -57.8076331 Eh     change       -0.2507748E-02 Eh
 * total energy  :   -57.8080691 Eh     change       -0.4360196E-03 Eh
 * total energy  :   -57.8084086 Eh     change       -0.3395141E-03 Eh
 * total energy  :   -57.8086090 Eh     change       -0.2004532E-03 Eh
 * total energy  :   -57.8088358 Eh     change       -0.2267373E-03 Eh
 * total energy  :   -57.8089972 Eh     change       -0.1614039E-03 Eh
 * total energy  :   -57.8091197 Eh     change       -0.1224844E-03 Eh
 * total energy  :   -57.8091970 Eh     change       -0.7733257E-04 Eh
 * total energy  :   -57.8093179 Eh     change       -0.1094690E-04 Eh
 * total energy  :   -57.8093360 Eh     change       -0.1807429E-04 Eh
 * total energy  :   -57.8093497 Eh     change       -0.1373318E-04 Eh
 * total energy  :   -57.8093623 Eh     change       -0.1261052E-04 Eh
 * total energy  :   -57.8093753 Eh     change       -0.1299310E-04 Eh
 * total energy  :   -57.8093834 Eh     change       -0.8134803E-05 Eh
 * total energy  :   -57.8093886 Eh     change       -0.5179201E-05 Eh
 * total energy  :   -57.8093955 Eh     change       -0.6837802E-05 Eh
 * total energy  :   -57.8093991 Eh     change       -0.3650762E-05 Eh
   *** GEOMETRY OPTIMIZATION CONVERGED AFTER 24 ITERATIONS ***

 final structure:
================
33
 xtb: 6.5.1 (579679a)
C            4.09694041402556        0.24324440297390       -1.01458664701121
O            2.70189561878414        0.01282994566031       -0.64798721924762
C            2.17404951214813       -1.27812455689362       -1.09946786983576
C            2.40431532958044        0.45577823011790        0.73633342835588
O            3.34424142970433        0.76832823461230        1.40104532532849
C            1.01152689716383        0.51083742658507        1.08406783154762
N            0.07900050104029        0.17550820541854        0.13803728412229
C           -1.17697228403110        0.19044573467756        0.43625724769529
C           -2.18602953900143       -0.24150401145001       -0.60205387729969
C           -2.86895269512323       -1.53352059706027       -0.13151011760917
C           -3.21786335109231        0.87498166854629       -0.83905875468580
N           -1.44551522593789       -0.53549371618496       -1.82144888133909
N           -1.61226730262255        0.56204723729276        1.67447926182939
C           -0.79264375572383        0.95869153026204        2.71069508573216
O           -1.23843777770796        1.29487498049680        3.78585018987772
C            0.64417928145521        0.91359773143057        2.35806571485599
O            1.47683512265590        1.26151529463853        3.31673994633059
H            4.73568853981737       -0.45861913488226       -0.47975167145527
H            4.15882914148087        0.10272343644316       -2.09015388478224
H            4.32825535026312        1.27035331165059       -0.74260846404875
H            2.51390037968211       -2.06303921389899       -0.42563396452918
H            2.55764330814440       -1.42758226973431       -2.10513167900672
H            1.08765658179913       -1.19156048164041       -1.11305451467200
H           -3.37651855461435       -1.37726740913856        0.81880413563698
H           -2.12242976295035       -2.31832481690902       -0.01566521952639
H           -3.59967066320007       -1.84853347488274       -0.87465032342769
H           -3.79619614266983        1.06412070839677        0.06380494043051
H           -3.89706678651819        0.57255033206838       -1.63424351526190
H           -2.71251397767937        1.79231133072822       -1.13669983999233
H           -0.99638762920181        0.30858019672541       -2.15190952829545
H           -2.08961333335975       -0.84940206515883       -2.53490669794676
H           -2.60315485590812        0.56771167306417        1.87804272170616
H            2.41727722959940        1.22194013604672        3.05446555652711

          :  Hamiltonian                  GFN1-xTB          :
         :: total energy             -57.809399111706 Eh    ::
         :: gradient norm              0.000716361611 Eh/a0 ::
         :: HOMO-LUMO gap              1.222267308795 eV    ::
         :: SCC energy               -58.390579705610 Eh    ::
         :: -> Gsolv                  -0.103504171357 Eh    ::
         :: repulsion energy           0.600463882312 Eh    ::

    * Orbital Energies and Occupations

         #    Occupation            Energy/Eh            Energy/eV
      -------------------------------------------------------------
         1        2.0000           -0.9317605             -25.3545
       ...           ...                  ...                  ...
        35        2.0000           -0.5541755             -15.0799
        36        2.0000           -0.5484271             -14.9235
        37        2.0000           -0.5446954             -14.8219
        38        2.0000           -0.5319677             -14.4756
        39        2.0000           -0.5266595             -14.3311
        40        2.0000           -0.5161370             -14.0448
        41        2.0000           -0.5130273             -13.9602
        42        2.0000           -0.5089238             -13.8485
        43        2.0000           -0.4988685             -13.5749
        44        2.0000           -0.4852011             -13.2030
        45        2.0000           -0.4746240             -12.9152
        46        2.0000           -0.4593975             -12.5008
        47        2.0000           -0.4241048             -11.5405 (HOMO)
        48                         -0.3791873             -10.3182 (LUMO)
        49                         -0.3093724              -8.4185
        50                         -0.2860720              -7.7844
        51                         -0.1961892              -5.3386
        52                         -0.1814231              -4.9368
        53                         -0.1683489              -4.5810
        54                         -0.1481179              -4.0305
        55                         -0.1332417              -3.6257
        56                         -0.1309184              -3.5625
        57                         -0.1274570              -3.4683
        58                         -0.1226903              -3.3386
       ...                                ...                  ...
       100                          0.7183225              19.5466
      -------------------------------------------------------------
                  HL-Gap            0.0449175 Eh            1.2223 eV

Wiberg/Mayer (AO) data.
largest (>0.10) Wiberg bond orders for each atom

     #   Z sym  total        # sym  WBO       # sym  WBO       # sym  WBO
 ---------------------------------------------------------------------------
     1   6 C    3.781 --    18 H    0.979    19 H    0.977    20 H    0.974
                             2 O    0.809
     2   8 O    2.505 --     1 C    0.809     3 C    0.794     4 C    0.781
     3   6 C    3.769 --    21 H    0.983    22 H    0.976    23 H    0.958
                             2 O    0.794
     4   6 C    3.804 --     5 O    1.745     6 C    1.128     2 O    0.781
     5   8 O    2.066 --     4 C    1.745
     6   6 C    3.959 --    16 C    1.410     7 N    1.160     4 C    1.128
     7   7 N    3.047 --     8 C    1.573     6 C    1.160
     8   6 C    3.909 --     7 N    1.573    13 N    1.169     9 C    0.983
     9   6 C    3.966 --    12 N    0.995     8 C    0.983    10 C    0.978
                            11 C    0.974
    10   6 C    3.991 --    25 H    0.985    24 H    0.985    26 H    0.982
                             9 C    0.978
    11   6 C    3.991 --    29 H    0.985    28 H    0.982    27 H    0.982
                             9 C    0.974
    12   7 N    2.962 --     9 C    0.995    30 H    0.940    31 H    0.938
    13   7 N    3.469 --     8 C    1.169    14 C    1.133    32 H    0.877
                            15 O    0.142
    14   6 C    3.913 --    15 O    1.635    13 N    1.133    16 C    1.023
    15   8 O    1.937 --    14 C    1.635    13 N    0.142
    16   6 C    3.909 --     6 C    1.410    17 O    1.179    14 C    1.023
    17   8 O    2.154 --    16 C    1.179    33 H    0.779
    18   1 H    0.994 --     1 C    0.979
    19   1 H    0.995 --     1 C    0.977
    20   1 H    0.997 --     1 C    0.974
    21   1 H    0.992 --     3 C    0.983
    22   1 H    0.994 --     3 C    0.976
    23   1 H    1.035 --     3 C    0.958
    24   1 H    0.999 --    10 C    0.985
    25   1 H    1.004 --    10 C    0.985
    26   1 H    0.998 --    10 C    0.982
    27   1 H    0.998 --    11 C    0.982
    28   1 H    1.000 --    11 C    0.982
    29   1 H    1.001 --    11 C    0.985
    30   1 H    0.961 --    12 N    0.940
    31   1 H    0.952 --    12 N    0.938
    32   1 H    0.923 --    13 N    0.877
    33   1 H    0.830 --    17 O    0.779
 ---------------------------------------------------------------------------

           -------------------------------------------------
          | TOTAL ENERGY              -57.809399111706 Eh   |
          | GRADIENT NORM               0.000716361611 Eh/α |
          | HOMO-LUMO GAP               1.222267308795 eV   |
           -------------------------------------------------

 * finished run on 2023/06/20 at 15:10:14.199
