   * xtb version 6.5.1 (579679a) compiled by 'ehlert@majestix' on 2022-07-11
          program call               : /lustre/hpc/kemi/ree/PhD/git/ReactivityQM/dep/xtb-6.5.1/bin/xtb --gfn 1 /lustre/hpc/kemi/ree/PhD/git/ReactivityQM/calculations/R02methylcation/reac01prodE14/conf15/R02methylcation_reac01prodE14_conf15_gfn1.xyz --opt --vfukui --chrg -2 --uhf 0 --alpb DMSO

   ID    Z sym.   atoms
    1    6 C      1, 3, 5, 7-10, 12, 14, 17, 18, 21, 23, 24
    2    8 O      2, 4, 13, 19, 22, 25
    3    7 N      6, 11, 15, 16, 20
    4    1 H      26-42

      * Solvation model:               ALPB
        Solvent                        DMSO
        Solvent mass                       7.8130E+01 g/mol
          :  Hamiltonian                  GFN1-xTB          :
 * total energy  :   -83.5854142 Eh     change       -0.1203233E-09 Eh
 * total energy  :   -83.6005645 Eh     change       -0.1515028E-01 Eh
 * total energy  :   -83.6066035 Eh     change       -0.6038971E-02 Eh
 * total energy  :   -83.6076868 Eh     change       -0.1083277E-02 Eh
 * total energy  :   -83.6084634 Eh     change       -0.7766196E-03 Eh
 * total energy  :   -83.6089414 Eh     change       -0.4780117E-03 Eh
 * total energy  :   -83.6094170 Eh     change       -0.4755818E-03 Eh
 * total energy  :   -83.6097931 Eh     change       -0.3761465E-03 Eh
 * total energy  :   -83.6099973 Eh     change       -0.2041846E-03 Eh
 * total energy  :   -83.6100899 Eh     change       -0.9262575E-04 Eh
 * total energy  :   -83.6113191 Eh     change       -0.8263561E-05 Eh
 * total energy  :   -83.6113294 Eh     change       -0.1024652E-04 Eh
 * total energy  :   -83.6113385 Eh     change       -0.9109866E-05 Eh
 * total energy  :   -83.6113491 Eh     change       -0.1062405E-04 Eh
 * total energy  :   -83.6113582 Eh     change       -0.9053383E-05 Eh
 * total energy  :   -83.6113657 Eh     change       -0.7515547E-05 Eh
 * total energy  :   -83.6113731 Eh     change       -0.7392544E-05 Eh
 * total energy  :   -83.6113799 Eh     change       -0.6812490E-05 Eh
 * total energy  :   -83.6113838 Eh     change       -0.3950194E-05 Eh
   *** GEOMETRY OPTIMIZATION CONVERGED AFTER 59 ITERATIONS ***

 final structure:
================
42
 xtb: 6.5.1 (579679a)
C           -4.67310026564189       -1.13464793546247        3.06977152923388
O           -4.18115048172130       -0.51138714314587        1.90424265494994
C           -2.92045369432494       -0.96448585245166        1.47842813498023
O           -2.36531283263158       -1.85159225714950        2.16274065778578
C           -2.40198588824628       -0.34182006740791        0.32933133304172
N           -1.20434960685993       -0.87912139412974       -0.07766361039655
C           -0.54345049840474       -0.42573683591412       -1.08229103786741
C            0.75463115767844       -1.09683539543520       -1.49189962898433
C            0.77945635829205       -2.51850521206697       -0.92319153494300
C            0.94468857015704       -1.15092195123142       -3.01141038448504
N            1.89936154704064       -0.38844769974164       -0.86521818667146
C            2.35442396266460        0.83364301217477       -1.19246052039301
O            1.93368805327984        1.54135092035935       -2.10726744835651
C            3.45449300902324        1.29644613487228       -0.31883218628278
N            4.06460994607513        2.44851026563874       -0.36513718590988
N            5.00973383496937        2.43302804833887        0.62134803591336
C            4.92333806808364        1.28108967103720        1.20550301346863
C            5.73990289697780        0.77689725495331        2.33215457269521
O            3.95994425948057        0.51050756946286        0.66647554424839
N           -0.92774258336302        0.74894595590716       -1.75176304785845
C           -2.00285027338035        1.47954104966590       -1.33214967678527
O           -2.09272139005475        2.66578719060606       -1.67791314963925
C           -3.13586226853294        0.67094545814314       -0.60688893404184
C           -3.93182765633704        1.72605469990504        0.23925508391834
O           -3.87879979774140        0.09440218169473       -1.56649014386192
H           -5.64175579496066       -0.68706268887854        3.29992496218064
H           -4.80341822690078       -2.21523462901741        2.92480109799570
H           -3.99800548209457       -0.98343020084660        3.92208979451510
H           -0.02052917133379       -3.10651697580778       -1.37161329700351
H            0.62525481534990       -2.49341315814423        0.15598115371581
H            1.73261278359897       -2.99718399761666       -1.13901872051413
H            1.88420755054304       -1.64850914109296       -3.24764706640456
H            0.12658518455308       -1.71766415788607       -3.45543808228855
H            0.96121317486167       -0.15623175283097       -3.45200272168931
H            2.36111086147390       -0.86783597609884       -0.11096406589210
H            6.27684637052464       -0.12222998680328        2.03114045459993
H            5.10055488398265        0.52008329317271        3.17663939289644
H            6.45305918381685        1.53955939627717        2.63443022107619
H           -0.22489299306220        1.23317689161708       -2.29185158605411
H           -3.38015307094935        2.02260464963224        1.13262571904729
H           -4.89651434825695        1.31287738108670        0.52673420476679
H           -4.11484114762504        2.60990938462058       -0.37450534471796

          :  Hamiltonian                  GFN1-xTB          :
         :: total energy             -83.611383838357 Eh    ::
         :: gradient norm              0.000555581973 Eh/a0 ::
         :: HOMO-LUMO gap              0.216947673267 eV    ::
         :: SCC energy               -84.344677665770 Eh    ::
         :: -> Gsolv                  -0.310042895599 Eh    ::
         :: repulsion energy           0.759220574910 Eh    ::

    * Orbital Energies and Occupations

         #    Occupation            Energy/Eh            Energy/eV
      -------------------------------------------------------------
         1        2.0000           -0.8459822             -23.0203
       ...           ...                  ...                  ...
        56        2.0000           -0.4395495             -11.9607
        57        2.0000           -0.4356807             -11.8555
        58        2.0000           -0.4303681             -11.7109
        59        2.0000           -0.4260062             -11.5922
        60        2.0000           -0.4212313             -11.4623
        61        2.0000           -0.4137732             -11.2593
        62        2.0000           -0.3975170             -10.8170
        63        2.0000           -0.3896836             -10.6038
        64        2.0000           -0.3835306             -10.4364
        65        2.0000           -0.3683996             -10.0247
        66        2.0000           -0.3061204              -8.3300
        67        1.9902           -0.2982491              -8.1158
        68        1.9749           -0.2973514              -8.0913 (HOMO)
        69        0.0350           -0.2893787              -7.8744 (LUMO)
        70                         -0.2413854              -6.5684
        71                         -0.2114489              -5.7538
        72                         -0.1758045              -4.7839
        73                         -0.1685161              -4.5856
        74                         -0.1359708              -3.7000
        75                         -0.1141009              -3.1048
        76                         -0.1059296              -2.8825
        77                         -0.1042753              -2.8375
        78                         -0.1036943              -2.8217
        79                         -0.0754893              -2.0542
       ...                                ...                  ...
       134                          0.7287903              19.8314
      -------------------------------------------------------------
                  HL-Gap            0.0079727 Eh            0.2169 eV

Wiberg/Mayer (AO) data.
largest (>0.10) Wiberg bond orders for each atom

     #   Z sym  total        # sym  WBO       # sym  WBO       # sym  WBO
 ---------------------------------------------------------------------------
     1   6 C    3.922 --    26 H    0.987    27 H    0.980    28 H    0.980
                             2 O    0.952
     2   8 O    2.083 --     1 C    0.952     3 C    0.935
     3   6 C    3.840 --     4 O    1.449     5 C    1.320     2 O    0.935
     4   8 O    1.741 --     3 C    1.449     5 C    0.103
     5   6 C    3.821 --     3 C    1.320     6 N    1.199    23 C    0.919
                             4 O    0.103
     6   7 N    3.051 --     7 C    1.600     5 C    1.199
     7   6 C    3.897 --     6 N    1.600    20 N    1.019     8 C    0.970
     8   6 C    3.924 --     9 C    1.002    10 C    0.995     7 C    0.970
                            11 N    0.892
     9   6 C    3.995 --     8 C    1.002    31 H    0.987    29 H    0.984
                            30 H    0.981
    10   6 C    3.992 --     8 C    0.995    32 H    0.986    33 H    0.986
                            34 H    0.979
    11   7 N    3.349 --    12 C    1.272    35 H    0.904     8 C    0.892
                            13 O    0.174
    12   6 C    3.905 --    13 O    1.524    11 N    1.272    14 C    1.010
    13   8 O    1.851 --    12 C    1.524    11 N    0.174
    14   6 C    3.830 --    15 N    1.584    19 O    1.031    12 C    1.010
    15   7 N    2.934 --    14 C    1.584    16 N    1.188
    16   7 N    2.980 --    17 C    1.623    15 N    1.188
    17   6 C    3.859 --    16 N    1.623    19 O    1.065    18 C    1.029
    18   6 C    3.989 --    17 C    1.029    38 H    0.984    37 H    0.966
                            36 H    0.965
    19   8 O    2.286 --    17 C    1.065    14 C    1.031
    20   7 N    3.364 --    21 C    1.185     7 C    1.019    39 H    0.899
                            22 O    0.117
    21   6 C    3.818 --    22 O    1.554    20 N    1.185    23 C    0.879
    22   8 O    1.823 --    21 C    1.554    20 N    0.117
    23   6 C    3.963 --    25 O    1.122    24 C    0.945     5 C    0.919
                            21 C    0.879
    24   6 C    3.988 --    40 H    0.990    41 H    0.987    42 H    0.985
                            23 C    0.945
    25   8 O    1.412 --    23 C    1.122
    26   1 H    1.020 --     1 C    0.987
    27   1 H    1.022 --     1 C    0.980
    28   1 H    1.022 --     1 C    0.980
    29   1 H    1.010 --     9 C    0.984
    30   1 H    1.023 --     9 C    0.981
    31   1 H    1.003 --     9 C    0.987
    32   1 H    1.004 --    10 C    0.986
    33   1 H    1.006 --    10 C    0.986
    34   1 H    1.016 --    10 C    0.979
    35   1 H    0.949 --    11 N    0.904
    36   1 H    0.998 --    18 C    0.965
    37   1 H    0.998 --    18 C    0.966
    38   1 H    1.000 --    18 C    0.984
    39   1 H    0.975 --    20 N    0.899
    40   1 H    1.017 --    24 C    0.990
    41   1 H    1.034 --    24 C    0.987
    42   1 H    1.027 --    24 C    0.985
 ---------------------------------------------------------------------------

           -------------------------------------------------
          | TOTAL ENERGY              -83.611383838357 Eh   |
          | GRADIENT NORM               0.000555581973 Eh/α |
          | HOMO-LUMO GAP               0.216947673267 eV   |
           -------------------------------------------------

 * finished run on 2023/06/21 at 17:28:40.941
