   * xtb version 6.5.1 (579679a) compiled by 'ehlert@majestix' on 2022-07-11
          program call               : /lustre/hpc/kemi/ree/PhD/git/ReactivityQM/dep/xtb-6.5.1/bin/xtb --gfn 1 /lustre/hpc/kemi/ree/PhD/git/ReactivityQM/calculations/RaltegravirCLI/reac02/conf13/RaltegravirCLI_reac02_conf13_gfn1.xyz --opt --vfukui --chrg 0 --uhf 0 --alpb DMSO

   ID    Z sym.   atoms
    1    6 C      1, 3-6, 9, 10, 13-17, 19-21, 23
    2    7 N      2, 7, 8, 12
    3    8 O      11, 22, 24
    4    9 F      18
    5    1 H      25-43

      * Solvation model:               ALPB
        Solvent                        DMSO
        Solvent mass                       7.8130E+01 g/mol
          :  Hamiltonian                  GFN1-xTB          :
 * total energy  :   -76.1646698 Eh     change       -0.7489120E-11 Eh
 * total energy  :   -76.1719640 Eh     change       -0.7294166E-02 Eh
 * total energy  :   -76.1739261 Eh     change       -0.1962140E-02 Eh
 * total energy  :   -76.1743256 Eh     change       -0.3995231E-03 Eh
 * total energy  :   -76.1745743 Eh     change       -0.2486166E-03 Eh
 * total energy  :   -76.1746593 Eh     change       -0.8501207E-04 Eh
 * total energy  :   -76.1747086 Eh     change       -0.4928416E-04 Eh
 * total energy  :   -76.1747307 Eh     change       -0.2209930E-04 Eh
 * total energy  :   -76.1747480 Eh     change       -0.1733449E-04 Eh
 * total energy  :   -76.1747620 Eh     change       -0.1402245E-04 Eh
 * total energy  :   -76.1747831 Eh     change       -0.2112506E-04 Eh
 * total energy  :   -76.1747964 Eh     change       -0.1321346E-04 Eh
 * total energy  :   -76.1748075 Eh     change       -0.1115192E-04 Eh
 * total energy  :   -76.1748157 Eh     change       -0.8146508E-05 Eh
 * total energy  :   -76.1748211 Eh     change       -0.5489162E-05 Eh
 * total energy  :   -76.1748265 Eh     change       -0.5327768E-05 Eh
 * total energy  :   -76.1748322 Eh     change       -0.5750416E-05 Eh
 * total energy  :   -76.1748367 Eh     change       -0.4521384E-05 Eh
   *** GEOMETRY OPTIMIZATION CONVERGED AFTER 18 ITERATIONS ***

 final structure:
================
43
 xtb: 6.5.1 (579679a)
C           -3.95210404952109       -0.98815719774056        1.67272530808379
N           -2.72624871260553       -0.85435403583607        0.88561916021577
C           -2.42830961101339        0.22659164325750        0.08938892805782
C           -3.35951444381437        1.43117597775191       -0.10604214856093
C           -4.80418357056362        1.04311086625613       -0.44914271067592
C           -3.29432261588858        2.35012514832416        1.12336584920943
N           -2.85743933085549        2.20336086436951       -1.23811559710106
N           -1.30266571276084        0.30474442766101       -0.54656176606880
C           -0.35247769634661       -0.67441108073280       -0.48049483892974
C            0.89266514184582       -0.36240005580964       -1.25885843963184
O            0.96449288598065        0.62549739581879       -1.98102596429231
N            1.91408940715403       -1.22938284403363       -1.11419365704222
C            3.19148339334129       -0.99623823280995       -1.77834362355825
C            4.14887138141062       -0.24495771209466       -0.87653599066189
C            3.88709322213772        1.07973342462959       -0.52829248019821
C            4.75564088780366        1.77753606437317        0.29773892314786
C            5.88520094907212        1.12707171290184        0.76215858590015
F            6.73266095830554        1.79750133777529        1.56086319463781
C            6.17731160369477       -0.18423898024191        0.43589426233912
C            5.29420815576681       -0.86874857136678       -0.38911040948629
C           -0.61295058432164       -1.79650491943970        0.24953781601273
O            0.22596806321540       -2.84693809747849        0.36895353579358
C           -1.86032241562820       -1.92900343783494        0.97643306098263
O           -2.11176754727859       -2.93151434815616        1.64365320411903
H           -4.23191383787473       -0.03375496536694        2.10568154206653
H           -4.75679158859588       -1.36923158626000        1.04516853637243
H           -3.75789144850759       -1.70087670346858        2.47399835673387
H           -5.27119886610595        1.88283916759829       -0.96411652391756
H           -4.82211578640484        0.17793322583354       -1.11063942519988
H           -5.39197905882865        0.82519606538204        0.43877422590741
H           -2.25773922154802        2.61078660393248        1.33538446889403
H           -3.72188277624166        1.87789984498962        2.00471975253842
H           -3.85088763190029        3.26263899368642        0.91190658015229
H           -1.88290448422825        2.43677152313018       -1.06844069142364
H           -2.88241391250566        1.61869995329183       -2.06570450397639
H            1.86743301924470       -1.99221089184180       -0.45999838298650
H            2.99665234432126       -0.41549845243275       -2.68643688353161
H            3.61155646579187       -1.96535188376846       -2.05754055797520
H            2.99837681367482        1.57048111257541       -0.90825024097567
H            4.56562125804631        2.80630741137344        0.57525111758342
H            7.07165356622571       -0.65821346994397        0.81837547717268
H            5.50482960060460       -1.89770359510960       -0.65587140030560
H           -0.19578521429810       -3.51091870313964        0.94812135057450

          :  Hamiltonian                  GFN1-xTB          :
         :: total energy             -76.174836739491 Eh    ::
         :: gradient norm              0.000605686502 Eh/a0 ::
         :: HOMO-LUMO gap              2.728098183678 eV    ::
         :: SCC energy               -77.019403563732 Eh    ::
         :: -> Gsolv                  -0.045605961374 Eh    ::
         :: repulsion energy           0.871864323023 Eh    ::

    * Orbital Energies and Occupations

         #    Occupation            Energy/Eh            Energy/eV
      -------------------------------------------------------------
         1        2.0000           -0.8628954             -23.4806
       ...           ...                  ...                  ...
        52        2.0000           -0.4951814             -13.4746
        53        2.0000           -0.4875621             -13.2672
        54        2.0000           -0.4837617             -13.1638
        55        2.0000           -0.4721709             -12.8484
        56        2.0000           -0.4666438             -12.6980
        57        2.0000           -0.4651947             -12.6586
        58        2.0000           -0.4501465             -12.2491
        59        2.0000           -0.4458740             -12.1328
        60        2.0000           -0.4382485             -11.9253
        61        2.0000           -0.4334587             -11.7950
        62        2.0000           -0.4318248             -11.7506
        63        2.0000           -0.4195801             -11.4174
        64        2.0000           -0.4102284             -11.1629 (HOMO)
        65                         -0.3099726              -8.4348 (LUMO)
        66                         -0.2724298              -7.4132
        67                         -0.2720263              -7.4022
        68                         -0.2655187              -7.2251
        69                         -0.2253310              -6.1316
        70                         -0.1475852              -4.0160
        71                         -0.1450141              -3.9460
        72                         -0.1439163              -3.9162
        73                         -0.1266617              -3.4466
        74                         -0.1195803              -3.2539
        75                         -0.1168879              -3.1807
       ...                                ...                  ...
       134                          0.7177709              19.5315
      -------------------------------------------------------------
                  HL-Gap            0.1002558 Eh            2.7281 eV

Wiberg/Mayer (AO) data.
largest (>0.10) Wiberg bond orders for each atom

     #   Z sym  total        # sym  WBO       # sym  WBO       # sym  WBO
 ---------------------------------------------------------------------------
     1   6 C    3.925 --    25 H    0.977    26 H    0.976    27 H    0.973
                             2 N    0.931
     2   7 N    3.507 --     3 C    1.163    23 C    1.134     1 C    0.931
                            24 O    0.133
     3   6 C    3.918 --     8 N    1.570     2 N    1.163     4 C    0.963
     4   6 C    3.969 --     7 N    0.997     5 C    0.992     6 C    0.983
                             3 C    0.963
     5   6 C    3.994 --     4 C    0.992    29 H    0.986    28 H    0.983
                            30 H    0.983
     6   6 C    3.994 --    31 H    0.985    33 H    0.983     4 C    0.983
                            32 H    0.979
     7   7 N    2.960 --     4 C    0.997    35 H    0.945    34 H    0.940
     8   7 N    3.042 --     3 C    1.570     9 C    1.196
     9   6 C    3.964 --    21 C    1.508     8 N    1.196    10 C    0.991
    10   6 C    3.907 --    11 O    1.571    12 N    1.264     9 C    0.991
    11   8 O    1.879 --    10 C    1.571    12 N    0.171
    12   7 N    3.346 --    10 C    1.264    13 C    0.943    36 H    0.888
                            11 O    0.171
    13   6 C    3.949 --    14 C    0.994    38 H    0.977    37 H    0.966
                            12 N    0.943
    14   6 C    3.988 --    20 C    1.424    15 C    1.413    13 C    0.994
    15   6 C    3.992 --    16 C    1.449    14 C    1.413    39 H    0.969
                            19 C    0.112
    16   6 C    3.992 --    15 C    1.449    17 C    1.397    40 H    0.970
                            20 C    0.109
    17   6 C    3.860 --    19 C    1.405    16 C    1.397    18 F    0.923
    18   9 F    1.051 --    17 C    0.923
    19   6 C    3.991 --    20 C    1.438    17 C    1.405    41 H    0.969
                            15 C    0.112
    20   6 C    3.994 --    19 C    1.438    14 C    1.424    42 H    0.971
                            16 C    0.109
    21   6 C    3.917 --     9 C    1.508    23 C    1.093    22 O    1.070
    22   8 O    2.063 --    21 C    1.070    43 H    0.800
    23   6 C    3.916 --    24 O    1.537     2 N    1.134    21 C    1.093
    24   8 O    1.888 --    23 C    1.537     2 N    0.133
    25   1 H    1.008 --     1 C    0.977
    26   1 H    1.002 --     1 C    0.976
    27   1 H    1.007 --     1 C    0.973
    28   1 H    1.007 --     5 C    0.983
    29   1 H    1.001 --     5 C    0.986
    30   1 H    1.004 --     5 C    0.983
    31   1 H    1.003 --     6 C    0.985
    32   1 H    1.005 --     6 C    0.979
    33   1 H    1.005 --     6 C    0.983
    34   1 H    0.977 --     7 N    0.940
    35   1 H    0.967 --     7 N    0.945
    36   1 H    0.945 --    12 N    0.888
    37   1 H    1.011 --    13 C    0.966
    38   1 H    1.003 --    13 C    0.977
    39   1 H    1.010 --    15 C    0.969
    40   1 H    0.999 --    16 C    0.970
    41   1 H    0.998 --    19 C    0.969
    42   1 H    1.000 --    20 C    0.971
    43   1 H    0.846 --    22 O    0.800
 ---------------------------------------------------------------------------

           -------------------------------------------------
          | TOTAL ENERGY              -76.174836739491 Eh   |
          | GRADIENT NORM               0.000605686502 Eh/α |
          | HOMO-LUMO GAP               2.728098183678 eV   |
           -------------------------------------------------

 * finished run on 2023/06/20 at 14:51:42.202
