                         Program Version 5.0.1 -  RELEASE  -
|  1> # ORCA input file
|  2> ! SP r2SCAN-3c CPCM
|  3>
|  4> %maxcore 1875.0
|  5> %pal nprocs 4 end
|  6> %cpcm smd true SMDsolvent "DMSO" end
|  7>
|  8> *xyz 1 1
|  9> C       3.777122    2.288846   -0.947065
| 10> O       2.501958    1.624554   -0.941461
| 11> C       2.484294    0.373226   -0.540215
| 12> O       3.451644   -0.255624   -0.185278
| 13> C       1.092887   -0.217310   -0.534089
| 14> N       0.103593    0.584403   -0.484545
| 15> C      -1.192747    0.055605   -0.390602
| 16> C      -2.113024    0.675876    0.602347
| 17> C      -1.591360    1.775717    1.493860
| 18> C      -3.287827   -0.107404    1.130339
| 19> N      -2.209544    1.046502   -0.832420
| 20> N      -1.395361   -1.247914   -0.893868
| 21> C      -0.375891   -2.145869   -1.096816
| 22> O      -0.560155   -3.184119   -1.677722
| 23> C       0.952101   -1.726295   -0.452013
| 24> C       0.898026   -2.114231    1.044374
| 25> O       1.979351   -2.400357   -1.111441
| 26> H       4.452972    1.781005   -1.638057
| 27> H       4.201103    2.275942    0.058742
| 28> H       3.587399    3.308986   -1.272692
| 29> H      -2.383645    2.494828    1.697301
| 30> H      -0.750450    2.284039    1.025535
| 31> H      -1.262675    1.339921    2.436844
| 32> H      -2.979109   -0.648371    2.024725
| 33> H      -3.651607   -0.820522    0.394311
| 34> H      -4.095455    0.573916    1.395170
| 35> H      -1.854504    1.950570   -1.112184
| 36> H      -3.001967    0.710162   -1.357492
| 37> H      -2.291326   -1.475022   -1.290148
| 38> H       1.825103   -1.807969    1.525345
| 39> H       0.790582   -3.194851    1.122360
| 40> H       0.057964   -1.625762    1.531306
| 41> H       2.840549   -2.172480   -0.724451
| 42> **                         ****END OF INPUT****

CARTESIAN COORDINATES (ANGSTROEM)
---------------------------------
  C      3.777122    2.288846   -0.947065
  O      2.501958    1.624554   -0.941461
  C      2.484294    0.373226   -0.540215
  O      3.451644   -0.255624   -0.185278
  C      1.092887   -0.217310   -0.534089
  N      0.103593    0.584403   -0.484545
  C     -1.192747    0.055605   -0.390602
  C     -2.113024    0.675876    0.602347
  C     -1.591360    1.775717    1.493860
  C     -3.287827   -0.107404    1.130339
  N     -2.209544    1.046502   -0.832420
  N     -1.395361   -1.247914   -0.893868
  C     -0.375891   -2.145869   -1.096816
  O     -0.560155   -3.184119   -1.677722
  C      0.952101   -1.726295   -0.452013
  C      0.898026   -2.114231    1.044374
  O      1.979351   -2.400357   -1.111441
  H      4.452972    1.781005   -1.638057
  H      4.201103    2.275942    0.058742
  H      3.587399    3.308986   -1.272692
  H     -2.383645    2.494828    1.697301
  H     -0.750450    2.284039    1.025535
  H     -1.262675    1.339921    2.436844
  H     -2.979109   -0.648371    2.024725
  H     -3.651607   -0.820522    0.394311
  H     -4.095455    0.573916    1.395170
  H     -1.854504    1.950570   -1.112184
  H     -3.001967    0.710162   -1.357492
  H     -2.291326   -1.475022   -1.290148
  H      1.825103   -1.807969    1.525345
  H      0.790582   -3.194851    1.122360
  H      0.057964   -1.625762    1.531306
  H      2.840549   -2.172480   -0.724451

 Total Charge           Charge          ....    1
 Multiplicity           Mult            ....    1
 Number of Electrons    NEL             ....  128
 Basis Dimension        Dim             ....  438

ORBITAL ENERGIES
----------------

  NO   OCC          E(Eh)            E(eV)
   0   2.0000     -19.023191      -517.6473
   1   2.0000     -18.968160      -516.1499
   2   2.0000     -18.965763      -516.0846
   3   2.0000     -18.944521      -515.5066
   4   2.0000     -14.278200      -388.5296
   5   2.0000     -14.220061      -386.9475
   6   2.0000     -14.208499      -386.6329
   7   2.0000     -10.194249      -277.3996
   8   2.0000     -10.188312      -277.2381
   9   2.0000     -10.159834      -276.4631
  10   2.0000     -10.132282      -275.7134
  11   2.0000     -10.132122      -275.7091
  12   2.0000     -10.131746      -275.6988
  13   2.0000     -10.086949      -274.4798
  14   2.0000     -10.043345      -273.2933
  15   2.0000     -10.038945      -273.1736
  16   2.0000     -10.038711      -273.1672
  17   2.0000      -1.103571       -30.0297
  18   2.0000      -1.058007       -28.7898
  19   2.0000      -1.036416       -28.2023
  20   2.0000      -1.018192       -27.7064
  21   2.0000      -1.005278       -27.3550
  22   2.0000      -0.954377       -25.9699
  23   2.0000      -0.904482       -24.6122
  24   2.0000      -0.778985       -21.1973
  25   2.0000      -0.767847       -20.8942
  26   2.0000      -0.735518       -20.0145
  27   2.0000      -0.701458       -19.0876
  28   2.0000      -0.691659       -18.8210
  29   2.0000      -0.656460       -17.8632
  30   2.0000      -0.649273       -17.6676
  31   2.0000      -0.610307       -16.6073
  32   2.0000      -0.578553       -15.7432
  33   2.0000      -0.555406       -15.1134
  34   2.0000      -0.551518       -15.0076
  35   2.0000      -0.520804       -14.1718
  36   2.0000      -0.510520       -13.8920
  37   2.0000      -0.497054       -13.5255
  38   2.0000      -0.477837       -13.0026
  39   2.0000      -0.469680       -12.7807
  40   2.0000      -0.464040       -12.6272
  41   2.0000      -0.451876       -12.2962
  42   2.0000      -0.448720       -12.2103
  43   2.0000      -0.434521       -11.8239
  44   2.0000      -0.420822       -11.4512
  45   2.0000      -0.404182       -10.9983
  46   2.0000      -0.401469       -10.9245
  47   2.0000      -0.396559       -10.7909
  48   2.0000      -0.389844       -10.6082
  49   2.0000      -0.371902       -10.1200
  50   2.0000      -0.370717       -10.0877
  51   2.0000      -0.366415        -9.9707
  52   2.0000      -0.363849        -9.9008
  53   2.0000      -0.352996        -9.6055
  54   2.0000      -0.349589        -9.5128
  55   2.0000      -0.341382        -9.2895
  56   2.0000      -0.337608        -9.1868
  57   2.0000      -0.313391        -8.5278
  58   2.0000      -0.305490        -8.3128
  59   2.0000      -0.294564        -8.0155
  60   2.0000      -0.278835        -7.5875
  61   2.0000      -0.262237        -7.1358
  62   2.0000      -0.248095        -6.7510
  63   2.0000      -0.244522        -6.6538
  64   0.0000      -0.119201        -3.2436
  65   0.0000      -0.037392        -1.0175
  66   0.0000       0.008315         0.2263
  67   0.0000       0.035518         0.9665
  68   0.0000       0.048155         1.3104

MULLIKEN ATOMIC CHARGES
-----------------------
   0 C :   -0.304911
   1 O :   -0.166196
   2 C :    0.246951
   3 O :   -0.432223
   4 C :    0.279415
   5 N :   -0.168506
   6 C :    0.018410
   7 C :    0.184733
   8 C :   -0.558474
   9 C :   -0.516375
  10 N :   -0.164846
  11 N :   -0.049776
  12 C :    0.105038
  13 O :   -0.360139
  14 C :    0.158314
  15 C :   -0.521946
  16 O :   -0.422996
  17 H :    0.185215
  18 H :    0.184238
  19 H :    0.184510
  20 H :    0.197256
  21 H :    0.191518
  22 H :    0.202827
  23 H :    0.207398
  24 H :    0.176790
  25 H :    0.201404
  26 H :    0.339137
  27 H :    0.344206
  28 H :    0.327490
  29 H :    0.191305
  30 H :    0.197385
  31 H :    0.204942
  32 H :    0.337906
Sum of atomic charges:    1.0000000

LOEWDIN ATOMIC CHARGES
----------------------
   0 C :   -0.025946
   1 O :   -0.543235
   2 C :    0.401821
   3 O :   -0.415315
   4 C :    0.299429
   5 N :   -0.475267
   6 C :    0.402648
   7 C :    0.124638
   8 C :   -0.338727
   9 C :   -0.337428
  10 N :   -0.365458
  11 N :   -0.473318
  12 C :    0.383644
  13 O :   -0.396509
  14 C :    0.162002
  15 C :   -0.321077
  16 O :   -0.535366
  17 H :    0.187696
  18 H :    0.187808
  19 H :    0.191300
  20 H :    0.181539
  21 H :    0.187361
  22 H :    0.186821
  23 H :    0.188903
  24 H :    0.180502
  25 H :    0.185655
  26 H :    0.315287
  27 H :    0.312685
  28 H :    0.305226
  29 H :    0.180252
  30 H :    0.183137
  31 H :    0.181286
  32 H :    0.298006

  Mayer bond orders larger than 0.100000
B(  0-C ,  1-O ) :   0.8191 B(  0-C , 17-H ) :   0.9508 B(  0-C , 18-H ) :   0.9526
B(  0-C , 19-H ) :   0.9585 B(  1-O ,  2-C ) :   1.1889 B(  2-C ,  3-O ) :   1.7652
B(  2-C ,  4-C ) :   1.0068 B(  4-C ,  5-N ) :   1.6120 B(  4-C , 14-C ) :   0.8762
B(  5-N ,  6-C ) :   1.1624 B(  6-C ,  7-C ) :   0.9830 B(  6-C , 10-N ) :   0.8235
B(  6-C , 11-N ) :   0.9658 B(  7-C ,  8-C ) :   0.8006 B(  7-C ,  9-C ) :   0.8188
B(  7-C , 10-N ) :   0.7612 B(  8-C , 20-H ) :   0.9595 B(  8-C , 21-H ) :   0.9710
B(  8-C , 22-H ) :   0.9518 B(  9-C , 23-H ) :   0.9535 B(  9-C , 24-H ) :   0.9639
B(  9-C , 25-H ) :   0.9534 B( 10-N , 26-H ) :   0.8670 B( 10-N , 27-H ) :   0.8758
B( 11-N , 12-C ) :   1.0333 B( 11-N , 28-H ) :   0.8736 B( 12-C , 13-O ) :   2.1164
B( 12-C , 14-C ) :   0.8731 B( 14-C , 15-C ) :   1.0142 B( 14-C , 16-O ) :   0.9604
B( 15-C , 29-H ) :   0.9251 B( 15-C , 30-H ) :   0.9494 B( 15-C , 31-H ) :   0.9438
B( 16-O , 32-H ) :   0.8422

Dispersion correction           -0.013485672
FINAL SINGLE POINT ENERGY      -855.542758806127

DIPOLE MOMENT
-------------
                                X             Y             Z
Electronic contribution:      4.15950      -4.94493      -9.56956
Nuclear contribution   :     -8.63581       9.01449      10.61989
                        -----------------------------------------
Total Dipole Moment    :     -4.47631       4.06957       1.05033
                        -----------------------------------------
Magnitude (a.u.)       :      6.14019
Magnitude (Debye)      :     15.60711

Rotational constants in cm-1:     0.020954     0.013393     0.009591
Rotational constants in MHz :   628.195685   401.515969   287.527602

                             ****ORCA TERMINATED NORMALLY****
TOTAL RUN TIME: 0 days 0 hours 1 minutes 24 seconds 323 msec
