   * xtb version 6.5.1 (579679a) compiled by 'ehlert@majestix' on 2022-07-11
          program call               : /lustre/hpc/kemi/ree/PhD/git/ReactivityQM/dep/xtb-6.5.1/bin/xtb --gfn 1 /lustre/hpc/kemi/ree/PhD/git/ReactivityQM/calculations/R01/reac02prodN09/conf08/R01_reac02prodN09_conf08_gfn1.xyz --opt --vfukui --chrg 1 --uhf 0 --alpb DMSO

   ID    Z sym.   atoms
    1    6 C      1, 3, 5, 7-10, 13, 15, 16
    2    8 O      2, 4, 14, 17
    3    7 N      6, 11, 12
    4    1 H      18-33

      * Solvation model:               ALPB
        Solvent                        DMSO
        Solvent mass                       7.8130E+01 g/mol
          :  Hamiltonian                  GFN1-xTB          :
 * total energy  :   -57.7876562 Eh     change       -0.5224621E-10 Eh
 * total energy  :   -57.7991643 Eh     change       -0.1150811E-01 Eh
 * total energy  :   -57.8044137 Eh     change       -0.5249406E-02 Eh
 * total energy  :   -57.8055720 Eh     change       -0.1158263E-02 Eh
 * total energy  :   -57.8064183 Eh     change       -0.8463505E-03 Eh
 * total energy  :   -57.8069840 Eh     change       -0.5656520E-03 Eh
 * total energy  :   -57.8076911 Eh     change       -0.7071308E-03 Eh
 * total energy  :   -57.8083930 Eh     change       -0.7018645E-03 Eh
 * total energy  :   -57.8088594 Eh     change       -0.4663974E-03 Eh
 * total energy  :   -57.8091044 Eh     change       -0.2450672E-03 Eh
 * total energy  :   -57.8398360 Eh     change       -0.9913287E-05 Eh
 * total energy  :   -57.8398499 Eh     change       -0.1392984E-04 Eh
 * total energy  :   -57.8398700 Eh     change       -0.2009254E-04 Eh
 * total energy  :   -57.8398793 Eh     change       -0.9298204E-05 Eh
 * total energy  :   -57.8398848 Eh     change       -0.5529411E-05 Eh
 * total energy  :   -57.8398908 Eh     change       -0.5957758E-05 Eh
 * total energy  :   -57.8398984 Eh     change       -0.7666304E-05 Eh
 * total energy  :   -57.8399060 Eh     change       -0.7558159E-05 Eh
 * total energy  :   -57.8399104 Eh     change       -0.4443295E-05 Eh
   *** GEOMETRY OPTIMIZATION CONVERGED AFTER 78 ITERATIONS ***

 final structure:
================
33
 xtb: 6.5.1 (579679a)
C            3.77712153767059        2.28884579585070       -0.94706471100205
O            2.50195802539061        1.62455441238173       -0.94146080920387
C            2.48429366319466        0.37322621121196       -0.54021454719485
O            3.45164399886122       -0.25562402128778       -0.18527787344227
C            1.09288729758442       -0.21730966760205       -0.53408853065951
N            0.10359347727582        0.58440301899391       -0.48454535633888
C           -1.19274745113699        0.05560521519711       -0.39060177739325
C           -2.11302415427566        0.67587629672643        0.60234729387521
C           -1.59136021893914        1.77571655391256        1.49386013998029
C           -3.28782745894465       -0.10740358299580        1.13033889575707
N           -2.20954353591459        1.04650210895429       -0.83241962038791
N           -1.39536137034298       -1.24791398321881       -0.89386818322658
C           -0.37589109529689       -2.14586904038580       -1.09681558603374
O           -0.56015507528975       -3.18411936173474       -1.67772215430335
C            0.95210115563790       -1.72629531833874       -0.45201329113727
C            0.89802580314876       -2.11423128330997        1.04437427775447
O            1.97935133365696       -2.40035655764083       -1.11144145633347
H            4.45297157974286        1.78100450190503       -1.63805729572017
H            4.20110266264175        2.27594239333401        0.05874173176999
H            3.58739891011565        3.30898602844660       -1.27269190949337
H           -2.38364475986994        2.49482768660544        1.69730098221379
H           -0.75044983790354        2.28403933289405        1.02553515251093
H           -1.26267548870217        1.33992089638915        2.43684445989601
H           -2.97910863826717       -0.64837113472118        2.02472505324489
H           -3.65160675591755       -0.82052238229116        0.39431128276327
H           -4.09545458037159        0.57391576549237        1.39516997650404
H           -1.85450443571456        1.95057046308407       -1.11218430647943
H           -3.00196692628188        0.71016228830950       -1.35749214130413
H           -2.29132644072617       -1.47502237003969       -1.29014834368566
H            1.82510276932783       -1.80796910550327        1.52534472291723
H            0.79058150926807       -3.19485053263983        1.12235989234219
H            0.05796431009720       -1.62576160553790        1.53130572583349
H            2.84054919028228       -2.17248002244652       -0.72445069402526

          :  Hamiltonian                  GFN1-xTB          :
         :: total energy             -57.839910429371 Eh    ::
         :: gradient norm              0.000478240055 Eh/a0 ::
         :: HOMO-LUMO gap              2.767495982831 eV    ::
         :: SCC energy               -58.406550321844 Eh    ::
         :: -> Gsolv                  -0.120815100441 Eh    ::
         :: repulsion energy           0.586113484447 Eh    ::

    * Orbital Energies and Occupations

         #    Occupation            Energy/Eh            Energy/eV
      -------------------------------------------------------------
         1        2.0000           -0.8961468             -24.3854
       ...           ...                  ...                  ...
        35        2.0000           -0.5524409             -15.0327
        36        2.0000           -0.5506974             -14.9852
        37        2.0000           -0.5448268             -14.8255
        38        2.0000           -0.5433553             -14.7855
        39        2.0000           -0.5396504             -14.6846
        40        2.0000           -0.5311103             -14.4522
        41        2.0000           -0.5251161             -14.2891
        42        2.0000           -0.5199937             -14.1497
        43        2.0000           -0.5152662             -14.0211
        44        2.0000           -0.5115186             -13.9191
        45        2.0000           -0.4866334             -13.2420
        46        2.0000           -0.4784101             -13.0182
        47        2.0000           -0.4668673             -12.7041 (HOMO)
        48                         -0.3651637              -9.9366 (LUMO)
        49                         -0.2908311              -7.9139
        50                         -0.2546764              -6.9301
        51                         -0.2040842              -5.5534
        52                         -0.1788169              -4.8659
        53                         -0.1675916              -4.5604
        54                         -0.1613892              -4.3916
        55                         -0.1484483              -4.0395
        56                         -0.1404630              -3.8222
        57                         -0.1356006              -3.6899
        58                         -0.1124951              -3.0611
       ...                                ...                  ...
       100                          0.7170148              19.5110
      -------------------------------------------------------------
                  HL-Gap            0.1017036 Eh            2.7675 eV

Wiberg/Mayer (AO) data.
largest (>0.10) Wiberg bond orders for each atom

     #   Z sym  total        # sym  WBO       # sym  WBO       # sym  WBO
 ---------------------------------------------------------------------------
     1   6 C    3.849 --    20 H    0.985    19 H    0.978    18 H    0.977
                             2 O    0.875
     2   8 O    2.236 --     3 C    1.165     1 C    0.875     4 O    0.148
     3   6 C    3.855 --     4 O    1.667     2 O    1.165     5 C    0.951
     4   8 O    1.964 --     3 C    1.667     2 O    0.148
     5   6 C    3.932 --     6 N    1.791    15 C    0.965     3 C    0.951
     6   7 N    3.059 --     5 C    1.791     7 C    1.038
     7   6 C    3.870 --     6 N    1.038    12 N    0.998     8 C    0.895
                            11 N    0.835
     8   6 C    3.846 --    10 C    1.011     9 C    1.009     7 C    0.895
                            11 N    0.834
     9   6 C    3.978 --     8 C    1.009    22 H    0.978    21 H    0.975
                            23 H    0.972
    10   6 C    3.979 --     8 C    1.011    25 H    0.979    26 H    0.973
                            24 H    0.971
    11   7 N    3.504 --    28 H    0.870    27 H    0.866     7 C    0.835
                             8 C    0.834
    12   7 N    3.283 --    13 C    1.156     7 C    0.998    29 H    0.875
                            14 O    0.146
    13   6 C    3.880 --    14 O    1.697    12 N    1.156    15 C    0.926
    14   8 O    1.962 --    13 C    1.697    12 N    0.146
    15   6 C    3.935 --    17 O    0.990     5 C    0.965    16 C    0.933
                            13 C    0.926
    16   6 C    3.984 --    32 H    0.986    30 H    0.980    31 H    0.978
                            15 C    0.933
    17   8 O    1.909 --    15 C    0.990    33 H    0.826
    18   1 H    1.002 --     1 C    0.977
    19   1 H    1.003 --     1 C    0.978
    20   1 H    1.007 --     1 C    0.985
    21   1 H    0.993 --     9 C    0.975
    22   1 H    1.004 --     9 C    0.978
    23   1 H    0.994 --     9 C    0.972
    24   1 H    0.994 --    10 C    0.971
    25   1 H    0.993 --    10 C    0.979
    26   1 H    0.990 --    10 C    0.973
    27   1 H    0.903 --    11 N    0.866
    28   1 H    0.897 --    11 N    0.870
    29   1 H    0.915 --    12 N    0.875
    30   1 H    1.000 --    16 C    0.980
    31   1 H    0.997 --    16 C    0.978
    32   1 H    0.999 --    16 C    0.986
    33   1 H    0.865 --    17 O    0.826
 ---------------------------------------------------------------------------

           -------------------------------------------------
          | TOTAL ENERGY              -57.839910429371 Eh   |
          | GRADIENT NORM               0.000478240055 Eh/α |
          | HOMO-LUMO GAP               2.767495982831 eV   |
           -------------------------------------------------

 * finished run on 2023/06/20 at 15:09:45.192
