   * xtb version 6.5.1 (579679a) compiled by 'ehlert@majestix' on 2022-07-11
          program call               : /lustre/hpc/kemi/ree/PhD/git/ReactivityQM/dep/xtb-6.5.1/bin/xtb --gfn 1 /lustre/hpc/kemi/ree/PhD/git/ReactivityQM/calculations/R02oxygendeprot/reac01prodN10/conf08/R02oxygendeprot_reac01prodN10_conf08_gfn1.xyz --opt --vfukui --chrg 0 --uhf 0 --alpb DMSO

   ID    Z sym.   atoms
    1    6 C      1, 3, 5, 6, 8, 11-15, 17, 19, 22, 23
    2    8 O      2, 4, 7, 9, 18, 24
    3    7 N      10, 16, 20, 21, 25
    4    1 H      26-42

      * Solvation model:               ALPB
        Solvent                        DMSO
        Solvent mass                       7.8130E+01 g/mol
          :  Hamiltonian                  GFN1-xTB          :
 * total energy  :   -82.9641907 Eh     change       -0.2268052E-10 Eh
 * total energy  :   -82.9752040 Eh     change       -0.1101330E-01 Eh
 * total energy  :   -82.9797461 Eh     change       -0.4542019E-02 Eh
 * total energy  :   -82.9807579 Eh     change       -0.1011808E-02 Eh
 * total energy  :   -82.9815829 Eh     change       -0.8250400E-03 Eh
 * total energy  :   -82.9822695 Eh     change       -0.6865526E-03 Eh
 * total energy  :   -82.9828689 Eh     change       -0.5994401E-03 Eh
 * total energy  :   -82.9832761 Eh     change       -0.4072076E-03 Eh
 * total energy  :   -82.9834736 Eh     change       -0.1974969E-03 Eh
 * total energy  :   -82.9835612 Eh     change       -0.8755083E-04 Eh
 * total energy  :   -82.9840950 Eh     change       -0.7226865E-05 Eh
 * total energy  :   -82.9841053 Eh     change       -0.1029951E-04 Eh
 * total energy  :   -82.9841149 Eh     change       -0.9636567E-05 Eh
 * total energy  :   -82.9841209 Eh     change       -0.6005730E-05 Eh
 * total energy  :   -82.9841264 Eh     change       -0.5465506E-05 Eh
 * total energy  :   -82.9841325 Eh     change       -0.6059316E-05 Eh
 * total energy  :   -82.9841389 Eh     change       -0.6405491E-05 Eh
 * total energy  :   -82.9841471 Eh     change       -0.8278545E-05 Eh
 * total energy  :   -82.9841509 Eh     change       -0.3775167E-05 Eh
   *** GEOMETRY OPTIMIZATION CONVERGED AFTER 42 ITERATIONS ***

 final structure:
================
42
 xtb: 6.5.1 (579679a)
C           -2.43706829098769        0.09557425883213        3.84727140751898
O           -2.22231366469033        0.21823065043853        2.43488931150973
C           -3.05718666011676       -0.43525323229309        1.64244794995875
O           -3.98111950736669       -1.10571124521514        2.02421637325557
C           -2.70095257146460       -0.24275221925537        0.18095068707608
C           -3.78764736561294       -0.32103510457570       -0.83627617378508
O           -4.95565746025163       -0.18082185893655       -0.57706539832640
C           -3.29494829414176       -0.55279197168935       -2.26517377466321
O           -4.02282813044182       -0.93020616589962       -3.16125309422498
N           -1.97874905873377       -0.31526058297788       -2.44176212791821
C           -1.03773359588231        0.17902879412844       -1.45417427133318
C           -0.88085441547287        1.69846093012388       -1.62331421179690
C            0.29953463812391       -0.63175930825567       -1.60278907331219
C            0.01871356045228       -2.09138665957214       -1.22983903742635
C            0.87470960613972       -0.56665266747974       -3.01913397350723
N            1.26151761802777       -0.13132770751198       -0.62553300177997
C            2.09950904614952        0.91183907774731       -0.80056694672353
O            2.10964406243618        1.66867849416566       -1.75759093901680
C            3.04811714099000        1.07208791045168        0.33010965463248
N            3.94984876974178        1.99155521311592        0.48176263740726
N            4.59418492256914        1.72254245294521        1.65118214447419
C            4.04741932045881        0.65417334225609        2.14257578727929
C            4.40004424675820       -0.05213957800550        3.39292653323336
O            3.06035721972375        0.19312027840051        1.35641951180235
N           -1.48001105999241       -0.01679382219142       -0.10936056055311
H           -3.49011853912350        0.26498717690736        4.08308228237049
H           -2.14460890108404       -0.90323790347034        4.17697220805044
H           -1.81204640652168        0.84890511179625        4.32112991535485
H           -1.64899876174938       -0.37328980008233       -3.39307206153109
H           -1.86950853396985        2.15350275537852       -1.59629974786919
H           -0.28143937639846        2.09953096350629       -0.81026289964453
H           -0.40417895428073        1.92580843931506       -2.57296184039962
H            0.92918414412671       -2.67835233560741       -1.33394617251763
H           -0.33128166639740       -2.15817503224795       -0.20054313789103
H           -0.74466920460977       -2.50233448389616       -1.88832142122013
H            0.28965964765831       -1.20112744878096       -3.68243660559520
H            1.89766396882822       -0.93951151891244       -3.00463559004474
H            0.88046127610833        0.44617504386936       -3.41478866832180
H            1.35240093108056       -0.66813420596124        0.22285555702944
H            4.66389273584262       -1.08587659612615        3.17092429255652
H            3.54690478175003       -0.06210183904729        4.07061858492933
H            5.24015278232747        0.44576539461189        3.87076489096096

          :  Hamiltonian                  GFN1-xTB          :
         :: total energy             -82.984150910420 Eh    ::
         :: gradient norm              0.000599430245 Eh/a0 ::
         :: HOMO-LUMO gap              1.761104730383 eV    ::
         :: SCC energy               -83.765080160176 Eh    ::
         :: -> Gsolv                  -0.059735646832 Eh    ::
         :: repulsion energy           0.808441339177 Eh    ::

    * Orbital Energies and Occupations

         #    Occupation            Energy/Eh            Energy/eV
      -------------------------------------------------------------
         1        2.0000           -0.8680952             -23.6221
       ...           ...                  ...                  ...
        55        2.0000           -0.5092098             -13.8563
        56        2.0000           -0.5075512             -13.8112
        57        2.0000           -0.5054647             -13.7544
        58        2.0000           -0.4992666             -13.5857
        59        2.0000           -0.4952131             -13.4754
        60        2.0000           -0.4823675             -13.1259
        61        2.0000           -0.4793676             -13.0443
        62        2.0000           -0.4710477             -12.8179
        63        2.0000           -0.4683935             -12.7456
        64        2.0000           -0.4607078             -12.5365
        65        2.0000           -0.4544697             -12.3667
        66        2.0000           -0.4494099             -12.2291
        67        2.0000           -0.4366343             -11.8814 (HOMO)
        68                         -0.3719149             -10.1203 (LUMO)
        69                         -0.3167785              -8.6200
        70                         -0.3138605              -8.5406
        71                         -0.2589882              -7.0474
        72                         -0.2509784              -6.8295
        73                         -0.2028362              -5.5195
        74                         -0.2000698              -5.4442
        75                         -0.1435590              -3.9064
        76                         -0.1422705              -3.8714
        77                         -0.1373691              -3.7380
        78                         -0.1356437              -3.6911
       ...                                ...                  ...
       134                          0.7674651              20.8838
      -------------------------------------------------------------
                  HL-Gap            0.0647194 Eh            1.7611 eV

Wiberg/Mayer (AO) data.
largest (>0.10) Wiberg bond orders for each atom

     #   Z sym  total        # sym  WBO       # sym  WBO       # sym  WBO
 ---------------------------------------------------------------------------
     1   6 C    3.860 --    28 H    0.985    26 H    0.979    27 H    0.978
                             2 O    0.885
     2   8 O    2.219 --     3 C    1.140     1 C    0.885     4 O    0.146
     3   6 C    3.852 --     4 O    1.691     2 O    1.140     5 C    0.945
     4   8 O    1.949 --     3 C    1.691     2 O    0.146
     5   6 C    3.955 --    25 N    1.787     6 C    0.996     3 C    0.945
     6   6 C    3.858 --     7 O    1.800     5 C    0.996     8 C    0.909
     7   8 O    2.007 --     6 C    1.800
     8   6 C    3.902 --     9 O    1.631    10 N    1.248     6 C    0.909
     9   8 O    1.925 --     8 C    1.631    10 N    0.185
    10   7 N    3.366 --     8 C    1.248    11 C    0.937    29 H    0.884
                             9 O    0.185
    11   6 C    3.910 --    25 N    1.004    12 C    0.946    10 N    0.937
                            13 C    0.913
    12   6 C    3.980 --    30 H    0.984    31 H    0.981    32 H    0.976
                            11 C    0.946
    13   6 C    3.927 --    15 C    0.999    14 C    0.999    16 N    0.938
                            11 C    0.913
    14   6 C    3.990 --    13 C    0.999    33 H    0.984    35 H    0.983
                            34 H    0.980
    15   6 C    3.988 --    13 C    0.999    36 H    0.981    37 H    0.980
                            38 H    0.976
    16   7 N    3.353 --    17 C    1.253    13 C    0.938    39 H    0.894
                            18 O    0.175
    17   6 C    3.916 --    18 O    1.581    16 N    1.253    19 C    0.993
    18   8 O    1.904 --    17 C    1.581    16 N    0.175
    19   6 C    3.873 --    20 N    1.622    24 O    1.046    17 C    0.993
    20   7 N    3.000 --    19 C    1.622    21 N    1.200
    21   7 N    2.982 --    22 C    1.610    20 N    1.200
    22   6 C    3.868 --    21 N    1.610    24 O    1.072    23 C    1.032
    23   6 C    3.986 --    22 C    1.032    42 H    0.982    40 H    0.963
                            41 H    0.962
    24   8 O    2.316 --    22 C    1.072    19 C    1.046
    25   7 N    3.043 --     5 C    1.787    11 C    1.004
    26   1 H    1.006 --     1 C    0.979
    27   1 H    1.004 --     1 C    0.978
    28   1 H    1.009 --     1 C    0.985
    29   1 H    0.929 --    10 N    0.884
    30   1 H    1.001 --    12 C    0.984
    31   1 H    1.004 --    12 C    0.981
    32   1 H    1.007 --    12 C    0.976
    33   1 H    0.998 --    14 C    0.984
    34   1 H    1.003 --    14 C    0.980
    35   1 H    1.002 --    14 C    0.983
    36   1 H    0.999 --    15 C    0.981
    37   1 H    0.998 --    15 C    0.980
    38   1 H    1.011 --    15 C    0.976
    39   1 H    0.941 --    16 N    0.894
    40   1 H    0.996 --    23 C    0.963
    41   1 H    0.996 --    23 C    0.962
    42   1 H    0.998 --    23 C    0.982
 ---------------------------------------------------------------------------

           -------------------------------------------------
          | TOTAL ENERGY              -82.984150910420 Eh   |
          | GRADIENT NORM               0.000599430245 Eh/α |
          | HOMO-LUMO GAP               1.761104730383 eV   |
           -------------------------------------------------

 * finished run on 2023/06/21 at 17:25:22.549
