   * xtb version 6.5.1 (579679a) compiled by 'ehlert@majestix' on 2022-07-11
          program call               : /lustre/hpc/kemi/ree/PhD/git/ReactivityQM/dep/xtb-6.5.1/bin/xtb --gfn 1 /lustre/hpc/kemi/ree/PhD/git/ReactivityQM/calculations/R02methylcation/reac01prodE13/conf10/R02methylcation_reac01prodE13_conf10_gfn1.xyz --opt --vfukui --chrg -2 --uhf 0 --alpb DMSO

   ID    Z sym.   atoms
    1    6 C      1, 3, 5, 6, 8, 10, 12-15, 17, 19, 22, 23
    2    8 O      2, 4, 7, 9, 18, 24
    3    7 N      11, 16, 20, 21, 25
    4    1 H      26-42

      * Solvation model:               ALPB
        Solvent                        DMSO
        Solvent mass                       7.8130E+01 g/mol
          :  Hamiltonian                  GFN1-xTB          :
 * total energy  :   -83.5711140 Eh     change       -0.1367084E-10 Eh
 * total energy  :   -83.5846392 Eh     change       -0.1352520E-01 Eh
 * total energy  :   -83.5897596 Eh     change       -0.5120470E-02 Eh
 * total energy  :   -83.5908400 Eh     change       -0.1080347E-02 Eh
 * total energy  :   -83.5915430 Eh     change       -0.7030329E-03 Eh
 * total energy  :   -83.5918186 Eh     change       -0.2756025E-03 Eh
 * total energy  :   -83.5920090 Eh     change       -0.1904028E-03 Eh
 * total energy  :   -83.5921461 Eh     change       -0.1371182E-03 Eh
 * total energy  :   -83.5922292 Eh     change       -0.8308738E-04 Eh
 * total energy  :   -83.5922799 Eh     change       -0.5064270E-04 Eh
 * total energy  :   -83.5927672 Eh     change       -0.1084213E-04 Eh
 * total energy  :   -83.5927769 Eh     change       -0.9765810E-05 Eh
 * total energy  :   -83.5927878 Eh     change       -0.1084377E-04 Eh
 * total energy  :   -83.5927983 Eh     change       -0.1057113E-04 Eh
 * total energy  :   -83.5928075 Eh     change       -0.9118624E-05 Eh
 * total energy  :   -83.5927896 Eh     change        0.1787853E-04 Eh
 * total energy  :   -83.5928165 Eh     change       -0.2690094E-04 Eh
 * total energy  :   -83.5928215 Eh     change       -0.5048696E-05 Eh
 * total energy  :   -83.5928259 Eh     change       -0.4332358E-05 Eh
   *** GEOMETRY OPTIMIZATION CONVERGED AFTER 34 ITERATIONS ***

 final structure:
================
42
 xtb: 6.5.1 (579679a)
C           -5.59724381246225        1.89930856220476       -2.41629371899086
O           -4.60659336968010        1.75047780355673       -1.42410475109123
C           -3.60790174567991        0.81675717326683       -1.72109803715545
O           -3.67254023868435        0.21123635658468       -2.81368357216589
C           -2.61519288159239        0.65002328291123       -0.73062533660890
C           -2.54042080397740        1.37530550466204        0.55432724745410
O           -3.37342101767647        2.26897081629562        0.90496336133310
C           -1.46034777535791        0.99716107403404        1.36200760043668
O           -1.13405904343166        1.54533520329009        2.60119395269912
C           -2.17364082505570        1.58267527106073        3.56859997598850
N           -0.56610330417866       -0.01148019503198        0.97488705249394
C           -0.67472527909300       -0.57590301786497       -0.27054676226487
C            0.34426772110475       -1.64530719151369       -0.62912286736232
C           -0.05251890944275       -2.93752704496397        0.10616297164471
C            0.34754002071430       -1.86452058654892       -2.14913345500877
N            1.65365727376299       -1.18411880320049       -0.15592587804297
C            2.81442002236435       -1.92084995286118       -0.42553298749562
O            2.79551810414866       -3.13231599942793       -0.74282774501380
C            4.02023820307985       -1.17897889123261       -0.24305763116619
N            5.27795320672866       -1.60824043617078       -0.40114119638285
N            6.08794536568837       -0.53773773291435       -0.14123507595032
C            5.32827360531837        0.46583004915976        0.15249975473157
C            5.76023182342924        1.83883725208371        0.51458735181489
O            4.00636815560710        0.16046471517803        0.11420391997570
N           -1.63636023854677       -0.29309558330940       -1.07283982244782
H           -6.29394453347416        2.66538624247952       -2.07108392929375
H           -6.14709548593662        0.96316064920496       -2.58036128172094
H           -5.16422670590442        2.21422093208695       -3.37481926273161
H           -1.72439641671393        1.92425010120442        4.50337110279571
H           -2.61107577003748        0.58801460482221        3.72529888714335
H           -2.96871873652301        2.27988092377129        3.27503946562717
H            0.23080948060875       -0.19203849185415        1.56055491890227
H           -1.07057532757674       -3.21427445429642       -0.16835120775528
H           -0.01007548347536       -2.77549870313682        1.18287763819172
H            0.61582834340185       -3.75671140874205       -0.15360323501305
H           -0.66477766801096       -2.09479736685425       -2.48239115230739
H            1.00808424938751       -2.68775400305146       -2.41674353934400
H            0.68217584096218       -0.95898124736894       -2.65501878126288
H            1.78833323030738       -0.18360514193608       -0.22393346909049
H            5.45417356206127        2.07872564862240        1.53344293126854
H            6.84289664528426        1.90725157013893        0.44223447836023
H            5.30724151855042        2.57046051565731       -0.15451991519810

          :  Hamiltonian                  GFN1-xTB          :
         :: total energy             -83.592825866915 Eh    ::
         :: gradient norm              0.000378601315 Eh/a0 ::
         :: HOMO-LUMO gap              0.034619377065 eV    ::
         :: SCC energy               -84.318014638852 Eh    ::
         :: -> Gsolv                  -0.267976176893 Eh    ::
         :: repulsion energy           0.749960445625 Eh    ::

    * Orbital Energies and Occupations

         #    Occupation            Energy/Eh            Energy/eV
      -------------------------------------------------------------
         1        2.0000           -0.8009941             -21.7962
       ...           ...                  ...                  ...
        56        2.0000           -0.4359002             -11.8614
        57        2.0000           -0.4271297             -11.6228
        58        2.0000           -0.4265112             -11.6060
        59        2.0000           -0.4069714             -11.0743
        60        2.0000           -0.4060369             -11.0488
        61        2.0000           -0.4022925             -10.9469
        62        2.0000           -0.3962218             -10.7817
        63        2.0000           -0.3913400             -10.6489
        64        2.0000           -0.3888963             -10.5824
        65        2.0000           -0.3824654             -10.4074
        66        2.0000           -0.3424329              -9.3181
        67        2.0000           -0.3358096              -9.1378
        68        1.3228           -0.2671884              -7.2706 (HOMO)
        69        0.6772           -0.2659162              -7.2359 (LUMO)
        70                         -0.2089975              -5.6871
        71                         -0.2000156              -5.4427
        72                         -0.1636759              -4.4538
        73                         -0.1392454              -3.7891
        74                         -0.1233880              -3.3576
        75                         -0.1054087              -2.8683
        76                         -0.1045902              -2.8460
        77                         -0.0960877              -2.6147
        78                         -0.0908116              -2.4711
        79                         -0.0725190              -1.9733
       ...                                ...                  ...
       134                          0.7113618              19.3571
      -------------------------------------------------------------
                  HL-Gap            0.0012722 Eh            0.0346 eV

Wiberg/Mayer (AO) data.
largest (>0.10) Wiberg bond orders for each atom

     #   Z sym  total        # sym  WBO       # sym  WBO       # sym  WBO
 ---------------------------------------------------------------------------
     1   6 C    3.922 --    26 H    0.987    27 H    0.980    28 H    0.980
                             2 O    0.954
     2   8 O    2.072 --     1 C    0.954     3 C    0.951
     3   6 C    3.780 --     4 O    1.446     5 C    1.285     2 O    0.951
     4   8 O    1.697 --     3 C    1.446
     5   6 C    3.753 --     3 C    1.285    25 N    1.110     6 C    1.079
     6   6 C    3.920 --     7 O    1.387     8 C    1.329     5 C    1.079
     7   8 O    1.685 --     6 C    1.387     8 C    0.114
     8   6 C    3.529 --     6 C    1.329    11 N    1.027     9 O    0.952
                             7 O    0.114
     9   8 O    2.014 --     8 C    0.952    10 C    0.934
    10   6 C    3.908 --    29 H    0.986    30 H    0.983    31 H    0.978
                             9 O    0.934
    11   7 N    3.249 --    12 C    1.125     8 C    1.027    32 H    0.907
                            25 N    0.102
    12   6 C    3.927 --    25 N    1.614    11 N    1.125    13 C    0.974
    13   6 C    3.950 --    15 C    0.991    14 C    0.984    12 C    0.974
                            16 N    0.941
    14   6 C    3.991 --    33 H    0.988    34 H    0.987    13 C    0.984
                            35 H    0.980
    15   6 C    3.993 --    13 C    0.991    38 H    0.987    37 H    0.985
                            36 H    0.984
    16   7 N    3.147 --    17 C    1.084    13 C    0.941    39 H    0.919
                            18 O    0.108
    17   6 C    3.749 --    18 O    1.436    19 C    1.160    16 N    1.084
    18   8 O    1.681 --    17 C    1.436    16 N    0.108
    19   6 C    3.691 --    20 N    1.395    17 C    1.160    24 O    0.966
    20   7 N    2.720 --    19 C    1.395    21 N    1.189
    21   7 N    2.981 --    22 C    1.628    20 N    1.189
    22   6 C    3.811 --    21 N    1.628    24 O    1.040    23 C    1.024
    23   6 C    3.994 --    22 C    1.024    41 H    0.986    42 H    0.972
                            40 H    0.970
    24   8 O    2.176 --    22 C    1.040    19 C    0.966
    25   7 N    2.956 --    12 C    1.614     5 C    1.110    11 N    0.102
    26   1 H    1.021 --     1 C    0.987
    27   1 H    1.021 --     1 C    0.980
    28   1 H    1.022 --     1 C    0.980
    29   1 H    1.020 --    10 C    0.986
    30   1 H    1.013 --    10 C    0.983
    31   1 H    1.039 --    10 C    0.978
    32   1 H    0.960 --    11 N    0.907
    33   1 H    1.009 --    14 C    0.988
    34   1 H    1.010 --    14 C    0.987
    35   1 H    1.023 --    14 C    0.980
    36   1 H    1.023 --    15 C    0.984
    37   1 H    1.016 --    15 C    0.985
    38   1 H    1.010 --    15 C    0.987
    39   1 H    0.965 --    16 N    0.919
    40   1 H    1.000 --    23 C    0.970
    41   1 H    1.005 --    23 C    0.986
    42   1 H    1.001 --    23 C    0.972
 ---------------------------------------------------------------------------

           -------------------------------------------------
          | TOTAL ENERGY              -83.592825866915 Eh   |
          | GRADIENT NORM               0.000378601315 Eh/α |
          | HOMO-LUMO GAP               0.034619377065 eV   |
           -------------------------------------------------

 * finished run on 2023/06/21 at 17:25:53.161
