   * xtb version 6.5.1 (579679a) compiled by 'ehlert@majestix' on 2022-07-11
          program call               : /lustre/hpc/kemi/ree/PhD/git/ReactivityQM/dep/xtb-6.5.1/bin/xtb --gfn 1 /lustre/hpc/kemi/ree/PhD/git/ReactivityQM/calculations/R02/reac01prodN10/conf08/R02_reac01prodN10_conf08_gfn1.xyz --opt --vfukui --chrg 1 --uhf 0 --alpb DMSO

   ID    Z sym.   atoms
    1    6 C      1, 3, 5, 6, 8, 11-15, 17, 19, 22, 23
    2    8 O      2, 4, 7, 9, 18, 24
    3    7 N      10, 16, 20, 21, 25
    4    1 H      26-43

      * Solvation model:               ALPB
        Solvent                        DMSO
        Solvent mass                       7.8130E+01 g/mol
          :  Hamiltonian                  GFN1-xTB          :
 * total energy  :   -83.0854535 Eh     change       -0.6596537E-09 Eh
 * total energy  :   -83.1034921 Eh     change       -0.1803865E-01 Eh
 * total energy  :   -83.1112396 Eh     change       -0.7747430E-02 Eh
 * total energy  :   -83.1127281 Eh     change       -0.1488543E-02 Eh
 * total energy  :   -83.1136232 Eh     change       -0.8950815E-03 Eh
 * total energy  :   -83.1139229 Eh     change       -0.2997348E-03 Eh
 * total energy  :   -83.1140906 Eh     change       -0.1676716E-03 Eh
 * total energy  :   -83.1141878 Eh     change       -0.9721118E-04 Eh
 * total energy  :   -83.1142835 Eh     change       -0.9567501E-04 Eh
 * total energy  :   -83.1143921 Eh     change       -0.1086660E-03 Eh
 * total energy  :   -83.1188344 Eh     change       -0.1829239E-04 Eh
 * total energy  :   -83.1188520 Eh     change       -0.1763648E-04 Eh
 * total energy  :   -83.1188696 Eh     change       -0.1758427E-04 Eh
 * total energy  :   -83.1188768 Eh     change       -0.7250863E-05 Eh
 * total energy  :   -83.1188889 Eh     change       -0.1212113E-04 Eh
 * total energy  :   -83.1188932 Eh     change       -0.4265710E-05 Eh
 * total energy  :   -83.1188988 Eh     change       -0.5639297E-05 Eh
 * total energy  :   -83.1189021 Eh     change       -0.3238217E-05 Eh
 * total energy  :   -83.1189057 Eh     change       -0.3636106E-05 Eh
   *** GEOMETRY OPTIMIZATION CONVERGED AFTER 66 ITERATIONS ***

 final structure:
================
43
 xtb: 6.5.1 (579679a)
C           -4.13126931935332        3.58027505957527       -0.56079291495721
O           -3.86733519248565        2.18430703656726       -0.29453972387308
C           -2.62324801938429        1.77505800090626       -0.50136317255408
O           -1.72520635210305        2.47061807555317       -0.88566503483174
C           -2.43824135737480        0.30476868838979       -0.18687592792245
C           -3.46052478039359       -0.55448225073678        0.28178248508756
O           -4.67723728244431       -0.20684653067171        0.51005553464266
C           -3.15705465580797       -2.00229029184525        0.51877648336531
O           -3.98057935847868       -2.81243952510251        0.86945748374821
N           -1.85629384506803       -2.31692611339408        0.26848941024702
C           -0.82259762831991       -1.41559841874032       -0.10262782002627
C            0.01452359315580       -1.98292261578977       -1.25135228770234
C            0.16592952553827       -1.18600962513410        1.25526067365130
C            0.59692677433136       -2.55182026739979        1.76566169606096
C           -0.65636996109646       -0.45642204718711        2.30976652288612
N            1.23155483725925       -0.35631567357592        0.84094628083243
C            2.44893838339124       -0.75920005840070        0.34176878802405
O            2.80543819984979       -1.90928800719340        0.22151773313785
C            3.25812847371466        0.41777935782210       -0.01912857663578
N            2.87890507050735        1.66006471500142        0.06959924711751
N            3.91166748937699        2.41694820073330       -0.37197498441999
C            4.86346491492783        1.59202959618429       -0.70644746101259
C            6.19923736091179        1.92610869998429       -1.24297014384292
O            4.50618364899530        0.31746036617318       -0.50596891001244
N           -1.22137000237768       -0.13462160379243       -0.39472259482853
H           -5.14723939015804        3.76972759914741       -0.22609262228971
H           -4.03417858029222        3.76682771185787       -1.63151135912172
H           -3.41847833429461        4.19462222350454       -0.00872981540105
H           -4.87775663709068        0.74052085263455        0.33987667632785
H           -1.61900399506166       -3.29528204268530        0.35932817018875
H           -0.65905304351613       -2.18570415102196       -2.08224011285247
H            0.51455108714239       -2.90324033472022       -0.96343088494601
H            0.74860788444019       -1.24303672703931       -1.56003491436293
H           -0.23857693819618       -3.02505027305163        2.27746056200111
H            0.95265781005182       -3.21220874445341        0.98006724612471
H            1.41082763800697       -2.40593630143560        2.47581201761101
H           -1.59864459242128       -0.96997721777229        2.49000847864410
H           -0.08563668317890       -0.44926747277960        3.23822557175302
H           -0.85788321939540        0.57164799483158        2.01689976786891
H            1.04027637726897        0.63890850882181        0.81286046000251
H            6.97067569924285        1.60002286917484       -0.54466294205298
H            6.27535055335857        3.00017944767653       -1.39434880723863
H            6.35993084682123        1.40701328937666       -2.18773727843885

          :  Hamiltonian                  GFN1-xTB          :
         :: total energy             -83.118905723476 Eh    ::
         :: gradient norm              0.000874768780 Eh/a0 ::
         :: HOMO-LUMO gap              1.022356411812 eV    ::
         :: SCC energy               -83.909265265031 Eh    ::
         :: -> Gsolv                  -0.112319239079 Eh    ::
         :: repulsion energy           0.818893581831 Eh    ::

    * Orbital Energies and Occupations

         #    Occupation            Energy/Eh            Energy/eV
      -------------------------------------------------------------
         1        2.0000           -0.8970687             -24.4105
       ...           ...                  ...                  ...
        55        2.0000           -0.5340109             -14.5312
        56        2.0000           -0.5302019             -14.4275
        57        2.0000           -0.5251940             -14.2913
        58        2.0000           -0.5235114             -14.2455
        59        2.0000           -0.5227451             -14.2246
        60        2.0000           -0.5162877             -14.0489
        61        2.0000           -0.5093435             -13.8599
        62        2.0000           -0.5016930             -13.6518
        63        2.0000           -0.4941872             -13.4475
        64        2.0000           -0.4900366             -13.3346
        65        2.0000           -0.4816636             -13.1067
        66        2.0000           -0.4700934             -12.7919
        67        2.0000           -0.4689188             -12.7599 (HOMO)
        68                         -0.4313479             -11.7376 (LUMO)
        69                         -0.3598308              -9.7915
        70                         -0.3368190              -9.1653
        71                         -0.2807117              -7.6386
        72                         -0.2717043              -7.3935
        73                         -0.2293719              -6.2415
        74                         -0.2219384              -6.0393
        75                         -0.1625360              -4.4228
        76                         -0.1556563              -4.2356
        77                         -0.1517059              -4.1281
        78                         -0.1485536              -4.0423
       ...                                ...                  ...
       136                          0.7236984              19.6928
      -------------------------------------------------------------
                  HL-Gap            0.0375709 Eh            1.0224 eV

Wiberg/Mayer (AO) data.
largest (>0.10) Wiberg bond orders for each atom

     #   Z sym  total        # sym  WBO       # sym  WBO       # sym  WBO
 ---------------------------------------------------------------------------
     1   6 C    3.834 --    26 H    0.984    28 H    0.978    27 H    0.978
                             2 O    0.859
     2   8 O    2.226 --     3 C    1.126     1 C    0.859     4 O    0.144
     3   6 C    3.859 --     4 O    1.708     2 O    1.126     5 C    0.953
     4   8 O    1.971 --     3 C    1.708     2 O    0.144
     5   6 C    3.955 --    25 N    1.502     6 C    1.244     3 C    0.953
     6   6 C    3.834 --     7 O    1.309     5 C    1.244     8 C    0.978
     7   8 O    2.233 --     6 C    1.309    29 H    0.748
     8   6 C    3.917 --     9 O    1.647    10 N    1.193     6 C    0.978
     9   8 O    1.946 --     8 C    1.647    10 N    0.181
    10   7 N    3.426 --     8 C    1.193    11 C    0.999    30 H    0.872
                             9 O    0.181
    11   6 C    3.907 --    25 N    1.157    10 N    0.999    12 C    0.943
                            13 C    0.664
    12   6 C    3.962 --    33 H    0.979    32 H    0.976    31 H    0.974
                            11 C    0.943
    13   6 C    3.902 --    16 N    1.042    15 C    1.004    14 C    0.999
                            11 C    0.664
    14   6 C    3.977 --    13 C    0.999    34 H    0.981    35 H    0.969
                            36 H    0.959
    15   6 C    3.985 --    13 C    1.004    39 H    0.980    37 H    0.980
                            38 H    0.965
    16   7 N    3.382 --    17 C    1.145    13 C    1.042    40 H    0.882
                            18 O    0.134
    17   6 C    3.901 --    18 O    1.643    16 N    1.145    19 C    1.012
    18   8 O    1.945 --    17 C    1.643    16 N    0.134
    19   6 C    3.880 --    20 N    1.582    24 O    1.067    17 C    1.012
    20   7 N    3.025 --    19 C    1.582    21 N    1.226
    21   7 N    2.980 --    22 C    1.575    20 N    1.226
    22   6 C    3.858 --    21 N    1.575    24 O    1.091    23 C    1.035
    23   6 C    3.982 --    22 C    1.035    42 H    0.981    43 H    0.961
                            41 H    0.958
    24   8 O    2.341 --    22 C    1.091    19 C    1.067
    25   7 N    3.034 --     5 C    1.502    11 C    1.157
    26   1 H    1.004 --     1 C    0.984
    27   1 H    1.001 --     1 C    0.978
    28   1 H    1.002 --     1 C    0.978
    29   1 H    0.812 --     7 O    0.748
    30   1 H    0.911 --    10 N    0.872
    31   1 H    0.994 --    12 C    0.974
    32   1 H    0.999 --    12 C    0.976
    33   1 H    0.999 --    12 C    0.979
    34   1 H    0.997 --    14 C    0.981
    35   1 H    1.008 --    14 C    0.969
    36   1 H    0.989 --    14 C    0.959
    37   1 H    0.997 --    15 C    0.980
    38   1 H    0.992 --    15 C    0.965
    39   1 H    0.997 --    15 C    0.980
    40   1 H    0.950 --    16 N    0.882
    41   1 H    0.994 --    23 C    0.958
    42   1 H    0.997 --    23 C    0.981
    43   1 H    0.994 --    23 C    0.961
 ---------------------------------------------------------------------------

           -------------------------------------------------
          | TOTAL ENERGY              -83.118905723476 Eh   |
          | GRADIENT NORM               0.000874768780 Eh/α |
          | HOMO-LUMO GAP               1.022356411812 eV   |
           -------------------------------------------------

 * finished run on 2023/06/20 at 15:30:57.498
