   * xtb version 6.5.1 (579679a) compiled by 'ehlert@majestix' on 2022-07-11
          program call               : /lustre/hpc/kemi/ree/PhD/git/ReactivityQM/dep/xtb-6.5.1/bin/xtb --gfn 1 /lustre/hpc/kemi/ree/PhD/git/ReactivityQM/calculations/RaltegravirCLI/reac01prodN04/conf03/RaltegravirCLI_reac01prodN04_conf03_gfn1.xyz --opt --vfukui --chrg 1 --uhf 0 --alpb DMSO

   ID    Z sym.   atoms
    1    6 C      1-3, 6, 7
    2    7 N      4, 5
    3    8 O      8, 10
    4   17 Cl     9
    5    1 H      11-16

      * Solvation model:               ALPB
        Solvent                        DMSO
        Solvent mass                       7.8130E+01 g/mol
          :  Hamiltonian                  GFN1-xTB          :
 * total energy  :   -33.3621023 Eh     change       -0.6892265E-12 Eh
 * total energy  :   -33.3681072 Eh     change       -0.6004861E-02 Eh
 * total energy  :   -33.3698825 Eh     change       -0.1775387E-02 Eh
 * total energy  :   -33.3700880 Eh     change       -0.2054875E-03 Eh
 * total energy  :   -33.3701595 Eh     change       -0.7141910E-04 Eh
 * total energy  :   -33.3701779 Eh     change       -0.1849534E-04 Eh
 * total energy  :   -33.3701821 Eh     change       -0.4168168E-05 Eh
   *** GEOMETRY OPTIMIZATION CONVERGED AFTER 7 ITERATIONS ***

 final structure:
================
16
 xtb: 6.5.1 (579679a)
C           -1.05282135795017        1.59517074983158       -0.20955933985474
C           -0.62911118760361        0.12019680176162       -0.10835801989354
C           -1.63487348659333       -0.71167659289451        0.70471287225546
N           -0.41833437824059       -0.43896269540732       -1.39128699741074
N            0.78240311805459       -0.79512816403484       -1.52728704903583
C            1.43164138898552       -0.49507700157130       -0.35255922435264
C            2.90805526985985       -0.77008661116254       -0.09840267944102
O            3.59911444754742       -1.17924585125670       -0.97658506392723
Cl           3.39635921615853       -0.45143696375296        1.48483645001256
O            0.65724331737285        0.03471687125556        0.49688892991022
H           -2.01250358704870        1.64552402233905       -0.71834189094446
H           -1.13682002650395        1.99997069785254        0.79609435196467
H           -0.29981005479955        2.14421265812277       -0.77078221732818
H           -1.27805072361050       -1.73734684617060        0.76887096085720
H           -2.59815758845609       -0.67903312764141        0.20150475660741
H           -1.71433336717267       -0.28179694727140        1.70025516058099

          :  Hamiltonian                  GFN1-xTB          :
         :: total energy             -33.370182114853 Eh    ::
         :: gradient norm              0.000536785484 Eh/a0 ::
         :: HOMO-LUMO gap              1.427147080648 eV    ::
         :: SCC energy               -33.644680833605 Eh    ::
         :: -> Gsolv                  -0.087535606363 Eh    ::
         :: repulsion energy           0.282110514808 Eh    ::

    * Orbital Energies and Occupations

         #    Occupation            Energy/Eh            Energy/eV
      -------------------------------------------------------------
         1        2.0000           -1.0019925             -27.2656
       ...           ...                  ...                  ...
        15        2.0000           -0.6407455             -17.4356
        16        2.0000           -0.6232733             -16.9601
        17        2.0000           -0.6140973             -16.7104
        18        2.0000           -0.5893982             -16.0383
        19        2.0000           -0.5875759             -15.9888
        20        2.0000           -0.5802850             -15.7904
        21        2.0000           -0.5762666             -15.6810
        22        2.0000           -0.5694352             -15.4951
        23        2.0000           -0.5567746             -15.1506
        24        2.0000           -0.5430064             -14.7760
        25        2.0000           -0.5320004             -14.4765
        26        2.0000           -0.5279026             -14.3650
        27        2.0000           -0.5170789             -14.0704 (HOMO)
        28                         -0.4646322             -12.6433 (LUMO)
        29                         -0.3886693             -10.5762
        30                         -0.3077927              -8.3755
        31                         -0.2539254              -6.9097
        32                         -0.1705953              -4.6421
        33                         -0.1648226              -4.4851
        34                         -0.1326972              -3.6109
        35                         -0.1271268              -3.4593
        36                         -0.1269636              -3.4549
        37                         -0.1204774              -3.2784
        38                         -0.1126177              -3.0645
       ...                                ...                  ...
        57                          0.7061428              19.2151
      -------------------------------------------------------------
                  HL-Gap            0.0524467 Eh            1.4271 eV

Wiberg/Mayer (AO) data.
largest (>0.10) Wiberg bond orders for each atom

     #   Z sym  total        # sym  WBO       # sym  WBO       # sym  WBO
 ---------------------------------------------------------------------------
     1   6 C    3.939 --    13 H    0.977    11 H    0.975    12 H    0.974
                             2 C    0.880
     2   6 C    3.811 --     4 N    1.079     3 C    0.880     1 C    0.880
                            10 O    0.865
     3   6 C    3.939 --    14 H    0.977    15 H    0.975    16 H    0.974
                             2 C    0.880
     4   7 N    2.999 --     5 N    1.669     2 C    1.079
     5   7 N    3.023 --     4 N    1.669     6 C    1.204
     6   6 C    3.798 --    10 O    1.376     5 N    1.204     7 C    0.931
     7   6 C    3.905 --     8 O    1.793     9 Cl   1.140     6 C    0.931
     8   8 O    2.074 --     7 C    1.793     9 Cl   0.201
     9  17 Cl   1.422 --     7 C    1.140     8 O    0.201
    10   8 O    2.427 --     6 C    1.376     2 C    0.865
    11   1 H    0.989 --     1 C    0.975
    12   1 H    0.989 --     1 C    0.974
    13   1 H    0.988 --     1 C    0.977
    14   1 H    0.988 --     3 C    0.977
    15   1 H    0.989 --     3 C    0.975
    16   1 H    0.989 --     3 C    0.974
 ---------------------------------------------------------------------------

           -------------------------------------------------
          | TOTAL ENERGY              -33.370182114853 Eh   |
          | GRADIENT NORM               0.000536785484 Eh/α |
          | HOMO-LUMO GAP               1.427147080648 eV   |
           -------------------------------------------------

 * finished run on 2023/06/20 at 14:54:56.210
