                         Program Version 5.0.1 -  RELEASE  -
|  1> # ORCA input file
|  2> ! SP r2SCAN-3c CPCM
|  3>
|  4> %maxcore 1875.0
|  5> %pal nprocs 4 end
|  6> %cpcm smd true SMDsolvent "DMSO" end
|  7>
|  8> *xyz -1 1
|  9> C      -0.123438   -3.120935   -1.614852
| 10> O       0.779625   -2.034243   -1.469943
| 11> C       0.974785   -1.586100   -0.155626
| 12> N       2.104951   -2.192867    0.478191
| 13> C       3.378866   -1.954469   -0.226446
| 14> C       3.735535   -0.490238   -0.189867
| 15> C       3.124083    0.397811   -1.079621
| 16> C       3.371823    1.761586   -1.002793
| 17> C       4.235116    2.216780   -0.024282
| 18> F       4.489180    3.540678    0.050691
| 19> C       4.860746    1.369721    0.873886
| 20> C       4.594472    0.010489    0.787356
| 21> C       0.073948   -0.753828    0.451334
| 22> N      -1.065922   -0.406726   -0.295671
| 23> C      -1.977514    0.378993    0.166449
| 24> C      -3.167344    0.625171   -0.769096
| 25> C      -2.869014    0.014181   -2.149282
| 26> C      -4.434489   -0.035918   -0.208721
| 27> N      -3.407542    2.063769   -0.926146
| 28> N      -1.918667    0.949491    1.408048
| 29> C      -2.947068    1.799358    1.993937
| 30> C      -0.813666    0.644958    2.284138
| 31> O      -0.799658    1.150602    3.444373
| 32> C       0.152958   -0.184328    1.761389
| 33> O       1.252150   -0.473793    2.600257
| 34> H       0.190981   -3.986666   -1.016081
| 35> H      -1.139143   -2.830776   -1.313635
| 36> H      -0.130983   -3.401504   -2.670627
| 37> H       2.193454   -1.845725    1.432842
| 38> H       3.270800   -2.304861   -1.257812
| 39> H       4.149521   -2.553663    0.267307
| 40> H       2.460469    0.018718   -1.848992
| 41> H       2.913184    2.459806   -1.691263
| 42> H       5.538522    1.766554    1.618171
| 43> H       5.074252   -0.668716    1.483334
| 44> H      -1.945320    0.425688   -2.554779
| 45> H      -2.762322   -1.067388   -2.070306
| 46> H      -3.686398    0.239761   -2.832521
| 47> H      -5.239802    0.031554   -0.939709
| 48> H      -4.243600   -1.088316    0.001314
| 49> H      -4.766148    0.449748    0.706670
| 50> H      -2.655902    2.475467   -1.464863
| 51> H      -4.259239    2.195314   -1.452086
| 52> H      -3.453445    2.381242    1.227082
| 53> H      -2.470697    2.484515    2.699777
| 54> H      -3.680243    1.199541    2.541834
| 55> H       1.038140   -0.070436    3.458024
| 56> **                         ****END OF INPUT****

CARTESIAN COORDINATES (ANGSTROEM)
---------------------------------
  C     -0.123438   -3.120935   -1.614852
  O      0.779625   -2.034243   -1.469943
  C      0.974785   -1.586100   -0.155626
  N      2.104951   -2.192867    0.478191
  C      3.378866   -1.954469   -0.226446
  C      3.735535   -0.490238   -0.189867
  C      3.124083    0.397811   -1.079621
  C      3.371823    1.761586   -1.002793
  C      4.235116    2.216780   -0.024282
  F      4.489180    3.540678    0.050691
  C      4.860746    1.369721    0.873886
  C      4.594472    0.010489    0.787356
  C      0.073948   -0.753828    0.451334
  N     -1.065922   -0.406726   -0.295671
  C     -1.977514    0.378993    0.166449
  C     -3.167344    0.625171   -0.769096
  C     -2.869014    0.014181   -2.149282
  C     -4.434489   -0.035918   -0.208721
  N     -3.407542    2.063769   -0.926146
  N     -1.918667    0.949491    1.408048
  C     -2.947068    1.799358    1.993937
  C     -0.813666    0.644958    2.284138
  O     -0.799658    1.150602    3.444373
  C      0.152958   -0.184328    1.761389
  O      1.252150   -0.473793    2.600257
  H      0.190981   -3.986666   -1.016081
  H     -1.139143   -2.830776   -1.313635
  H     -0.130983   -3.401504   -2.670627
  H      2.193454   -1.845725    1.432842
  H      3.270800   -2.304861   -1.257812
  H      4.149521   -2.553663    0.267307
  H      2.460469    0.018718   -1.848992
  H      2.913184    2.459806   -1.691263
  H      5.538522    1.766554    1.618171
  H      5.074252   -0.668716    1.483334
  H     -1.945320    0.425688   -2.554779
  H     -2.762322   -1.067388   -2.070306
  H     -3.686398    0.239761   -2.832521
  H     -5.239802    0.031554   -0.939709
  H     -4.243600   -1.088316    0.001314
  H     -4.766148    0.449748    0.706670
  H     -2.655902    2.475467   -1.464863
  H     -4.259239    2.195314   -1.452086
  H     -3.453445    2.381242    1.227082
  H     -2.470697    2.484515    2.699777
  H     -3.680243    1.199541    2.541834
  H      1.038140   -0.070436    3.458024

 Total Charge           Charge          ....   -1
 Multiplicity           Mult            ....    1
 Number of Electrons    NEL             ....  186
 Basis Dimension        Dim             ....  625

ORBITAL ENERGIES
----------------

  NO   OCC          E(Eh)            E(eV)
   0   2.0000     -24.495840      -666.5657
   1   2.0000     -18.943971      -515.4917
   2   2.0000     -18.941096      -515.4134
   3   2.0000     -18.869352      -513.4612
   4   2.0000     -14.177992      -385.8028
   5   2.0000     -14.140292      -384.7769
   6   2.0000     -14.126124      -384.3914
   7   2.0000     -14.115612      -384.1053
   8   2.0000     -10.110027      -275.1078
   9   2.0000     -10.080915      -274.3156
  10   2.0000     -10.074609      -274.1441
  11   2.0000     -10.065638      -273.8999
  12   2.0000     -10.053468      -273.5688
  13   2.0000     -10.051830      -273.5242
  14   2.0000     -10.042234      -273.2631
  15   2.0000     -10.034069      -273.0409
  16   2.0000     -10.033661      -273.0298
  17   2.0000     -10.033425      -273.0234
  18   2.0000     -10.032922      -273.0097
  19   2.0000     -10.032483      -272.9977
  20   2.0000     -10.030532      -272.9447
  21   2.0000     -10.029997      -272.9301
  22   2.0000     -10.029818      -272.9252
  23   2.0000     -10.010442      -272.3980
  24   2.0000     -10.000734      -272.1338
  25   2.0000      -1.184903       -32.2428
  26   2.0000      -0.984997       -26.8031
  27   2.0000      -0.980239       -26.6736
  28   2.0000      -0.946197       -25.7473
  29   2.0000      -0.905804       -24.6482
  30   2.0000      -0.857180       -23.3251
  31   2.0000      -0.848065       -23.0770
  32   2.0000      -0.831668       -22.6308
  33   2.0000      -0.820941       -22.3389
  34   2.0000      -0.730833       -19.8870
  35   2.0000      -0.719115       -19.5681
  36   2.0000      -0.718045       -19.5390
  37   2.0000      -0.691976       -18.8296
  38   2.0000      -0.671380       -18.2692
  39   2.0000      -0.646778       -17.5997
  40   2.0000      -0.641959       -17.4686
  41   2.0000      -0.627867       -17.0851
  42   2.0000      -0.593103       -16.1392
  43   2.0000      -0.585502       -15.9323
  44   2.0000      -0.585142       -15.9225
  45   2.0000      -0.554548       -15.0900
  46   2.0000      -0.526933       -14.3386
  47   2.0000      -0.511392       -13.9157
  48   2.0000      -0.507035       -13.7971
  49   2.0000      -0.497048       -13.5254
  50   2.0000      -0.466520       -12.6946
  51   2.0000      -0.455155       -12.3854
  52   2.0000      -0.452088       -12.3019
  53   2.0000      -0.444991       -12.1088
  54   2.0000      -0.434907       -11.8344
  55   2.0000      -0.429034       -11.6746
  56   2.0000      -0.428122       -11.6498
  57   2.0000      -0.420091       -11.4313
  58   2.0000      -0.411029       -11.1847
  59   2.0000      -0.405855       -11.0439
  60   2.0000      -0.401310       -10.9202
  61   2.0000      -0.399534       -10.8719
  62   2.0000      -0.391086       -10.6420
  63   2.0000      -0.389743       -10.6054
  64   2.0000      -0.383247       -10.4287
  65   2.0000      -0.376820       -10.2538
  66   2.0000      -0.364582        -9.9208
  67   2.0000      -0.360375        -9.8063
  68   2.0000      -0.352607        -9.5949
  69   2.0000      -0.347981        -9.4690
  70   2.0000      -0.344940        -9.3863
  71   2.0000      -0.342455        -9.3187
  72   2.0000      -0.336517        -9.1571
  73   2.0000      -0.330241        -8.9863
  74   2.0000      -0.326271        -8.8783
  75   2.0000      -0.324044        -8.8177
  76   2.0000      -0.314961        -8.5705
  77   2.0000      -0.308756        -8.4017
  78   2.0000      -0.305711        -8.3188
  79   2.0000      -0.302865        -8.2414
  80   2.0000      -0.297214        -8.0876
  81   2.0000      -0.289909        -7.8888
  82   2.0000      -0.281135        -7.6501
  83   2.0000      -0.243181        -6.6173
  84   2.0000      -0.236905        -6.4465
  85   2.0000      -0.227064        -6.1787
  86   2.0000      -0.216004        -5.8778
  87   2.0000      -0.209674        -5.7055
  88   2.0000      -0.207346        -5.6422
  89   2.0000      -0.197245        -5.3673
  90   2.0000      -0.194673        -5.2973
  91   2.0000      -0.168847        -4.5946
  92   2.0000      -0.093568        -2.5461
  93   0.0000      -0.034115        -0.9283
  94   0.0000      -0.021335        -0.5805
  95   0.0000       0.001153         0.0314
  96   0.0000       0.036835         1.0023
  97   0.0000       0.055296         1.5047

MULLIKEN ATOMIC CHARGES
-----------------------
   0 C :   -0.345186
   1 O :   -0.196201
   2 C :   -0.149598
   3 N :   -0.301200
   4 C :   -0.293558
   5 C :    0.108622
   6 C :   -0.211796
   7 C :   -0.319481
   8 C :    0.355276
   9 F :   -0.246111
  10 C :   -0.313860
  11 C :   -0.231578
  12 C :   -0.075799
  13 N :   -0.148007
  14 C :   -0.017317
  15 C :    0.300389
  16 C :   -0.615196
  17 C :   -0.551921
  18 N :   -0.687582
  19 N :    0.232722
  20 C :   -0.523832
  21 C :    0.006085
  22 O :   -0.546438
  23 C :   -0.174121
  24 O :   -0.440646
  25 H :    0.145162
  26 H :    0.156727
  27 H :    0.153342
  28 H :    0.327040
  29 H :    0.188387
  30 H :    0.169259
  31 H :    0.197904
  32 H :    0.192765
  33 H :    0.192929
  34 H :    0.184764
  35 H :    0.175108
  36 H :    0.170279
  37 H :    0.160957
  38 H :    0.173658
  39 H :    0.180950
  40 H :    0.174887
  41 H :    0.280469
  42 H :    0.286460
  43 H :    0.207610
  44 H :    0.179401
  45 H :    0.167759
  46 H :    0.320517
Sum of atomic charges:   -1.0000000

LOEWDIN ATOMIC CHARGES
----------------------
   0 C :   -0.073354
   1 O :   -0.692810
   2 C :    0.255225
   3 N :   -0.722470
   4 C :   -0.040048
   5 C :   -0.089780
   6 C :   -0.155704
   7 C :   -0.171644
   8 C :    0.189753
   9 F :   -0.307037
  10 C :   -0.177914
  11 C :   -0.153142
  12 C :    0.156801
  13 N :   -0.640407
  14 C :    0.342532
  15 C :    0.064810
  16 C :   -0.371168
  17 C :   -0.363374
  18 N :   -0.715055
  19 N :   -0.705827
  20 C :   -0.125671
  21 C :    0.312221
  22 O :   -0.639469
  23 C :    0.136660
  24 O :   -0.572427
  25 H :    0.159503
  26 H :    0.164171
  27 H :    0.170810
  28 H :    0.282331
  29 H :    0.192517
  30 H :    0.185265
  31 H :    0.189723
  32 H :    0.191089
  33 H :    0.190813
  34 H :    0.183637
  35 H :    0.167595
  36 H :    0.165114
  37 H :    0.155446
  38 H :    0.165284
  39 H :    0.169062
  40 H :    0.168655
  41 H :    0.251214
  42 H :    0.251371
  43 H :    0.201506
  44 H :    0.196347
  45 H :    0.168949
  46 H :    0.288896

  Mayer bond orders larger than 0.100000
B(  0-C ,  1-O ) :   0.8511 B(  0-C , 25-H ) :   0.9676 B(  0-C , 26-H ) :   0.9655
B(  0-C , 27-H ) :   0.9703 B(  1-O ,  2-C ) :   1.1025 B(  2-C ,  3-N ) :   1.0095
B(  2-C , 12-C ) :   1.5040 B(  2-C , 13-N ) :   0.1052 B(  3-N ,  4-C ) :   0.8942
B(  3-N , 12-C ) :   0.1424 B(  3-N , 28-H ) :   0.8640 B(  4-C ,  5-C ) :   0.8209
B(  4-C , 29-H ) :   1.0037 B(  4-C , 30-H ) :   0.9889 B(  5-C ,  6-C ) :   1.3588
B(  5-C , 11-C ) :   1.3992 B(  6-C ,  7-C ) :   1.3639 B(  6-C , 31-H ) :   0.9407
B(  7-C ,  8-C ) :   1.3988 B(  7-C , 32-H ) :   0.9379 B(  8-C ,  9-F ) :   0.8732
B(  8-C , 10-C ) :   1.3940 B( 10-C , 11-C ) :   1.3670 B( 10-C , 33-H ) :   0.9383
B( 11-C , 34-H ) :   0.9418 B( 12-C , 13-N ) :   0.8342 B( 12-C , 23-C ) :   1.0808
B( 13-N , 14-C ) :   1.8284 B( 13-N , 15-C ) :  -0.1453 B( 13-N , 19-N ) :   0.1074
B( 14-C , 15-C ) :   0.8942 B( 14-C , 19-N ) :   1.2838 B( 15-C , 16-C ) :   0.9583
B( 15-C , 17-C ) :   0.9074 B( 15-C , 18-N ) :   0.7638 B( 16-C , 35-H ) :   0.9724
B( 16-C , 36-H ) :   0.9781 B( 16-C , 37-H ) :   0.9701 B( 17-C , 38-H ) :   0.9650
B( 17-C , 39-H ) :   0.9787 B( 17-C , 40-H ) :   0.9562 B( 18-N , 41-H ) :   0.9087
B( 18-N , 42-H ) :   0.9135 B( 19-N , 20-C ) :   0.8351 B( 19-N , 21-C ) :   0.9270
B( 20-C , 43-H ) :   0.9376 B( 20-C , 44-H ) :   0.9525 B( 20-C , 45-H ) :   0.9542
B( 21-C , 22-O ) :   1.7984 B( 21-C , 23-C ) :   1.2652 B( 23-C , 24-O ) :   0.8689
B( 24-O , 46-H ) :   0.8391

Dispersion correction           -0.022680236
FINAL SINGLE POINT ENERGY     -1205.442749139715

DIPOLE MOMENT
-------------
                                X             Y             Z
Electronic contribution:     26.23352      10.22005       7.83514
Nuclear contribution   :    -26.97111     -10.19980     -10.31258
                        -----------------------------------------
Total Dipole Moment    :     -0.73759       0.02025      -2.47744
                        -----------------------------------------
Magnitude (a.u.)       :      2.58499
Magnitude (Debye)      :      6.57052

Rotational constants in cm-1:     0.010274     0.004901     0.004370
Rotational constants in MHz :   308.007677   146.919029   130.998521

                             ****ORCA TERMINATED NORMALLY****
TOTAL RUN TIME: 0 days 0 hours 2 minutes 36 seconds 259 msec
