   * xtb version 6.5.1 (579679a) compiled by 'ehlert@majestix' on 2022-07-11
          program call               : /lustre/hpc/kemi/ree/PhD/git/ReactivityQM/dep/xtb-6.5.1/bin/xtb --gfn 1 /lustre/hpc/kemi/ree/PhD/git/ReactivityQM/calculations/RaltegravirCLI/reac02prodE05/conf14/RaltegravirCLI_reac02prodE05_conf14_gfn1.xyz --opt --vfukui --chrg -1 --uhf 0 --alpb DMSO

   ID    Z sym.   atoms
    1    6 C      1, 3, 5-9, 11-13, 15-18, 21, 22, 24
    2    8 O      2, 23, 25
    3    7 N      4, 14, 19, 20
    4    9 F      10
    5    1 H      26-47

      * Solvation model:               ALPB
        Solvent                        DMSO
        Solvent mass                       7.8130E+01 g/mol
          :  Hamiltonian                  GFN1-xTB          :
 * total energy  :   -80.1463108 Eh     change       -0.2673062E-10 Eh
 * total energy  :   -80.1603462 Eh     change       -0.1403543E-01 Eh
 * total energy  :   -80.1653892 Eh     change       -0.5042993E-02 Eh
 * total energy  :   -80.1664796 Eh     change       -0.1090383E-02 Eh
 * total energy  :   -80.1676050 Eh     change       -0.1125432E-02 Eh
 * total energy  :   -80.1683963 Eh     change       -0.7912578E-03 Eh
 * total energy  :   -80.1694990 Eh     change       -0.1102709E-02 Eh
 * total energy  :   -80.1711727 Eh     change       -0.1673668E-02 Eh
 * total energy  :   -80.1727940 Eh     change       -0.1621362E-02 Eh
 * total energy  :   -80.1737814 Eh     change       -0.9873883E-03 Eh
 * total energy  :   -80.1855917 Eh     change       -0.1503702E-04 Eh
 * total energy  :   -80.1856059 Eh     change       -0.1425217E-04 Eh
 * total energy  :   -80.1856215 Eh     change       -0.1557141E-04 Eh
 * total energy  :   -80.1856415 Eh     change       -0.1998799E-04 Eh
 * total energy  :   -80.1856627 Eh     change       -0.2123532E-04 Eh
 * total energy  :   -80.1856764 Eh     change       -0.1367934E-04 Eh
 * total energy  :   -80.1856822 Eh     change       -0.5807031E-05 Eh
 * total energy  :   -80.1856883 Eh     change       -0.6156780E-05 Eh
 * total energy  :   -80.1856902 Eh     change       -0.1877233E-05 Eh
   *** GEOMETRY OPTIMIZATION CONVERGED AFTER 85 ITERATIONS ***

 final structure:
================
47
 xtb: 6.5.1 (579679a)
C           -0.12343773043726       -3.12093542940689       -1.61485168980963
O            0.77962510355838       -2.03424314640197       -1.46994297243416
C            0.97478509543401       -1.58609970795494       -0.15562631165116
N            2.10495058148162       -2.19286705993107        0.47819118711406
C            3.37886583684900       -1.95446872254083       -0.22644568353183
C            3.73553518364388       -0.49023833630348       -0.18986716013017
C            3.12408282955572        0.39781095573683       -1.07962106943989
C            3.37182300831276        1.76158566548418       -1.00279304302458
C            4.23511604743938        2.21678002076402       -0.02428176855452
F            4.48917989024287        3.54067768545373        0.05069075188324
C            4.86074555400389        1.36972077404132        0.87388623081230
C            4.59447235355805        0.01048949823412        0.78735609190673
C            0.07394839968700       -0.75382766956436        0.45133393105393
N           -1.06592153997411       -0.40672569716414       -0.29567060753311
C           -1.97751410182731        0.37899288523444        0.16644859554996
C           -3.16734413471474        0.62517090576348       -0.76909574915967
C           -2.86901363375483        0.01418050154620       -2.14928243727389
C           -4.43448938352084       -0.03591765473624       -0.20872056314084
N           -3.40754229518390        2.06376910844608       -0.92614618789370
N           -1.91866674121882        0.94949149778830        1.40804766246959
C           -2.94706776528733        1.79935808827791        1.99393701049488
C           -0.81366586540391        0.64495763436822        2.28413765874212
O           -0.79965752898541        1.15060197310860        3.44437293662808
C            0.15295788989606       -0.18432753024684        1.76138890479961
O            1.25215003311785       -0.47379325925660        2.60025684380054
H            0.19098123619063       -3.98666570556811       -1.01608117104523
H           -1.13914275646164       -2.83077626487023       -1.31363541788803
H           -0.13098281613715       -3.40150444915363       -2.67062700041778
H            2.19345390484920       -1.84572509237363        1.43284173559536
H            3.27079966352469       -2.30486072684921       -1.25781177517834
H            4.14952113332777       -2.55366337600211        0.26730666320025
H            2.46046850464171        0.01871757723262       -1.84899221176281
H            2.91318350216552        2.45980591809442       -1.69126338107182
H            5.53852198296569        1.76655426678935        1.61817067673610
H            5.07425175476563       -0.66871636697029        1.48333397500332
H           -1.94532005632301        0.42568827782365       -2.55477908733795
H           -2.76232220170064       -1.06738818997073       -2.07030562765806
H           -3.68639753667300        0.23976088239643       -2.83252071199896
H           -5.23980237838426        0.03155443010024       -0.93970865351959
H           -4.24360031955108       -1.08831561983793        0.00131379134159
H           -4.76614790645890        0.44974766795424        0.70667000658018
H           -2.65590158091841        2.47546678076738       -1.46486252398647
H           -4.25923907814265        2.19531427597772       -1.45208576905269
H           -3.45344510244934        2.38124175807114        1.22708156515493
H           -2.47069661237594        2.48451470163689        2.69977720310672
H           -3.68024286224154        1.19954114646633        2.54183441529152
H            1.03814043893315       -0.07043587244969        3.45802373722576

          :  Hamiltonian                  GFN1-xTB          :
         :: total energy             -80.185690219275 Eh    ::
         :: gradient norm              0.000315150047 Eh/a0 ::
         :: HOMO-LUMO gap              0.980078077372 eV    ::
         :: SCC energy               -81.038339646998 Eh    ::
         :: -> Gsolv                  -0.104165914445 Eh    ::
         :: repulsion energy           0.884675418658 Eh    ::

    * Orbital Energies and Occupations

         #    Occupation            Energy/Eh            Energy/eV
      -------------------------------------------------------------
         1        2.0000           -0.8490451             -23.1037
       ...           ...                  ...                  ...
        56        2.0000           -0.4554197             -12.3926
        57        2.0000           -0.4543391             -12.3632
        58        2.0000           -0.4525225             -12.3138
        59        2.0000           -0.4338583             -11.8059
        60        2.0000           -0.4263494             -11.6016
        61        2.0000           -0.4163118             -11.3284
        62        2.0000           -0.4151142             -11.2958
        63        2.0000           -0.3965860             -10.7917
        64        2.0000           -0.3884389             -10.5700
        65        2.0000           -0.3819940             -10.3946
        66        2.0000           -0.3775166             -10.2727
        67        2.0000           -0.3565099              -9.7011
        68        2.0000           -0.2914917              -7.9319 (HOMO)
        69                         -0.2554745              -6.9518 (LUMO)
        70                         -0.2473275              -6.7301
        71                         -0.2166626              -5.8957
        72                         -0.1818061              -4.9472
        73                         -0.1276539              -3.4736
        74                         -0.1170918              -3.1862
        75                         -0.1149057              -3.1267
        76                         -0.1034706              -2.8156
        77                         -0.0991442              -2.6979
        78                         -0.0979463              -2.6653
        79                         -0.0904097              -2.4602
       ...                                ...                  ...
       144                          0.6984609              19.0061
      -------------------------------------------------------------
                  HL-Gap            0.0360172 Eh            0.9801 eV

Wiberg/Mayer (AO) data.
largest (>0.10) Wiberg bond orders for each atom

     #   Z sym  total        # sym  WBO       # sym  WBO       # sym  WBO
 ---------------------------------------------------------------------------
     1   6 C    3.922 --    28 H    0.986    26 H    0.982    27 H    0.979
                             2 O    0.940
     2   8 O    2.012 --     1 C    0.940     3 C    0.934
     3   6 C    3.806 --    13 C    1.522     4 N    1.002     2 O    0.934
     4   7 N    3.072 --     3 C    1.002     5 C    0.953    29 H    0.925
     5   6 C    3.974 --     6 C    1.004    31 H    0.980    30 H    0.975
                             4 N    0.953
     6   6 C    3.982 --    12 C    1.412     7 C    1.393     5 C    1.004
     7   6 C    3.991 --     8 C    1.442     6 C    1.393    32 H    0.971
                            11 C    0.105
     8   6 C    3.992 --     7 C    1.442     9 C    1.405    33 H    0.971
                            12 C    0.108
     9   6 C    3.851 --     8 C    1.405    11 C    1.394    10 F    0.909
    10   9 F    1.031 --     9 C    0.909
    11   6 C    3.989 --    12 C    1.445     9 C    1.394    34 H    0.971
                             7 C    0.105
    12   6 C    3.994 --    11 C    1.445     6 C    1.412    35 H    0.972
                             8 C    0.108
    13   6 C    3.953 --     3 C    1.522    24 C    1.165    14 N    1.073
    14   7 N    3.012 --    15 C    1.613    13 C    1.073    20 N    0.131
    15   6 C    3.943 --    14 N    1.613    20 N    1.180    16 C    0.968
    16   6 C    3.964 --    17 C    0.993    18 C    0.991    19 N    0.974
                            15 C    0.968
    17   6 C    3.997 --    16 C    0.993    38 H    0.987    36 H    0.984
                            37 H    0.982
    18   6 C    3.995 --    16 C    0.991    40 H    0.986    39 H    0.985
                            41 H    0.982
    19   7 N    2.989 --    16 C    0.974    43 H    0.948    42 H    0.947
    20   7 N    3.394 --    15 C    1.180    21 C    0.954    22 C    0.953
                            14 N    0.131
    21   6 C    3.955 --    46 H    0.980    45 H    0.978    44 H    0.976
                            20 N    0.954
    22   6 C    3.911 --    24 C    1.415    23 O    1.367    20 N    0.953
    23   8 O    1.724 --    22 C    1.367    24 C    0.135
    24   6 C    3.841 --    22 C    1.415    13 C    1.165    25 O    0.948
                            23 O    0.135
    25   8 O    1.944 --    24 C    0.948    47 H    0.848
    26   1 H    1.017 --     1 C    0.982
    27   1 H    1.033 --     1 C    0.979
    28   1 H    1.020 --     1 C    0.986
    29   1 H    0.982 --     4 N    0.925
    30   1 H    1.021 --     5 C    0.975
    31   1 H    1.014 --     5 C    0.980
    32   1 H    1.011 --     7 C    0.971
    33   1 H    1.001 --     8 C    0.971
    34   1 H    1.000 --    11 C    0.971
    35   1 H    1.002 --    12 C    0.972
    36   1 H    1.018 --    17 C    0.984
    37   1 H    1.020 --    17 C    0.982
    38   1 H    1.006 --    17 C    0.987
    39   1 H    1.003 --    18 C    0.985
    40   1 H    1.006 --    18 C    0.986
    41   1 H    1.008 --    18 C    0.982
    42   1 H    0.964 --    19 N    0.947
    43   1 H    0.962 --    19 N    0.948
    44   1 H    1.034 --    21 C    0.976
    45   1 H    1.024 --    21 C    0.978
    46   1 H    1.010 --    21 C    0.980
    47   1 H    0.894 --    25 O    0.848
 ---------------------------------------------------------------------------

           -------------------------------------------------
          | TOTAL ENERGY              -80.185690219275 Eh   |
          | GRADIENT NORM               0.000315150047 Eh/α |
          | HOMO-LUMO GAP               0.980078077372 eV   |
           -------------------------------------------------

 * finished run on 2023/06/20 at 15:03:02.295
