   * xtb version 6.5.1 (579679a) compiled by 'ehlert@majestix' on 2022-07-11
          program call               : /lustre/hpc/kemi/ree/PhD/git/ReactivityQM/dep/xtb-6.5.1/bin/xtb --gfn 1 /lustre/hpc/kemi/ree/PhD/git/ReactivityQM/calculations/RaltegravirCLI/reac02prodE01/conf13/RaltegravirCLI_reac02prodE01_conf13_gfn1.xyz --opt --vfukui --chrg -1 --uhf 0 --alpb DMSO

   ID    Z sym.   atoms
    1    6 C      1, 3-6, 9-11, 14-18, 20-22, 24
    2    7 N      2, 7, 8, 13
    3    8 O      12, 23, 25
    4    9 F      19
    5    1 H      26-47

      * Solvation model:               ALPB
        Solvent                        DMSO
        Solvent mass                       7.8130E+01 g/mol
          :  Hamiltonian                  GFN1-xTB          :
 * total energy  :   -80.1926506 Eh     change       -0.1173817E-10 Eh
 * total energy  :   -80.2024424 Eh     change       -0.9791774E-02 Eh
 * total energy  :   -80.2058396 Eh     change       -0.3397254E-02 Eh
 * total energy  :   -80.2085509 Eh     change       -0.2711266E-02 Eh
 * total energy  :   -80.2110995 Eh     change       -0.2548656E-02 Eh
 * total energy  :   -80.2138684 Eh     change       -0.2768830E-02 Eh
 * total energy  :   -80.2177707 Eh     change       -0.3902307E-02 Eh
 * total energy  :   -80.2202807 Eh     change       -0.2510068E-02 Eh
 * total energy  :   -80.2219529 Eh     change       -0.1672185E-02 Eh
 * total energy  :   -80.2245127 Eh     change       -0.2559759E-02 Eh
 * total energy  :   -80.2295092 Eh     change       -0.6404428E-05 Eh
 * total energy  :   -80.2295179 Eh     change       -0.8633568E-05 Eh
 * total energy  :   -80.2295291 Eh     change       -0.1125298E-04 Eh
 * total energy  :   -80.2295403 Eh     change       -0.1117826E-04 Eh
 * total energy  :   -80.2295502 Eh     change       -0.9922593E-05 Eh
 * total energy  :   -80.2295600 Eh     change       -0.9742447E-05 Eh
 * total energy  :   -80.2295701 Eh     change       -0.1013562E-04 Eh
 * total energy  :   -80.2295800 Eh     change       -0.9858459E-05 Eh
 * total energy  :   -80.2295840 Eh     change       -0.4007468E-05 Eh
   *** GEOMETRY OPTIMIZATION CONVERGED AFTER 44 ITERATIONS ***

 final structure:
================
47
 xtb: 6.5.1 (579679a)
C           -3.80506881230821        1.14156946429851        2.08863229860940
N           -2.66056577368671        0.39170422742219        1.57267797894982
C           -2.52338263353749        0.08834769663602        0.23045770905560
C           -3.55785734628373        0.48868991573346       -0.81676631750969
C           -3.34237638412848        1.94948984298958       -1.24213758947525
C           -3.38716240527138       -0.41422476193823       -2.05143347979537
N           -4.91878543088565        0.33566411613476       -0.29748627919139
N           -1.47222988124469       -0.53461467010591       -0.20526766735905
C           -0.49551810597856       -0.95545958544091        0.64208382512782
C            0.70664731500842       -1.65783226441821        0.01191017795219
C            0.28246887838525       -2.43771921419789       -1.24769594058935
O            1.28591046169631       -2.54571600346587        0.92093913885709
N            1.68643319059173       -0.58599121250043       -0.32852360187981
C            2.95232161507838       -1.10634034697306       -0.86732991026947
C            4.03472983634068       -0.07068956063892       -0.67140801396112
C            4.80828004066070       -0.07003789992644        0.48813174346711
C            5.78834977791687        0.89211592926267        0.68991849784883
C            5.97241194644247        1.85313284939095       -0.28723759548988
F            6.92204900114383        2.79085489316698       -0.10099393617195
C            5.22527395029908        1.88666695208177       -1.45000144048241
C            4.25102780290494        0.91426384832403       -1.63316610788148
C           -0.55919824867088       -0.76825439298916        2.01987167837953
O            0.32394762270279       -1.19431752040320        2.84562118896433
C           -1.73810681894593       -0.02839109936962        2.52596525440374
O           -1.92410621322773        0.24165305374018        3.72260911713682
H           -4.65805319960752        0.47778303127711        2.23604800019457
H           -3.52772833942948        1.58684450610992        3.04609667450207
H           -4.08830123697795        1.93062961570800        1.39896767201001
H           -4.04225444845046        2.21023965542315       -2.03519881131453
H           -3.49655789886571        2.63398344205733       -0.40934345326973
H           -2.32723847003397        2.07753314807437       -1.61672634137115
H           -2.39709588182375       -0.28135844236365       -2.48608658251235
H           -3.50635310332293       -1.46022320615477       -1.77071076484163
H           -4.13925438094718       -0.16127429269277       -2.79687569017102
H           -5.15805763115532       -0.64769668403888       -0.27121091966485
H           -5.56317911362645        0.77876226818037       -0.93611251255454
H           -0.10907840277486       -1.75430798747805       -1.99853074178376
H           -0.49528943658377       -3.15086651574638       -0.97631405874377
H            1.12890069873017       -2.98341798686438       -1.65992095811476
H            1.25913456414149        0.01170190093013       -1.03232711118604
H            3.21373448898543       -2.01849438825652       -0.32057994478153
H            2.86226237982441       -1.34704996971051       -1.93563694526450
H            4.65286198362026       -0.83518095052240        1.24157575675562
H            6.40148880345268        0.89706576159257        1.58191815257897
H            5.40521411874878        2.65226367874061       -2.19293796226211
H            3.65869560229987        0.92151102882197       -2.54090276509427
H            1.07065651880505       -2.14300986991261        1.83627357818204

          :  Hamiltonian                  GFN1-xTB          :
         :: total energy             -80.229583978078 Eh    ::
         :: gradient norm              0.000214041753 Eh/a0 ::
         :: HOMO-LUMO gap              2.121022540940 eV    ::
         :: SCC energy               -81.075358258974 Eh    ::
         :: -> Gsolv                  -0.111509922402 Eh    ::
         :: repulsion energy           0.876172485129 Eh    ::

    * Orbital Energies and Occupations

         #    Occupation            Energy/Eh            Energy/eV
      -------------------------------------------------------------
         1        2.0000           -0.8556719             -23.2840
       ...           ...                  ...                  ...
        56        2.0000           -0.4613899             -12.5551
        57        2.0000           -0.4592080             -12.4957
        58        2.0000           -0.4502635             -12.2523
        59        2.0000           -0.4412348             -12.0066
        60        2.0000           -0.4325125             -11.7693
        61        2.0000           -0.4275182             -11.6334
        62        2.0000           -0.4199739             -11.4281
        63        2.0000           -0.4121057             -11.2140
        64        2.0000           -0.4048014             -11.0152
        65        2.0000           -0.3939574             -10.7201
        66        2.0000           -0.3771510             -10.2628
        67        2.0000           -0.3575412              -9.7292
        68        2.0000           -0.3412629              -9.2862 (HOMO)
        69                         -0.2633167              -7.1652 (LUMO)
        70                         -0.2543452              -6.9211
        71                         -0.2367862              -6.4433
        72                         -0.2205690              -6.0020
        73                         -0.1347215              -3.6660
        74                         -0.1182954              -3.2190
        75                         -0.1108256              -3.0157
        76                         -0.1102131              -2.9991
        77                         -0.1043810              -2.8404
        78                         -0.1027011              -2.7946
        79                         -0.0985360              -2.6813
       ...                                ...                  ...
       144                          0.7227592              19.6673
      -------------------------------------------------------------
                  HL-Gap            0.0779461 Eh            2.1210 eV

Wiberg/Mayer (AO) data.
largest (>0.10) Wiberg bond orders for each atom

     #   Z sym  total        # sym  WBO       # sym  WBO       # sym  WBO
 ---------------------------------------------------------------------------
     1   6 C    3.947 --    28 H    0.980    26 H    0.980    27 H    0.977
                             2 N    0.946
     2   7 N    3.473 --    24 C    1.134     3 C    1.124     1 C    0.946
                            25 O    0.131
     3   6 C    3.927 --     8 N    1.545     2 N    1.124     4 C    0.977
     4   6 C    3.966 --     6 C    0.990     5 C    0.987     7 N    0.978
                             3 C    0.977
     5   6 C    3.994 --     4 C    0.987    31 H    0.986    29 H    0.984
                            30 H    0.979
     6   6 C    3.996 --     4 C    0.990    34 H    0.987    33 H    0.985
                            32 H    0.982
     7   7 N    2.977 --     4 C    0.978    35 H    0.946    36 H    0.946
     8   7 N    3.038 --     3 C    1.545     9 C    1.230
     9   6 C    3.939 --    22 C    1.382     8 N    1.230    10 C    0.966
                            23 O    0.134
    10   6 C    3.903 --    12 O    0.988    11 C    0.978     9 C    0.966
                            13 N    0.922
    11   6 C    3.996 --    37 H    0.986    38 H    0.985    39 H    0.985
                            10 C    0.978
    12   8 O    1.881 --    10 C    0.988    47 H    0.737
    13   7 N    2.975 --    14 C    0.973    40 H    0.954    10 C    0.922
    14   6 C    3.979 --    15 C    1.002    13 N    0.973    42 H    0.973
                            41 H    0.972
    15   6 C    3.986 --    21 C    1.417    16 C    1.415    14 C    1.002
    16   6 C    3.993 --    17 C    1.444    15 C    1.415    43 H    0.972
                            20 C    0.110
    17   6 C    3.992 --    16 C    1.444    18 C    1.402    44 H    0.971
                            21 C    0.110
    18   6 C    3.856 --    20 C    1.403    17 C    1.402    19 F    0.915
    19   9 F    1.040 --    18 C    0.915
    20   6 C    3.992 --    21 C    1.442    18 C    1.403    45 H    0.970
                            16 C    0.110
    21   6 C    3.993 --    20 C    1.442    15 C    1.417    46 H    0.972
                            17 C    0.110
    22   6 C    3.957 --     9 C    1.382    23 O    1.340    24 C    1.041
    23   8 O    1.806 --    22 C    1.340    47 H    0.144     9 C    0.134
    24   6 C    3.893 --    25 O    1.512     2 N    1.134    22 C    1.041
    25   8 O    1.827 --    24 C    1.512     2 N    0.131
    26   1 H    1.023 --     1 C    0.980
    27   1 H    1.019 --     1 C    0.977
    28   1 H    1.025 --     1 C    0.980
    29   1 H    1.002 --     5 C    0.984
    30   1 H    1.008 --     5 C    0.979
    31   1 H    1.007 --     5 C    0.986
    32   1 H    1.020 --     6 C    0.982
    33   1 H    1.011 --     6 C    0.985
    34   1 H    1.005 --     6 C    0.987
    35   1 H    0.963 --     7 N    0.946
    36   1 H    0.961 --     7 N    0.946
    37   1 H    1.018 --    11 C    0.986
    38   1 H    1.012 --    11 C    0.985
    39   1 H    1.008 --    11 C    0.985
    40   1 H    0.984 --    13 N    0.954
    41   1 H    1.023 --    14 C    0.972
    42   1 H    1.006 --    14 C    0.973
    43   1 H    1.002 --    16 C    0.972
    44   1 H    1.000 --    17 C    0.971
    45   1 H    0.999 --    20 C    0.970
    46   1 H    1.001 --    21 C    0.972
    47   1 H    0.895 --    12 O    0.737    23 O    0.144
 ---------------------------------------------------------------------------

           -------------------------------------------------
          | TOTAL ENERGY              -80.229583978078 Eh   |
          | GRADIENT NORM               0.000214041753 Eh/α |
          | HOMO-LUMO GAP               2.121022540940 eV   |
           -------------------------------------------------

 * finished run on 2023/06/20 at 14:56:09.351
