   * xtb version 6.5.1 (579679a) compiled by 'ehlert@majestix' on 2022-07-11
          program call               : /lustre/hpc/kemi/ree/PhD/git/ReactivityQM/dep/xtb-6.5.1/bin/xtb --gfn 1 /lustre/hpc/kemi/ree/PhD/git/ReactivityQM/calculations/R03/reac01prodN03/conf01/R03_reac01prodN03_conf01_gfn1.xyz --opt --vfukui --chrg 1 --uhf 0 --alpb DMSO

   ID    Z sym.   atoms
    1    6 C      1-4, 6-9
    2    9 F      5
    3    7 N      10
    4    1 H      11-21

      * Solvation model:               ALPB
        Solvent                        DMSO
        Solvent mass                       7.8130E+01 g/mol
          :  Hamiltonian                  GFN1-xTB          :
 * total energy  :   -30.7613364 Eh     change       -0.1796785E-09 Eh
 * total energy  :   -30.7665945 Eh     change       -0.5258090E-02 Eh
 * total energy  :   -30.7683896 Eh     change       -0.1795084E-02 Eh
 * total energy  :   -30.7687424 Eh     change       -0.3527522E-03 Eh
 * total energy  :   -30.7689883 Eh     change       -0.2459563E-03 Eh
 * total energy  :   -30.7691145 Eh     change       -0.1261330E-03 Eh
 * total energy  :   -30.7692299 Eh     change       -0.1154167E-03 Eh
 * total energy  :   -30.7693689 Eh     change       -0.1389809E-03 Eh
 * total energy  :   -30.7694658 Eh     change       -0.9698600E-04 Eh
 * total energy  :   -30.7695293 Eh     change       -0.6348684E-04 Eh
 * total energy  :   -30.7701678 Eh     change       -0.1330264E-03 Eh
 * total energy  :   -30.7702899 Eh     change       -0.1220966E-03 Eh
 * total energy  :   -30.7703404 Eh     change       -0.5045842E-04 Eh
 * total energy  :   -30.7703516 Eh     change       -0.1116126E-04 Eh
 * total energy  :   -30.7703527 Eh     change       -0.1100485E-05 Eh
 * total energy  :   -30.7703727 Eh     change       -0.2004205E-04 Eh
 * total energy  :   -30.7703817 Eh     change       -0.9015935E-05 Eh
 * total energy  :   -30.7703867 Eh     change       -0.5031597E-05 Eh
 * total energy  :   -30.7703889 Eh     change       -0.2155584E-05 Eh
   *** GEOMETRY OPTIMIZATION CONVERGED AFTER 24 ITERATIONS ***

 final structure:
================
21
 xtb: 6.5.1 (579679a)
C           -0.01814350326236       -1.86516709175316       -0.88083536922934
C            0.58208156039221       -0.81854657271983        0.08544918146549
C            1.87061951558870       -0.29599666902127       -0.41723351668943
C            2.18229340038141        1.01627574298843       -0.27944436201144
F            3.35686019653420        1.46552054052645       -0.70485204425828
C            1.28958154156099        1.94921277119646        0.28068624184474
C            0.04033999141422        1.53368946817970        0.69876398468300
C           -0.35845422550985        0.20203662428272        0.60876989540046
C           -1.75354662153447       -0.16298471771477        0.98136519830160
N           -2.47697976173340        0.25753310103218       -0.21252873325372
H            0.73666521815503       -2.61408730944923       -1.11319200465014
H           -0.32711132442081       -1.37099118053624       -1.79886550977506
H           -0.87361475826180       -2.35725517974645       -0.42580635073124
H            0.84277821959796       -1.40132841733833        0.99228800847443
H            2.55807894749598       -0.99079370276585       -0.88308092831682
H            1.59074046370979        2.98660932717989        0.36683091880633
H           -0.64935954124750        2.26244748559321        1.10852495368486
H           -1.89889363559410       -1.22954404901765        1.14724968241266
H           -2.11861707029961        0.40462811840151        1.83801771298219
H           -2.15699502255154       -0.22645697044239       -1.03857551556174
H           -2.41832259041530        1.25519968112462       -0.35353144357853

          :  Hamiltonian                  GFN1-xTB          :
         :: total energy             -30.770388897834 Eh    ::
         :: gradient norm              0.000464510905 Eh/a0 ::
         :: HOMO-LUMO gap              1.344273396801 eV    ::
         :: SCC energy               -31.162904127705 Eh    ::
         :: -> Gsolv                  -0.087724561156 Eh    ::
         :: repulsion energy           0.403097805546 Eh    ::

    * Orbital Energies and Occupations

         #    Occupation            Energy/Eh            Energy/eV
      -------------------------------------------------------------
         1        2.0000           -0.9088447             -24.7309
       ...           ...                  ...                  ...
        15        2.0000           -0.6025929             -16.3974
        16        2.0000           -0.5906537             -16.0725
        17        2.0000           -0.5800715             -15.7845
        18        2.0000           -0.5767810             -15.6950
        19        2.0000           -0.5700918             -15.5130
        20        2.0000           -0.5569665             -15.1558
        21        2.0000           -0.5483913             -14.9225
        22        2.0000           -0.5407158             -14.7136
        23        2.0000           -0.5366256             -14.6023
        24        2.0000           -0.5328728             -14.5002
        25        2.0000           -0.5178371             -14.0911
        26        2.0000           -0.4978120             -13.5462
        27        2.0000           -0.4573607             -12.4454 (HOMO)
        28                         -0.4079596             -11.1011 (LUMO)
        29                         -0.3209397              -8.7332
        30                         -0.2356155              -6.4114
        31                         -0.1595238              -4.3409
        32                         -0.1539864              -4.1902
        33                         -0.1470616              -4.0018
        34                         -0.1379935              -3.7550
        35                         -0.1328050              -3.6138
        36                         -0.1295680              -3.5257
        37                         -0.1107027              -3.0124
        38                         -0.0958082              -2.6071
       ...                                ...                  ...
        62                          0.5428438              14.7715
      -------------------------------------------------------------
                  HL-Gap            0.0494011 Eh            1.3443 eV

Wiberg/Mayer (AO) data.
largest (>0.10) Wiberg bond orders for each atom

     #   Z sym  total        # sym  WBO       # sym  WBO       # sym  WBO
 ---------------------------------------------------------------------------
     1   6 C    3.974 --    13 H    0.980    12 H    0.980    11 H    0.980
                             2 C    0.937
     2   6 C    3.991 --     3 C    1.074     8 C    1.072     1 C    0.937
                            14 H    0.833
     3   6 C    3.975 --     4 C    1.568     2 C    1.074    15 H    0.960
     4   6 C    3.882 --     3 C    1.568     6 C    1.262     5 F    0.962
     5   9 F    1.103 --     4 C    0.962
     6   6 C    3.965 --     7 C    1.473     4 C    1.262    16 H    0.961
     7   6 C    3.987 --     6 C    1.473     8 C    1.415    17 H    0.961
     8   6 C    3.922 --     7 C    1.415     2 C    1.072     9 C    1.021
                            10 N    0.160
     9   6 C    3.960 --     8 C    1.021    18 H    0.974    19 H    0.968
                            10 N    0.949
    10   7 N    3.149 --     9 C    0.949    20 H    0.926    21 H    0.923
                             8 C    0.160
    11   1 H    0.994 --     1 C    0.980
    12   1 H    0.998 --     1 C    0.980
    13   1 H    0.995 --     1 C    0.980
    14   1 H    0.982 --     2 C    0.833
    15   1 H    0.986 --     3 C    0.960
    16   1 H    0.988 --     6 C    0.961
    17   1 H    0.989 --     7 C    0.961
    18   1 H    1.001 --     9 C    0.974
    19   1 H    1.000 --     9 C    0.968
    20   1 H    0.944 --    10 N    0.926
    21   1 H    0.941 --    10 N    0.923
 ---------------------------------------------------------------------------

           -------------------------------------------------
          | TOTAL ENERGY              -30.770388897834 Eh   |
          | GRADIENT NORM               0.000464510905 Eh/α |
          | HOMO-LUMO GAP               1.344273396801 eV   |
           -------------------------------------------------

 * finished run on 2023/06/20 at 15:14:11.466
