                         Program Version 5.0.1 -  RELEASE  -
|  1> # ORCA input file
|  2> ! SP r2SCAN-3c CPCM
|  3>
|  4> %maxcore 1875.0
|  5> %pal nprocs 4 end
|  6> %cpcm smd true SMDsolvent "DMSO" end
|  7>
|  8> *xyz 0 1
|  9> C      -5.865240    2.529670   -1.079804
| 10> O      -4.608442    2.073861   -0.577638
| 11> C      -3.921767    1.230955   -1.371032
| 12> O      -4.329586    0.872097   -2.457834
| 13> C      -2.661426    0.816876   -0.774540
| 14> C      -2.149210    1.174590    0.460380
| 15> O      -2.434799    1.809388    1.438187
| 16> C      -0.513157   -0.471011    1.638851
| 17> C      -1.740237   -1.136954    2.131252
| 18> O       0.591198   -0.550936    2.075518
| 19> N      -0.723833    0.420540    0.474456
| 20> C      -0.750408   -0.288148   -0.833829
| 21> C       0.344095   -1.219280   -1.273064
| 22> C       0.056889   -2.635405   -0.743270
| 23> C       0.384847   -1.213093   -2.808126
| 24> N       1.620812   -0.740531   -0.739568
| 25> C       2.795171   -1.370620   -0.956695
| 26> O       2.942837   -2.389230   -1.610287
| 27> C       3.934982   -0.675312   -0.308101
| 28> N       5.184645   -1.020350   -0.320489
| 29> N       5.859914   -0.079541    0.397341
| 30> C       4.980988    0.782666    0.804068
| 31> C       5.210826    1.995177    1.618844
| 32> O       3.742616    0.464265    0.392161
| 33> N      -1.816579   -0.040994   -1.471313
| 34> H      -6.541761    1.684396   -1.231223
| 35> H      -6.273091    3.207046   -0.331532
| 36> H      -5.727991    3.055389   -2.028496
| 37> H      -2.361147   -1.479056    1.306295
| 38> H      -2.310047   -0.399919    2.702141
| 39> H      -1.471404   -1.963424    2.784726
| 40> H       0.002397    1.131646    0.499388
| 41> H      -0.945136   -2.936758   -1.042888
| 42> H       0.779392   -3.338455   -1.154167
| 43> H       0.126496   -2.651054    0.342181
| 44> H       1.119876   -1.931989   -3.164657
| 45> H      -0.597274   -1.481008   -3.194694
| 46> H       0.649367   -0.219667   -3.165886
| 47> H       1.630645    0.086116   -0.167612
| 48> H       4.688974    1.908126    2.571821
| 49> H       6.276067    2.120158    1.797966
| 50> H       4.819501    2.869775    1.100299
| 51> **                         ****END OF INPUT****

CARTESIAN COORDINATES (ANGSTROEM)
---------------------------------
  C     -5.865240    2.529670   -1.079804
  O     -4.608442    2.073861   -0.577638
  C     -3.921767    1.230955   -1.371032
  O     -4.329586    0.872097   -2.457834
  C     -2.661426    0.816876   -0.774540
  C     -2.149210    1.174590    0.460380
  O     -2.434799    1.809388    1.438187
  C     -0.513157   -0.471011    1.638851
  C     -1.740237   -1.136954    2.131252
  O      0.591198   -0.550936    2.075518
  N     -0.723833    0.420540    0.474456
  C     -0.750408   -0.288148   -0.833829
  C      0.344095   -1.219280   -1.273064
  C      0.056889   -2.635405   -0.743270
  C      0.384847   -1.213093   -2.808126
  N      1.620812   -0.740531   -0.739568
  C      2.795171   -1.370620   -0.956695
  O      2.942837   -2.389230   -1.610287
  C      3.934982   -0.675312   -0.308101
  N      5.184645   -1.020350   -0.320489
  N      5.859914   -0.079541    0.397341
  C      4.980988    0.782666    0.804068
  C      5.210826    1.995177    1.618844
  O      3.742616    0.464265    0.392161
  N     -1.816579   -0.040994   -1.471313
  H     -6.541761    1.684396   -1.231223
  H     -6.273091    3.207046   -0.331532
  H     -5.727991    3.055389   -2.028496
  H     -2.361147   -1.479056    1.306295
  H     -2.310047   -0.399919    2.702141
  H     -1.471404   -1.963424    2.784726
  H      0.002397    1.131646    0.499388
  H     -0.945136   -2.936758   -1.042888
  H      0.779392   -3.338455   -1.154167
  H      0.126496   -2.651054    0.342181
  H      1.119876   -1.931989   -3.164657
  H     -0.597274   -1.481008   -3.194694
  H      0.649367   -0.219667   -3.165886
  H      1.630645    0.086116   -0.167612
  H      4.688974    1.908126    2.571821
  H      6.276067    2.120158    1.797966
  H      4.819501    2.869775    1.100299

 Total Charge           Charge          ....    0
 Multiplicity           Mult            ....    1
 Number of Electrons    NEL             ....  184
 Basis Dimension        Dim             ....  615

ORBITAL ENERGIES
----------------

  NO   OCC          E(Eh)            E(eV)
   0   2.0000     -19.067524      -518.8537
   1   2.0000     -18.989890      -516.7412
   2   2.0000     -18.988944      -516.7154
   3   2.0000     -18.951821      -515.7053
   4   2.0000     -18.937138      -515.3057
   5   2.0000     -18.924260      -514.9553
   6   2.0000     -14.279053      -388.5528
   7   2.0000     -14.208505      -386.6331
   8   2.0000     -14.206343      -386.5743
   9   2.0000     -14.198412      -386.3584
  10   2.0000     -14.189480      -386.1154
  11   2.0000     -10.192596      -277.3546
  12   2.0000     -10.161318      -276.5035
  13   2.0000     -10.151784      -276.2441
  14   2.0000     -10.151171      -276.2274
  15   2.0000     -10.148644      -276.1586
  16   2.0000     -10.144482      -276.0454
  17   2.0000     -10.125659      -275.5332
  18   2.0000     -10.115255      -275.2501
  19   2.0000     -10.071902      -274.0704
  20   2.0000     -10.066671      -273.9280
  21   2.0000     -10.050553      -273.4894
  22   2.0000     -10.045883      -273.3624
  23   2.0000     -10.026326      -272.8302
  24   2.0000     -10.022141      -272.7163
  25   2.0000      -1.156854       -31.4796
  26   2.0000      -1.082362       -29.4526
  27   2.0000      -1.062776       -28.9196
  28   2.0000      -1.037658       -28.2361
  29   2.0000      -1.027105       -27.9489
  30   2.0000      -0.990967       -26.9656
  31   2.0000      -0.977180       -26.5904
  32   2.0000      -0.970673       -26.4133
  33   2.0000      -0.921114       -25.0648
  34   2.0000      -0.900682       -24.5088
  35   2.0000      -0.833455       -22.6795
  36   2.0000      -0.786169       -21.3928
  37   2.0000      -0.745298       -20.2806
  38   2.0000      -0.734225       -19.9793
  39   2.0000      -0.714377       -19.4392
  40   2.0000      -0.680523       -18.5180
  41   2.0000      -0.671452       -18.2712
  42   2.0000      -0.665174       -18.1003
  43   2.0000      -0.634168       -17.2566
  44   2.0000      -0.618853       -16.8398
  45   2.0000      -0.601715       -16.3735
  46   2.0000      -0.585906       -15.9433
  47   2.0000      -0.576957       -15.6998
  48   2.0000      -0.551667       -15.0116
  49   2.0000      -0.547210       -14.8903
  50   2.0000      -0.530814       -14.4442
  51   2.0000      -0.507160       -13.8005
  52   2.0000      -0.496535       -13.5114
  53   2.0000      -0.492131       -13.3916
  54   2.0000      -0.482583       -13.1317
  55   2.0000      -0.464579       -12.6418
  56   2.0000      -0.448492       -12.2041
  57   2.0000      -0.445252       -12.1159
  58   2.0000      -0.442870       -12.0511
  59   2.0000      -0.433320       -11.7912
  60   2.0000      -0.429203       -11.6792
  61   2.0000      -0.425282       -11.5725
  62   2.0000      -0.421659       -11.4739
  63   2.0000      -0.418939       -11.3999
  64   2.0000      -0.412748       -11.2315
  65   2.0000      -0.402283       -10.9467
  66   2.0000      -0.399856       -10.8806
  67   2.0000      -0.393426       -10.7057
  68   2.0000      -0.387424       -10.5423
  69   2.0000      -0.383455       -10.4343
  70   2.0000      -0.382027       -10.3955
  71   2.0000      -0.379691       -10.3319
  72   2.0000      -0.371088       -10.0978
  73   2.0000      -0.357521        -9.7286
  74   2.0000      -0.355885        -9.6841
  75   2.0000      -0.353940        -9.6312
  76   2.0000      -0.345845        -9.4109
  77   2.0000      -0.342785        -9.3276
  78   2.0000      -0.337685        -9.1889
  79   2.0000      -0.325503        -8.8574
  80   2.0000      -0.318211        -8.6590
  81   2.0000      -0.315658        -8.5895
  82   2.0000      -0.301328        -8.1995
  83   2.0000      -0.276505        -7.5241
  84   2.0000      -0.268680        -7.3112
  85   2.0000      -0.266394        -7.2489
  86   2.0000      -0.263857        -7.1799
  87   2.0000      -0.255440        -6.9509
  88   2.0000      -0.250899        -6.8273
  89   2.0000      -0.247432        -6.7330
  90   2.0000      -0.239513        -6.5175
  91   2.0000      -0.197995        -5.3877
  92   0.0000      -0.091742        -2.4964
  93   0.0000      -0.088244        -2.4012
  94   0.0000      -0.068865        -1.8739
  95   0.0000      -0.034039        -0.9263
  96   0.0000      -0.021378        -0.5817

MULLIKEN ATOMIC CHARGES
-----------------------
   0 C :   -0.319938
   1 O :   -0.167029
   2 C :    0.086496
   3 O :   -0.426289
   4 C :    0.162130
   5 C :    0.107811
   6 O :   -0.367924
   7 C :    0.280333
   8 C :   -0.512840
   9 O :   -0.330654
  10 N :   -0.131926
  11 C :    0.298291
  12 C :   -0.101234
  13 C :   -0.613253
  14 C :   -0.609037
  15 N :   -0.021206
  16 C :   -0.110707
  17 O :   -0.439012
  18 C :    0.419039
  19 N :   -0.175151
  20 N :   -0.278416
  21 C :    0.397691
  22 C :   -0.636015
  23 O :   -0.053682
  24 N :   -0.132377
  25 H :    0.170313
  26 H :    0.172128
  27 H :    0.170542
  28 H :    0.227426
  29 H :    0.232497
  30 H :    0.208794
  31 H :    0.411078
  32 H :    0.200348
  33 H :    0.203742
  34 H :    0.194742
  35 H :    0.201761
  36 H :    0.192249
  37 H :    0.193993
  38 H :    0.286287
  39 H :    0.203123
  40 H :    0.205455
  41 H :    0.200421
Sum of atomic charges:    0.0000000

LOEWDIN ATOMIC CHARGES
----------------------
   0 C :   -0.046038
   1 O :   -0.599647
   2 C :    0.385357
   3 O :   -0.448932
   4 C :    0.119599
   5 C :    0.395097
   6 O :   -0.421047
   7 C :    0.373641
   8 C :   -0.315310
   9 O :   -0.349063
  10 N :   -0.530513
  11 C :    0.327600
  12 C :    0.104588
  13 C :   -0.334292
  14 C :   -0.338953
  15 N :   -0.570541
  16 C :    0.383018
  17 O :   -0.455389
  18 C :    0.414784
  19 N :   -0.333331
  20 N :   -0.358913
  21 C :    0.380006
  22 C :   -0.317045
  23 O :   -0.393423
  24 N :   -0.495780
  25 H :    0.178063
  26 H :    0.183132
  27 H :    0.178454
  28 H :    0.204087
  29 H :    0.215154
  30 H :    0.194134
  31 H :    0.326935
  32 H :    0.176159
  33 H :    0.184737
  34 H :    0.176555
  35 H :    0.180665
  36 H :    0.179108
  37 H :    0.175678
  38 H :    0.295913
  39 H :    0.192681
  40 H :    0.191451
  41 H :    0.191623

  Mayer bond orders larger than 0.100000
B(  0-C ,  1-O ) :   0.8396 B(  0-C , 25-H ) :   0.9595 B(  0-C , 26-H ) :   0.9655
B(  0-C , 27-H ) :   0.9594 B(  1-O ,  2-C ) :   1.1234 B(  2-C ,  3-O ) :   1.9012
B(  2-C ,  4-C ) :   1.0887 B(  4-C ,  5-C ) :   1.1052 B(  4-C , 24-N ) :   0.9272
B(  5-C ,  6-O ) :   2.0317 B(  5-C , 10-N ) :   0.5986 B(  5-C , 11-C ) :   0.1290
B(  7-C ,  8-C ) :   0.9561 B(  7-C ,  9-O ) :   2.0279 B(  7-C , 10-N ) :   0.7581
B(  8-C , 28-H ) :   0.9388 B(  8-C , 29-H ) :   0.8958 B(  8-C , 30-H ) :   0.9395
B( 10-N , 11-C ) :   0.9675 B( 10-N , 31-H ) :   0.7975 B( 11-C , 12-C ) :   0.8565
B( 11-C , 15-N ) :  -0.1511 B( 11-C , 24-N ) :   1.8381 B( 12-C , 13-C ) :   0.9016
B( 12-C , 14-C ) :   0.8800 B( 12-C , 15-N ) :   0.9237 B( 13-C , 32-H ) :   0.9607
B( 13-C , 33-H ) :   0.9546 B( 13-C , 34-H ) :   0.9409 B( 14-C , 35-H ) :   0.9635
B( 14-C , 36-H ) :   0.9561 B( 14-C , 37-H ) :   0.9717 B( 15-N , 16-C ) :   1.1644
B( 15-N , 38-H ) :   0.8832 B( 16-C , 17-O ) :   1.9079 B( 16-C , 18-C ) :   0.8412
B( 18-C , 19-N ) :   1.7093 B( 18-C , 21-C ) :   0.1048 B( 18-C , 23-O ) :   1.0692
B( 19-N , 20-N ) :   1.2714 B( 20-N , 21-C ) :   1.6306 B( 21-C , 22-C ) :   0.8315
B( 21-C , 23-O ) :   1.0668 B( 22-C , 39-H ) :   0.9383 B( 22-C , 40-H ) :   0.9885
B( 22-C , 41-H ) :   0.9452

Dispersion correction           -0.019510631
FINAL SINGLE POINT ENERGY     -1268.606425626062

DIPOLE MOMENT
-------------
                                X             Y             Z
Electronic contribution:      8.22686       2.54381       1.30628
Nuclear contribution   :     -9.02470      -0.74483       1.38397
                        -----------------------------------------
Total Dipole Moment    :     -0.79784       1.79897       2.69026
                        -----------------------------------------
Magnitude (a.u.)       :      3.33322
Magnitude (Debye)      :      8.47237

Rotational constants in cm-1:     0.014451     0.003744     0.003443
Rotational constants in MHz :   433.234202   112.245587   103.218467

                             ****ORCA TERMINATED NORMALLY****
TOTAL RUN TIME: 0 days 0 hours 2 minutes 32 seconds 79 msec
