   * xtb version 6.5.1 (579679a) compiled by 'ehlert@majestix' on 2022-07-11
          program call               : /lustre/hpc/kemi/ree/PhD/git/ReactivityQM/dep/xtb-6.5.1/bin/xtb --gfn 1 /lustre/hpc/kemi/ree/PhD/git/ReactivityQM/calculations/R02methylcation/reac01prodN14/conf05/R02methylcation_reac01prodN14_conf05_gfn1.xyz --opt --vfukui --chrg 0 --uhf 0 --alpb DMSO

   ID    Z sym.   atoms
    1    6 C      1, 3, 5, 6, 8, 9, 12-15, 17, 19, 22, 23
    2    8 O      2, 4, 7, 10, 18, 24
    3    7 N      11, 16, 20, 21, 25
    4    1 H      26-42

      * Solvation model:               ALPB
        Solvent                        DMSO
        Solvent mass                       7.8130E+01 g/mol
          :  Hamiltonian                  GFN1-xTB          :
 * total energy  :   -82.8960965 Eh     change       -0.2060574E-11 Eh
 * total energy  :   -82.9120028 Eh     change       -0.1590633E-01 Eh
 * total energy  :   -82.9211648 Eh     change       -0.9161937E-02 Eh
 * total energy  :   -82.9230634 Eh     change       -0.1898687E-02 Eh
 * total energy  :   -82.9250253 Eh     change       -0.1961839E-02 Eh
 * total energy  :   -82.9261966 Eh     change       -0.1171334E-02 Eh
 * total energy  :   -82.9273723 Eh     change       -0.1175699E-02 Eh
 * total energy  :   -82.9283037 Eh     change       -0.9314287E-03 Eh
 * total energy  :   -82.9290541 Eh     change       -0.7503967E-03 Eh
 * total energy  :   -82.9298503 Eh     change       -0.7961781E-03 Eh
 * total energy  :   -82.9812443 Eh     change       -0.1737424E-04 Eh
 * total energy  :   -82.9812540 Eh     change       -0.9673046E-05 Eh
 * total energy  :   -82.9812611 Eh     change       -0.7106544E-05 Eh
 * total energy  :   -82.9812699 Eh     change       -0.8780360E-05 Eh
 * total energy  :   -82.9812831 Eh     change       -0.1317694E-04 Eh
 * total energy  :   -82.9812991 Eh     change       -0.1601232E-04 Eh
 * total energy  :   -82.9813124 Eh     change       -0.1328376E-04 Eh
 * total energy  :   -82.9813203 Eh     change       -0.7939682E-05 Eh
 * total energy  :   -82.9813249 Eh     change       -0.4649560E-05 Eh
   *** GEOMETRY OPTIMIZATION CONVERGED AFTER 117 ITERATIONS ***

 final structure:
================
42
 xtb: 6.5.1 (579679a)
C           -5.86524023817246        2.52967018692781       -1.07980422142158
O           -4.60844244136408        2.07386052643093       -0.57763786742397
C           -3.92176661701409        1.23095475042166       -1.37103211862325
O           -4.32958613332158        0.87209651175729       -2.45783430430746
C           -2.66142627927458        0.81687600042259       -0.77453960925110
C           -2.14920970081828        1.17458963617772        0.46037975630580
O           -2.43479906258736        1.80938769771954        1.43818658294636
C           -0.51315679692891       -0.47101128810995        1.63885123525089
C           -1.74023653350270       -1.13695378284165        2.13125220217822
O            0.59119824694487       -0.55093632889025        2.07551791688592
N           -0.72383284562600        0.42054006251089        0.47445576112602
C           -0.75040782329108       -0.28814785154616       -0.83382895623867
C            0.34409450656780       -1.21927994865078       -1.27306359930559
C            0.05688883570770       -2.63540453975608       -0.74327004299494
C            0.38484664870283       -1.21309334015964       -2.80812616043368
N            1.62081243573649       -0.74053148710511       -0.73956804774225
C            2.79517069851431       -1.37061972970758       -0.95669527802599
O            2.94283667484550       -2.38923040670897       -1.61028740327409
C            3.93498241020867       -0.67531189470362       -0.30810092678741
N            5.18464541699852       -1.02034988813627       -0.32048896089798
N            5.85991382631023       -0.07954066072429        0.39734106851974
C            4.98098848088268        0.78266593429757        0.80406804894237
C            5.21082642505251        1.99517742053571        1.61884432713275
O            3.74261573880280        0.46426493706857        0.39216134045863
N           -1.81657882843532       -0.04099448425298       -1.47131276663493
H           -6.54176145695905        1.68439561607948       -1.23122261092869
H           -6.27309092857591        3.20704568942197       -0.33153226929226
H           -5.72799131161066        3.05538939048835       -2.02849609739050
H           -2.36114679930330       -1.47905643433145        1.30629491353559
H           -2.31004708687984       -0.39991907982652        2.70214066746917
H           -1.47140373420424       -1.96342397087112        2.78472558318220
H            0.00239736250035        1.13164584947924        0.49938758294533
H           -0.94513591856232       -2.93675785729618       -1.04288775596677
H            0.77939157770139       -3.33845489322133       -1.15416676895027
H            0.12649638290992       -2.65105358669131        0.34218116807656
H            1.11987565734152       -1.93198922345907       -3.16465675016873
H           -0.59727418671940       -1.48100778980122       -3.19469420670110
H            0.64936692079919       -0.21966675558883       -3.16588576536364
H            1.63064520999704        0.08611649244379       -0.16761173866100
H            4.68897382547663        1.90812630786977        2.57182073045684
H            6.27606651947699        2.12015837473797        1.79796593004636
H            4.81950092167628        2.86977483758534        1.10029941132506

          :  Hamiltonian                  GFN1-xTB          :
         :: total energy             -82.981324945294 Eh    ::
         :: gradient norm              0.000445488271 Eh/a0 ::
         :: HOMO-LUMO gap              2.507403667946 eV    ::
         :: SCC energy               -83.778517629653 Eh    ::
         :: -> Gsolv                  -0.063095185395 Eh    ::
         :: repulsion energy           0.824249592353 Eh    ::

    * Orbital Energies and Occupations

         #    Occupation            Energy/Eh            Energy/eV
      -------------------------------------------------------------
         1        2.0000           -0.8670194             -23.5928
       ...           ...                  ...                  ...
        55        2.0000           -0.5060536             -13.7704
        56        2.0000           -0.5053953             -13.7525
        57        2.0000           -0.5044749             -13.7275
        58        2.0000           -0.4925134             -13.4020
        59        2.0000           -0.4857206             -13.2171
        60        2.0000           -0.4804976             -13.0750
        61        2.0000           -0.4696203             -12.7790
        62        2.0000           -0.4659266             -12.6785
        63        2.0000           -0.4621753             -12.5764
        64        2.0000           -0.4584006             -12.4737
        65        2.0000           -0.4526184             -12.3164
        66        2.0000           -0.4504910             -12.2585
        67        2.0000           -0.4175636             -11.3625 (HOMO)
        68                         -0.3254182              -8.8551 (LUMO)
        69                         -0.3118351              -8.4855
        70                         -0.3014005              -8.2015
        71                         -0.2732564              -7.4357
        72                         -0.2569847              -6.9929
        73                         -0.1995044              -5.4288
        74                         -0.1665858              -4.5330
        75                         -0.1580621              -4.3011
        76                         -0.1420993              -3.8667
        77                         -0.1402509              -3.8164
        78                         -0.1328023              -3.6137
       ...                                ...                  ...
       134                          0.8272691              22.5111
      -------------------------------------------------------------
                  HL-Gap            0.0921454 Eh            2.5074 eV

Wiberg/Mayer (AO) data.
largest (>0.10) Wiberg bond orders for each atom

     #   Z sym  total        # sym  WBO       # sym  WBO       # sym  WBO
 ---------------------------------------------------------------------------
     1   6 C    3.880 --    27 H    0.986    26 H    0.981    28 H    0.981
                             2 O    0.906
     2   8 O    2.168 --     3 C    1.074     1 C    0.906     4 O    0.120
     3   6 C    3.864 --     4 O    1.614     5 C    1.084     2 O    1.074
     4   8 O    1.893 --     3 C    1.614     2 O    0.120
     5   6 C    3.886 --     6 C    1.352    25 N    1.109     3 C    1.084
                             7 O    0.139
     6   6 C    3.870 --     7 O    1.663     5 C    1.352    11 N    0.691
     7   8 O    2.014 --     6 C    1.663     5 C    0.139
     8   6 C    3.827 --    10 O    1.813     9 C    1.031    11 N    0.881
     9   6 C    3.982 --     8 C    1.031    31 H    0.972    29 H    0.964
                            30 H    0.930
    10   8 O    2.047 --     8 C    1.813
    11   7 N    3.548 --     8 C    0.881    32 H    0.864    12 C    0.853
                             6 C    0.691
    12   6 C    3.886 --    25 N    1.782    13 C    0.993    11 N    0.853
    13   6 C    3.936 --    12 C    0.993    15 C    0.982    14 C    0.970
                            16 N    0.928
    14   6 C    3.985 --    33 H    0.985    35 H    0.983    34 H    0.976
                            13 C    0.970
    15   6 C    3.986 --    38 H    0.985    37 H    0.984    13 C    0.982
                            36 H    0.981
    16   7 N    3.343 --    17 C    1.251    13 C    0.928    39 H    0.892
                            18 O    0.176
    17   6 C    3.915 --    18 O    1.588    16 N    1.251    19 C    0.993
    18   8 O    1.905 --    17 C    1.588    16 N    0.176
    19   6 C    3.873 --    20 N    1.623    24 O    1.047    17 C    0.993
    20   7 N    3.000 --    19 C    1.623    21 N    1.199
    21   7 N    2.981 --    22 C    1.610    20 N    1.199
    22   6 C    3.868 --    21 N    1.610    24 O    1.073    23 C    1.032
    23   6 C    3.986 --    22 C    1.032    41 H    0.982    42 H    0.964
                            40 H    0.961
    24   8 O    2.318 --    22 C    1.073    19 C    1.047
    25   7 N    3.069 --    12 C    1.782     5 C    1.109
    26   1 H    1.009 --     1 C    0.981
    27   1 H    1.012 --     1 C    0.986
    28   1 H    1.009 --     1 C    0.981
    29   1 H    0.994 --     9 C    0.964
    30   1 H    0.995 --     9 C    0.930
    31   1 H    0.994 --     9 C    0.972
    32   1 H    0.914 --    11 N    0.864
    33   1 H    1.002 --    14 C    0.985
    34   1 H    1.007 --    14 C    0.976
    35   1 H    1.003 --    14 C    0.983
    36   1 H    1.008 --    15 C    0.981
    37   1 H    1.008 --    15 C    0.984
    38   1 H    1.002 --    15 C    0.985
    39   1 H    0.944 --    16 N    0.892
    40   1 H    0.997 --    23 C    0.961
    41   1 H    0.998 --    23 C    0.982
    42   1 H    0.996 --    23 C    0.964
 ---------------------------------------------------------------------------

           -------------------------------------------------
          | TOTAL ENERGY              -82.981324945294 Eh   |
          | GRADIENT NORM               0.000445488271 Eh/α |
          | HOMO-LUMO GAP               2.507403667946 eV   |
           -------------------------------------------------

 * finished run on 2023/06/21 at 17:54:10.060
