                         Program Version 5.0.1 -  RELEASE  -
|  1> # ORCA input file
|  2> ! SP r2SCAN-3c CPCM
|  3>
|  4> %maxcore 1875.0
|  5> %pal nprocs 4 end
|  6> %cpcm smd true SMDsolvent "DMSO" end
|  7>
|  8> *xyz 0 1
|  9> C      -5.879418    2.508501   -1.073102
| 10> O      -4.620259    2.056678   -0.573095
| 11> C      -3.924570    1.228455   -1.374184
| 12> O      -4.328439    0.874814   -2.464221
| 13> C      -2.660715    0.822044   -0.780034
| 14> C      -2.145610    1.191197    0.450381
| 15> O      -2.427856    1.836276    1.422182
| 16> C      -0.516840   -0.450322    1.636285
| 17> C      -1.745715   -1.125005    2.113002
| 18> O       0.582029   -0.520289    2.088283
| 19> N      -0.719815    0.436952    0.467796
| 20> C      -0.747706   -0.279636   -0.835700
| 21> C       0.344764   -1.216442   -1.267874
| 22> C       0.053893   -2.627912   -0.727439
| 23> C       0.385436   -1.221845   -2.802885
| 24> N       1.622941   -0.737863   -0.737530
| 25> C       2.795547   -1.371149   -0.955551
| 26> O       2.939356   -2.391736   -1.606888
| 27> C       3.938918   -0.676605   -0.312620
| 28> N       5.190210   -1.014859   -0.343658
| 29> N       5.869083   -0.077778    0.375547
| 30> C       4.990637    0.775599    0.801598
| 31> C       5.224374    1.980876    1.625892
| 32> O       3.749093    0.455027    0.400960
| 33> N      -1.815687   -0.038825   -1.472846
| 34> H      -6.538170    1.657813   -1.267694
| 35> H      -6.309362    3.147418   -0.303726
| 36> H      -5.739996    3.074869   -1.997920
| 37> H      -2.361427   -1.457950    1.280546
| 38> H      -2.319592   -0.395937    2.690096
| 39> H      -1.479331   -1.958734    2.758131
| 40> H       0.007973    1.146417    0.491640
| 41> H      -0.949341   -2.928672   -1.023706
| 42> H       0.774054   -3.335874   -1.134040
| 43> H       0.124841   -2.635878    0.358045
| 44> H       1.120267   -1.943532   -3.154096
| 45> H      -0.596766   -1.492949   -3.187102
| 46> H       0.649894   -0.231238   -3.168518
| 47> H       1.635036    0.087369   -0.163553
| 48> H       4.683049    1.898445    2.568227
| 49> H       6.288076    2.088214    1.824660
| 50> H       4.857145    2.864065    1.103843
| 51> **                         ****END OF INPUT****

CARTESIAN COORDINATES (ANGSTROEM)
---------------------------------
  C     -5.879418    2.508501   -1.073102
  O     -4.620259    2.056678   -0.573095
  C     -3.924570    1.228455   -1.374184
  O     -4.328439    0.874814   -2.464221
  C     -2.660715    0.822044   -0.780034
  C     -2.145610    1.191197    0.450381
  O     -2.427856    1.836276    1.422182
  C     -0.516840   -0.450322    1.636285
  C     -1.745715   -1.125005    2.113002
  O      0.582029   -0.520289    2.088283
  N     -0.719815    0.436952    0.467796
  C     -0.747706   -0.279636   -0.835700
  C      0.344764   -1.216442   -1.267874
  C      0.053893   -2.627912   -0.727439
  C      0.385436   -1.221845   -2.802885
  N      1.622941   -0.737863   -0.737530
  C      2.795547   -1.371149   -0.955551
  O      2.939356   -2.391736   -1.606888
  C      3.938918   -0.676605   -0.312620
  N      5.190210   -1.014859   -0.343658
  N      5.869083   -0.077778    0.375547
  C      4.990637    0.775599    0.801598
  C      5.224374    1.980876    1.625892
  O      3.749093    0.455027    0.400960
  N     -1.815687   -0.038825   -1.472846
  H     -6.538170    1.657813   -1.267694
  H     -6.309362    3.147418   -0.303726
  H     -5.739996    3.074869   -1.997920
  H     -2.361427   -1.457950    1.280546
  H     -2.319592   -0.395937    2.690096
  H     -1.479331   -1.958734    2.758131
  H      0.007973    1.146417    0.491640
  H     -0.949341   -2.928672   -1.023706
  H      0.774054   -3.335874   -1.134040
  H      0.124841   -2.635878    0.358045
  H      1.120267   -1.943532   -3.154096
  H     -0.596766   -1.492949   -3.187102
  H      0.649894   -0.231238   -3.168518
  H      1.635036    0.087369   -0.163553
  H      4.683049    1.898445    2.568227
  H      6.288076    2.088214    1.824660
  H      4.857145    2.864065    1.103843

 Total Charge           Charge          ....    0
 Multiplicity           Mult            ....    1
 Number of Electrons    NEL             ....  184
 Basis Dimension        Dim             ....  615

ORBITAL ENERGIES
----------------

  NO   OCC          E(Eh)            E(eV)
   0   2.0000     -19.067582      -518.8553
   1   2.0000     -18.990032      -516.7451
   2   2.0000     -18.988976      -516.7163
   3   2.0000     -18.952001      -515.7102
   4   2.0000     -18.937252      -515.3088
   5   2.0000     -18.924348      -514.9577
   6   2.0000     -14.279075      -388.5534
   7   2.0000     -14.208716      -386.6388
   8   2.0000     -14.206386      -386.5754
   9   2.0000     -14.198442      -386.3592
  10   2.0000     -14.189593      -386.1185
  11   2.0000     -10.192688      -277.3571
  12   2.0000     -10.161440      -276.5068
  13   2.0000     -10.151904      -276.2473
  14   2.0000     -10.151249      -276.2295
  15   2.0000     -10.148676      -276.1595
  16   2.0000     -10.144535      -276.0468
  17   2.0000     -10.125715      -275.5347
  18   2.0000     -10.115350      -275.2527
  19   2.0000     -10.071976      -274.0724
  20   2.0000     -10.066776      -273.9309
  21   2.0000     -10.050719      -273.4940
  22   2.0000     -10.045901      -273.3629
  23   2.0000     -10.026467      -272.8340
  24   2.0000     -10.022140      -272.7163
  25   2.0000      -1.156900       -31.4809
  26   2.0000      -1.082450       -29.4550
  27   2.0000      -1.062777       -28.9196
  28   2.0000      -1.037819       -28.2405
  29   2.0000      -1.027251       -27.9529
  30   2.0000      -0.991134       -26.9701
  31   2.0000      -0.977225       -26.5916
  32   2.0000      -0.970721       -26.4147
  33   2.0000      -0.921225       -25.0678
  34   2.0000      -0.900775       -24.5113
  35   2.0000      -0.833473       -22.6800
  36   2.0000      -0.786255       -21.3951
  37   2.0000      -0.745443       -20.2845
  38   2.0000      -0.734312       -19.9817
  39   2.0000      -0.714385       -19.4394
  40   2.0000      -0.680550       -18.5187
  41   2.0000      -0.671502       -18.2725
  42   2.0000      -0.665249       -18.1023
  43   2.0000      -0.634229       -17.2583
  44   2.0000      -0.618850       -16.8398
  45   2.0000      -0.601764       -16.3748
  46   2.0000      -0.586133       -15.9495
  47   2.0000      -0.577101       -15.7037
  48   2.0000      -0.551873       -15.0172
  49   2.0000      -0.547317       -14.8933
  50   2.0000      -0.530895       -14.4464
  51   2.0000      -0.507212       -13.8019
  52   2.0000      -0.496533       -13.5114
  53   2.0000      -0.492239       -13.3945
  54   2.0000      -0.482652       -13.1336
  55   2.0000      -0.464643       -12.6436
  56   2.0000      -0.448564       -12.2060
  57   2.0000      -0.445275       -12.1165
  58   2.0000      -0.442899       -12.0519
  59   2.0000      -0.433379       -11.7929
  60   2.0000      -0.429372       -11.6838
  61   2.0000      -0.425278       -11.5724
  62   2.0000      -0.421720       -11.4756
  63   2.0000      -0.419139       -11.4054
  64   2.0000      -0.412792       -11.2326
  65   2.0000      -0.402251       -10.9458
  66   2.0000      -0.399998       -10.8845
  67   2.0000      -0.393542       -10.7088
  68   2.0000      -0.387392       -10.5415
  69   2.0000      -0.383589       -10.4380
  70   2.0000      -0.382023       -10.3954
  71   2.0000      -0.379791       -10.3346
  72   2.0000      -0.371165       -10.0999
  73   2.0000      -0.357601        -9.7308
  74   2.0000      -0.355998        -9.6872
  75   2.0000      -0.353994        -9.6327
  76   2.0000      -0.345888        -9.4121
  77   2.0000      -0.342833        -9.3290
  78   2.0000      -0.337839        -9.1931
  79   2.0000      -0.325563        -8.8590
  80   2.0000      -0.318302        -8.6614
  81   2.0000      -0.315700        -8.5906
  82   2.0000      -0.301416        -8.2020
  83   2.0000      -0.276512        -7.5243
  84   2.0000      -0.268712        -7.3120
  85   2.0000      -0.266432        -7.2500
  86   2.0000      -0.263882        -7.1806
  87   2.0000      -0.255583        -6.9548
  88   2.0000      -0.251147        -6.8341
  89   2.0000      -0.247514        -6.7352
  90   2.0000      -0.239598        -6.5198
  91   2.0000      -0.198087        -5.3902
  92   0.0000      -0.091974        -2.5027
  93   0.0000      -0.088344        -2.4040
  94   0.0000      -0.068977        -1.8770
  95   0.0000      -0.033942        -0.9236
  96   0.0000      -0.021383        -0.5819

MULLIKEN ATOMIC CHARGES
-----------------------
   0 C :   -0.319762
   1 O :   -0.166987
   2 C :    0.085790
   3 O :   -0.426110
   4 C :    0.161043
   5 C :    0.110093
   6 O :   -0.366713
   7 C :    0.277082
   8 C :   -0.511293
   9 O :   -0.329540
  10 N :   -0.133665
  11 C :    0.297356
  12 C :   -0.098812
  13 C :   -0.615423
  14 C :   -0.609352
  15 N :   -0.022592
  16 C :   -0.109719
  17 O :   -0.439172
  18 C :    0.419018
  19 N :   -0.175242
  20 N :   -0.278401
  21 C :    0.398015
  22 C :   -0.636087
  23 O :   -0.053449
  24 N :   -0.132417
  25 H :    0.170388
  26 H :    0.172142
  27 H :    0.170366
  28 H :    0.227400
  29 H :    0.232738
  30 H :    0.209086
  31 H :    0.410568
  32 H :    0.200597
  33 H :    0.203674
  34 H :    0.195242
  35 H :    0.201907
  36 H :    0.192320
  37 H :    0.194066
  38 H :    0.286868
  39 H :    0.202306
  40 H :    0.205552
  41 H :    0.201120
Sum of atomic charges:   -0.0000000

LOEWDIN ATOMIC CHARGES
----------------------
   0 C :   -0.046023
   1 O :   -0.599747
   2 C :    0.385409
   3 O :   -0.448847
   4 C :    0.119438
   5 C :    0.395023
   6 O :   -0.419815
   7 C :    0.372878
   8 C :   -0.315432
   9 O :   -0.348683
  10 N :   -0.531072
  11 C :    0.327013
  12 C :    0.104534
  13 C :   -0.334121
  14 C :   -0.338924
  15 N :   -0.570572
  16 C :    0.383097
  17 O :   -0.455466
  18 C :    0.414774
  19 N :   -0.333256
  20 N :   -0.358907
  21 C :    0.380037
  22 C :   -0.317025
  23 O :   -0.393302
  24 N :   -0.495653
  25 H :    0.178404
  26 H :    0.183154
  27 H :    0.178083
  28 H :    0.203951
  29 H :    0.215006
  30 H :    0.194402
  31 H :    0.326840
  32 H :    0.176236
  33 H :    0.184670
  34 H :    0.176564
  35 H :    0.180959
  36 H :    0.179105
  37 H :    0.175695
  38 H :    0.295791
  39 H :    0.192375
  40 H :    0.191473
  41 H :    0.191934

  Mayer bond orders larger than 0.100000
B(  0-C ,  1-O ) :   0.8396 B(  0-C , 25-H ) :   0.9600 B(  0-C , 26-H ) :   0.9655
B(  0-C , 27-H ) :   0.9589 B(  1-O ,  2-C ) :   1.1230 B(  2-C ,  3-O ) :   1.9013
B(  2-C ,  4-C ) :   1.0896 B(  4-C ,  5-C ) :   1.1054 B(  4-C , 24-N ) :   0.9280
B(  5-C ,  6-O ) :   2.0323 B(  5-C , 10-N ) :   0.5962 B(  5-C , 11-C ) :   0.1286
B(  7-C ,  8-C ) :   0.9541 B(  7-C ,  9-O ) :   2.0307 B(  7-C , 10-N ) :   0.7600
B(  8-C , 28-H ) :   0.9393 B(  8-C , 29-H ) :   0.8955 B(  8-C , 30-H ) :   0.9385
B( 10-N , 11-C ) :   0.9667 B( 10-N , 31-H ) :   0.7982 B( 11-C , 12-C ) :   0.8569
B( 11-C , 15-N ) :  -0.1515 B( 11-C , 24-N ) :   1.8371 B( 12-C , 13-C ) :   0.9015
B( 12-C , 14-C ) :   0.8789 B( 12-C , 15-N ) :   0.9246 B( 13-C , 32-H ) :   0.9604
B( 13-C , 33-H ) :   0.9544 B( 13-C , 34-H ) :   0.9406 B( 14-C , 35-H ) :   0.9636
B( 14-C , 36-H ) :   0.9560 B( 14-C , 37-H ) :   0.9717 B( 15-N , 16-C ) :   1.1644
B( 15-N , 38-H ) :   0.8826 B( 16-C , 17-O ) :   1.9072 B( 16-C , 18-C ) :   0.8417
B( 18-C , 19-N ) :   1.7090 B( 18-C , 21-C ) :   0.1048 B( 18-C , 23-O ) :   1.0695
B( 19-N , 20-N ) :   1.2716 B( 20-N , 21-C ) :   1.6304 B( 21-C , 22-C ) :   0.8314
B( 21-C , 23-O ) :   1.0665 B( 22-C , 39-H ) :   0.9401 B( 22-C , 40-H ) :   0.9888
B( 22-C , 41-H ) :   0.9431

Dispersion correction           -0.019519638
FINAL SINGLE POINT ENERGY     -1268.606598964865

DIPOLE MOMENT
-------------
                                X             Y             Z
Electronic contribution:      8.25660       2.63703       1.24837
Nuclear contribution   :     -9.05160      -0.86419       1.46092
                        -----------------------------------------
Total Dipole Moment    :     -0.79500       1.77283       2.70929
                        -----------------------------------------
Magnitude (a.u.)       :      3.33395
Magnitude (Debye)      :      8.47422

Rotational constants in cm-1:     0.014510     0.003740     0.003436
Rotational constants in MHz :   434.984282   112.117741   103.017254

                             ****ORCA TERMINATED NORMALLY****
TOTAL RUN TIME: 0 days 0 hours 1 minutes 38 seconds 699 msec
