   * xtb version 6.5.1 (579679a) compiled by 'ehlert@majestix' on 2022-07-11
          program call               : /lustre/hpc/kemi/ree/PhD/git/ReactivityQM/dep/xtb-6.5.1/bin/xtb --gfn 1 /lustre/hpc/kemi/ree/PhD/git/ReactivityQM/calculations/R02oxygendeprot/reac01prodN14/conf05/R02oxygendeprot_reac01prodN14_conf05_gfn1.xyz --opt --vfukui --chrg 0 --uhf 0 --alpb DMSO

   ID    Z sym.   atoms
    1    6 C      1, 3, 5, 6, 8, 9, 12-15, 17, 19, 22, 23
    2    8 O      2, 4, 7, 10, 18, 24
    3    7 N      11, 16, 20, 21, 25
    4    1 H      26-42

      * Solvation model:               ALPB
        Solvent                        DMSO
        Solvent mass                       7.8130E+01 g/mol
          :  Hamiltonian                  GFN1-xTB          :
 * total energy  :   -82.8960966 Eh     change       -0.2046363E-11 Eh
 * total energy  :   -82.9120030 Eh     change       -0.1590646E-01 Eh
 * total energy  :   -82.9211649 Eh     change       -0.9161892E-02 Eh
 * total energy  :   -82.9230636 Eh     change       -0.1898676E-02 Eh
 * total energy  :   -82.9250254 Eh     change       -0.1961826E-02 Eh
 * total energy  :   -82.9261968 Eh     change       -0.1171347E-02 Eh
 * total energy  :   -82.9273724 Eh     change       -0.1175691E-02 Eh
 * total energy  :   -82.9283039 Eh     change       -0.9314215E-03 Eh
 * total energy  :   -82.9290543 Eh     change       -0.7503878E-03 Eh
 * total energy  :   -82.9298504 Eh     change       -0.7961769E-03 Eh
 * total energy  :   -82.9812389 Eh     change       -0.1404547E-04 Eh
 * total energy  :   -82.9812577 Eh     change       -0.1877632E-04 Eh
 * total energy  :   -82.9812751 Eh     change       -0.1743749E-04 Eh
 * total energy  :   -82.9812891 Eh     change       -0.1393631E-04 Eh
 * total energy  :   -82.9813024 Eh     change       -0.1328661E-04 Eh
 * total energy  :   -82.9813132 Eh     change       -0.1080676E-04 Eh
 * total energy  :   -82.9813198 Eh     change       -0.6610019E-05 Eh
 * total energy  :   -82.9813252 Eh     change       -0.5442795E-05 Eh
 * total energy  :   -82.9813273 Eh     change       -0.2039545E-05 Eh
   *** GEOMETRY OPTIMIZATION CONVERGED AFTER 122 ITERATIONS ***

 final structure:
================
42
 xtb: 6.5.1 (579679a)
C           -5.87941750137209        2.50850112107816       -1.07310186280801
O           -4.62025919732261        2.05667813312784       -0.57309514288149
C           -3.92457016485086        1.22845474523547       -1.37418443923027
O           -4.32843937245329        0.87481429867714       -2.46422113420884
C           -2.66071532125710        0.82204424436211       -0.78003420646491
C           -2.14560963789318        1.19119661777732        0.45038084876651
O           -2.42785633657237        1.83627588562119        1.42218151357340
C           -0.51683970710174       -0.45032155366617        1.63628535652749
C           -1.74571461296557       -1.12500509140567        2.11300205483538
O            0.58202858364706       -0.52028925776544        2.08828299131161
N           -0.71981496305808        0.43695156154686        0.46779559523654
C           -0.74770641801104       -0.27963566712581       -0.83570011435168
C            0.34476350806446       -1.21644217739039       -1.26787396742748
C            0.05389286602005       -2.62791182576745       -0.72743851915026
C            0.38543627726503       -1.22184515342458       -2.80288545920551
N            1.62294103540560       -0.73786334043057       -0.73752950996403
C            2.79554698341092       -1.37114925543823       -0.95555130185235
O            2.93935579911278       -2.39173566018540       -1.60688789592535
C            3.93891784170179       -0.67660474498460       -0.31261991794290
N            5.19021045190457       -1.01485851049042       -0.34365786401267
N            5.86908300497531       -0.07777780286701        0.37554694798540
C            4.99063679175785        0.77559879131672        0.80159834735879
C            5.22437444476379        1.98087583159735        1.62589180548643
O            3.74909332356957        0.45502683212678        0.40096015137336
N           -1.81568743327895       -0.03882492211535       -1.47284646786669
H           -6.53816950043990        1.65781267732332       -1.26769392235438
H           -6.30936228372816        3.14741848011502       -0.30372643856570
H           -5.73999638032764        3.07486898824284       -1.99792007293507
H           -2.36142681490841       -1.45794953294386        1.28054555053282
H           -2.31959246117381       -0.39593698150244        2.69009563398280
H           -1.47933085910573       -1.95873354792431        2.75813081611315
H            0.00797302891961        1.14641732699571        0.49163996137298
H           -0.94934123062340       -2.92867245535527       -1.02370580064304
H            0.77405379867117       -3.33587351997436       -1.13403985421276
H            0.12484107630525       -2.63587751235303        0.35804543199054
H            1.12026720250659       -1.94353234820503       -3.15409579939816
H           -0.59676567279933       -1.49294866137619       -3.18710239878436
H            0.64989402800640       -0.23123800203912       -3.16851849500411
H            1.63503639611205        0.08736869280427       -0.16355335433968
H            4.68304885872376        1.89844481866557        2.56822698161273
H            6.28807561413710        2.08821416885611        1.82466045561187
H            4.85714495426701        2.86406530925395        1.10384349586104

          :  Hamiltonian                  GFN1-xTB          :
         :: total energy             -82.981327261340 Eh    ::
         :: gradient norm              0.000256232628 Eh/a0 ::
         :: HOMO-LUMO gap              2.508813497308 eV    ::
         :: SCC energy               -83.778411025685 Eh    ::
         :: -> Gsolv                  -0.063069012666 Eh    ::
         :: repulsion energy           0.824153992227 Eh    ::

    * Orbital Energies and Occupations

         #    Occupation            Energy/Eh            Energy/eV
      -------------------------------------------------------------
         1        2.0000           -0.8670431             -23.5934
       ...           ...                  ...                  ...
        55        2.0000           -0.5061218             -13.7723
        56        2.0000           -0.5054104             -13.7529
        57        2.0000           -0.5045217             -13.7287
        58        2.0000           -0.4925541             -13.4031
        59        2.0000           -0.4857410             -13.2177
        60        2.0000           -0.4805380             -13.0761
        61        2.0000           -0.4696622             -12.7802
        62        2.0000           -0.4659715             -12.6797
        63        2.0000           -0.4622342             -12.5780
        64        2.0000           -0.4584556             -12.4752
        65        2.0000           -0.4526593             -12.3175
        66        2.0000           -0.4505535             -12.2602
        67        2.0000           -0.4176040             -11.3636 (HOMO)
        68                         -0.3254068              -8.8548 (LUMO)
        69                         -0.3119178              -8.4877
        70                         -0.3014529              -8.2030
        71                         -0.2732700              -7.4361
        72                         -0.2570250              -6.9940
        73                         -0.1995723              -5.4306
        74                         -0.1666283              -4.5342
        75                         -0.1582051              -4.3050
        76                         -0.1421085              -3.8670
        77                         -0.1402826              -3.8173
        78                         -0.1328665              -3.6155
       ...                                ...                  ...
       134                          0.8277185              22.5234
      -------------------------------------------------------------
                  HL-Gap            0.0921972 Eh            2.5088 eV

Wiberg/Mayer (AO) data.
largest (>0.10) Wiberg bond orders for each atom

     #   Z sym  total        # sym  WBO       # sym  WBO       # sym  WBO
 ---------------------------------------------------------------------------
     1   6 C    3.880 --    27 H    0.986    26 H    0.981    28 H    0.981
                             2 O    0.906
     2   8 O    2.168 --     3 C    1.073     1 C    0.906     4 O    0.120
     3   6 C    3.864 --     4 O    1.614     5 C    1.084     2 O    1.073
     4   8 O    1.893 --     3 C    1.614     2 O    0.120
     5   6 C    3.886 --     6 C    1.352    25 N    1.109     3 C    1.084
                             7 O    0.139
     6   6 C    3.870 --     7 O    1.664     5 C    1.352    11 N    0.690
     7   8 O    2.014 --     6 C    1.664     5 C    0.139
     8   6 C    3.828 --    10 O    1.813     9 C    1.031    11 N    0.882
     9   6 C    3.982 --     8 C    1.031    31 H    0.972    29 H    0.965
                            30 H    0.930
    10   8 O    2.047 --     8 C    1.813
    11   7 N    3.548 --     8 C    0.882    32 H    0.864    12 C    0.854
                             6 C    0.690
    12   6 C    3.886 --    25 N    1.782    13 C    0.993    11 N    0.854
    13   6 C    3.936 --    12 C    0.993    15 C    0.982    14 C    0.970
                            16 N    0.928
    14   6 C    3.985 --    33 H    0.985    35 H    0.983    34 H    0.976
                            13 C    0.970
    15   6 C    3.986 --    38 H    0.985    37 H    0.984    13 C    0.982
                            36 H    0.981
    16   7 N    3.342 --    17 C    1.251    13 C    0.928    39 H    0.892
                            18 O    0.175
    17   6 C    3.915 --    18 O    1.588    16 N    1.251    19 C    0.993
    18   8 O    1.905 --    17 C    1.588    16 N    0.175
    19   6 C    3.873 --    20 N    1.622    24 O    1.047    17 C    0.993
    20   7 N    3.000 --    19 C    1.622    21 N    1.199
    21   7 N    2.981 --    22 C    1.610    20 N    1.199
    22   6 C    3.868 --    21 N    1.610    24 O    1.073    23 C    1.032
    23   6 C    3.986 --    22 C    1.032    41 H    0.982    42 H    0.963
                            40 H    0.962
    24   8 O    2.318 --    22 C    1.073    19 C    1.047
    25   7 N    3.069 --    12 C    1.782     5 C    1.109
    26   1 H    1.009 --     1 C    0.981
    27   1 H    1.012 --     1 C    0.986
    28   1 H    1.009 --     1 C    0.981
    29   1 H    0.994 --     9 C    0.965
    30   1 H    0.994 --     9 C    0.930
    31   1 H    0.994 --     9 C    0.972
    32   1 H    0.914 --    11 N    0.864
    33   1 H    1.002 --    14 C    0.985
    34   1 H    1.007 --    14 C    0.976
    35   1 H    1.003 --    14 C    0.983
    36   1 H    1.008 --    15 C    0.981
    37   1 H    1.008 --    15 C    0.984
    38   1 H    1.002 --    15 C    0.985
    39   1 H    0.944 --    16 N    0.892
    40   1 H    0.996 --    23 C    0.962
    41   1 H    0.998 --    23 C    0.982
    42   1 H    0.996 --    23 C    0.963
 ---------------------------------------------------------------------------

           -------------------------------------------------
          | TOTAL ENERGY              -82.981327261340 Eh   |
          | GRADIENT NORM               0.000256232628 Eh/α |
          | HOMO-LUMO GAP               2.508813497308 eV   |
           -------------------------------------------------

 * finished run on 2023/06/21 at 17:33:35.888
