   * xtb version 6.5.1 (579679a) compiled by 'ehlert@majestix' on 2022-07-11
          program call               : /lustre/hpc/kemi/ree/PhD/git/ReactivityQM/dep/xtb-6.5.1/bin/xtb --gfn 1 /lustre/hpc/kemi/ree/PhD/git/ReactivityQM/calculations/R03/reac02prodE14/conf07/R03_reac02prodE14_conf07_gfn1.xyz --opt --vfukui --chrg -1 --uhf 0 --alpb DMSO

   ID    Z sym.   atoms
    1    6 C      1, 3, 5, 7-10, 12, 14, 17, 18, 21, 22, 24, 25
    2    8 O      2, 4, 13, 19, 23, 26
    3    7 N      6, 11, 15, 16, 20
    4    1 H      27-46

      * Solvation model:               ALPB
        Solvent                        DMSO
        Solvent mass                       7.8130E+01 g/mol
          :  Hamiltonian                  GFN1-xTB          :
 * total energy  :   -87.0488621 Eh     change       -0.7952394E-10 Eh
 * total energy  :   -87.0634741 Eh     change       -0.1461203E-01 Eh
 * total energy  :   -87.0689463 Eh     change       -0.5472175E-02 Eh
 * total energy  :   -87.0699390 Eh     change       -0.9927032E-03 Eh
 * total energy  :   -87.0705134 Eh     change       -0.5744079E-03 Eh
 * total energy  :   -87.0707117 Eh     change       -0.1982954E-03 Eh
 * total energy  :   -87.0708701 Eh     change       -0.1583452E-03 Eh
 * total energy  :   -87.0709940 Eh     change       -0.1239076E-03 Eh
 * total energy  :   -87.0710881 Eh     change       -0.9410168E-04 Eh
 * total energy  :   -87.0711498 Eh     change       -0.6168653E-04 Eh
 * total energy  :   -87.0728080 Eh     change       -0.2694104E-04 Eh
 * total energy  :   -87.0728281 Eh     change       -0.2008193E-04 Eh
 * total energy  :   -87.0728444 Eh     change       -0.1629315E-04 Eh
 * total energy  :   -87.0728569 Eh     change       -0.1250163E-04 Eh
 * total energy  :   -87.0728654 Eh     change       -0.8469430E-05 Eh
 * total energy  :   -87.0728727 Eh     change       -0.7368950E-05 Eh
 * total energy  :   -87.0728792 Eh     change       -0.6515578E-05 Eh
 * total energy  :   -87.0728844 Eh     change       -0.5155667E-05 Eh
 * total energy  :   -87.0728888 Eh     change       -0.4399787E-05 Eh
   *** GEOMETRY OPTIMIZATION CONVERGED AFTER 66 ITERATIONS ***

 final structure:
================
46
 xtb: 6.5.1 (579679a)
C           -5.13810812057014        1.86043451667843       -2.42968701247751
O           -3.96981552461188        1.22120625596142       -1.94915715422361
C           -3.98086508699625        0.91471801772824       -0.59192008828274
O           -4.99815852593211        1.18940339092316        0.08287849716084
C           -2.82163334620644        0.28803237330015       -0.12705844974526
N           -1.74586158558156        0.12179731047304       -0.95386282096438
C           -0.70488526752366       -0.54014306843090       -0.59496998558065
C            0.48769897117822       -0.50960342308258       -1.53917553881761
C            0.43327692853165       -1.64672750427727       -2.56937552913492
C            0.47983016168056        0.83080116908811       -2.29448013901832
N            1.75509301086564       -0.61791624641104       -0.80442505309920
C            2.11241693703901        0.24400050798319        0.16721285027669
O            1.40888534030024        1.12259509082415        0.63562984302476
C            3.50211316341143       -0.02156143980511        0.63353288946633
N            4.29127587818791       -0.96155904409412        0.20620119862887
N            5.46187489979126       -0.83552153573024        0.89495938342542
C            5.31133708278665        0.17423920228900        1.69705342483856
C            6.30004987262411        0.72012713314680        2.65286740417307
O            4.09562751608778        0.72887286210850        1.58084518276837
N           -0.69219655559952       -1.30588438967757        0.60573930937421
C            0.23884787863817       -2.41487583068613        0.79416594711260
C           -1.72034681100678       -1.22022848896536        1.50137571297814
O           -1.87334033729302       -2.05764040771014        2.38906729217881
C           -2.62476617056177        0.01164587263302        1.35255433493745
C           -1.89720619765829        1.20021434651315        2.03401465657585
O           -3.84126694025677       -0.24518493839590        2.02521748402720
H           -6.02176918476940        1.22523422036784       -2.29490400449376
H           -4.98739151028988        2.04879221459493       -3.49344639403163
H           -5.31065743524846        2.81205569840502       -1.91291994071405
H           -0.52064652231924       -1.60694235027385       -3.09362714575631
H            0.52998089098594       -2.62265820012518       -2.09936154977032
H            1.23706913905482       -1.53311232026832       -3.29518643888217
H            0.49392069710764        1.66291133370906       -1.59214394060674
H            1.35107003481236        0.89528213994076       -2.94373202202594
H           -0.42471628438264        0.89849479295741       -2.89717806307508
H            2.45938351310421       -1.23946421320997       -1.16700353140217
H            5.92174236431737        0.63766726232987        3.67183083728817
H            6.47873471153707        1.77445433754656        2.44342748919947
H            7.23237584096187        0.16803721748152        2.56636651854100
H            0.53326813133901       -2.83812859949024       -0.16099133033712
H           -0.25226099454366       -3.19055393450681        1.38513744592066
H            1.13159198558345       -2.07990774728062        1.32556548704423
H           -0.93025202249563        1.36494966482324        1.56088515831234
H           -2.50396927807253        2.09874660894548        1.93331902845775
H           -1.75023948642961        0.98670084819859        3.09229529118866
H           -4.53711476158333        0.28619529346922        1.57246446554268

          :  Hamiltonian                  GFN1-xTB          :
         :: total energy             -87.072888794564 Eh    ::
         :: gradient norm              0.000594966172 Eh/a0 ::
         :: HOMO-LUMO gap              0.650296314265 eV    ::
         :: SCC energy               -87.866674304616 Eh    ::
         :: -> Gsolv                  -0.123025894677 Eh    ::
         :: repulsion energy           0.824352505319 Eh    ::

    * Orbital Energies and Occupations

         #    Occupation            Energy/Eh            Energy/eV
      -------------------------------------------------------------
         1        2.0000           -0.8595205             -23.3887
       ...           ...                  ...                  ...
        59        2.0000           -0.4702903             -12.7972
        60        2.0000           -0.4649612             -12.6522
        61        2.0000           -0.4571633             -12.4400
        62        2.0000           -0.4544243             -12.3655
        63        2.0000           -0.4464672             -12.1490
        64        2.0000           -0.4454862             -12.1223
        65        2.0000           -0.4413221             -12.0090
        66        2.0000           -0.4353814             -11.8473
        67        2.0000           -0.4210124             -11.4563
        68        2.0000           -0.4144852             -11.2787
        69        2.0000           -0.4008822             -10.9086
        70        2.0000           -0.3850737             -10.4784
        71        2.0000           -0.3279456              -8.9239 (HOMO)
        72        0.0000           -0.3040476              -8.2736 (LUMO)
        73                         -0.2534742              -6.8974
        74                         -0.2434669              -6.6251
        75                         -0.2016464              -5.4871
        76                         -0.1926048              -5.2410
        77                         -0.1434106              -3.9024
        78                         -0.1409450              -3.8353
        79                         -0.1272359              -3.4623
        80                         -0.1169866              -3.1834
        81                         -0.1128699              -3.0713
        82                         -0.1066161              -2.9012
       ...                                ...                  ...
       144                          0.7311208              19.8948
      -------------------------------------------------------------
                  HL-Gap            0.0238979 Eh            0.6503 eV

Wiberg/Mayer (AO) data.
largest (>0.10) Wiberg bond orders for each atom

     #   Z sym  total        # sym  WBO       # sym  WBO       # sym  WBO
 ---------------------------------------------------------------------------
     1   6 C    3.911 --    28 H    0.987    29 H    0.981    27 H    0.981
                             2 O    0.941
     2   8 O    2.089 --     3 C    0.967     1 C    0.941
     3   6 C    3.869 --     4 O    1.428     5 C    1.334     2 O    0.967
     4   8 O    1.819 --     3 C    1.428     5 C    0.108
     5   6 C    3.863 --     3 C    1.334     6 N    1.195    24 C    0.962
                             4 O    0.108     7 C    0.102
     6   7 N    3.062 --     7 C    1.621     5 C    1.195
     7   6 C    3.909 --     6 N    1.621    20 N    0.989     8 C    0.976
                             5 C    0.102
     8   6 C    3.926 --     9 C    0.989    10 C    0.987     7 C    0.976
                            11 N    0.913
     9   6 C    3.990 --     8 C    0.989    32 H    0.984    30 H    0.984
                            31 H    0.977
    10   6 C    3.993 --    34 H    0.987     8 C    0.987    35 H    0.983
                            33 H    0.982
    11   7 N    3.358 --    12 C    1.265     8 C    0.913    36 H    0.900
                            13 O    0.181
    12   6 C    3.921 --    13 O    1.586    11 N    1.265    14 C    0.984
    13   8 O    1.905 --    12 C    1.586    11 N    0.181
    14   6 C    3.872 --    15 N    1.614    19 O    1.063    12 C    0.984
    15   7 N    3.013 --    14 C    1.614    16 N    1.196
    16   7 N    2.980 --    17 C    1.609    15 N    1.196
    17   6 C    3.872 --    16 N    1.609    19 O    1.082    18 C    1.031
    18   6 C    3.987 --    17 C    1.031    39 H    0.983    38 H    0.965
                            37 H    0.963
    19   8 O    2.328 --    17 C    1.082    14 C    1.063
    20   7 N    3.411 --    22 C    1.209     7 C    0.989    21 C    0.948
                            23 O    0.140
    21   6 C    3.953 --    42 H    0.983    40 H    0.979    41 H    0.976
                            20 N    0.948
    22   6 C    3.887 --    23 O    1.573    20 N    1.209    24 C    0.937
    23   8 O    1.867 --    22 C    1.573    20 N    0.140
    24   6 C    3.921 --    26 O    0.964     5 C    0.962    25 C    0.956
                            22 C    0.937
    25   6 C    3.996 --    45 H    0.987    44 H    0.985    43 H    0.985
                            24 C    0.956
    26   8 O    1.881 --    24 C    0.964    46 H    0.813
    27   1 H    1.018 --     1 C    0.981
    28   1 H    1.019 --     1 C    0.987
    29   1 H    1.018 --     1 C    0.981
    30   1 H    1.007 --     9 C    0.984
    31   1 H    1.007 --     9 C    0.977
    32   1 H    1.000 --     9 C    0.984
    33   1 H    1.016 --    10 C    0.982
    34   1 H    1.004 --    10 C    0.987
    35   1 H    1.021 --    10 C    0.983
    36   1 H    0.955 --    11 N    0.900
    37   1 H    0.997 --    18 C    0.963
    38   1 H    0.997 --    18 C    0.965
    39   1 H    0.999 --    18 C    0.983
    40   1 H    1.012 --    21 C    0.979
    41   1 H    1.015 --    21 C    0.976
    42   1 H    1.013 --    21 C    0.983
    43   1 H    1.019 --    25 C    0.985
    44   1 H    1.011 --    25 C    0.985
    45   1 H    1.009 --    25 C    0.987
    46   1 H    0.898 --    26 O    0.813
 ---------------------------------------------------------------------------

           -------------------------------------------------
          | TOTAL ENERGY              -87.072888794564 Eh   |
          | GRADIENT NORM               0.000594966172 Eh/α |
          | HOMO-LUMO GAP               0.650296314265 eV   |
           -------------------------------------------------

 * finished run on 2023/06/20 at 15:34:39.855
