   * xtb version 6.5.1 (579679a) compiled by 'ehlert@majestix' on 2022-07-11
          program call               : /lustre/hpc/kemi/ree/PhD/git/ReactivityQM/dep/xtb-6.5.1/bin/xtb --gfn 1 /lustre/hpc/kemi/ree/PhD/git/ReactivityQM/calculations/R02methylcation/reac01prodN08/conf04/R02methylcation_reac01prodN08_conf04_gfn1.xyz --opt --vfukui --chrg 0 --uhf 0 --alpb DMSO

   ID    Z sym.   atoms
    1    6 C      1, 3, 5, 7-10, 12, 14, 17, 18, 21, 23, 25
    2    8 O      2, 4, 13, 19, 22, 24
    3    7 N      6, 11, 15, 16, 20
    4    1 H      26-42

      * Solvation model:               ALPB
        Solvent                        DMSO
        Solvent mass                       7.8130E+01 g/mol
          :  Hamiltonian                  GFN1-xTB          :
 * total energy  :   -82.9996585 Eh     change       -0.1088551E-10 Eh
 * total energy  :   -83.0128509 Eh     change       -0.1319234E-01 Eh
 * total energy  :   -83.0170109 Eh     change       -0.4160042E-02 Eh
 * total energy  :   -83.0180220 Eh     change       -0.1011147E-02 Eh
 * total energy  :   -83.0187440 Eh     change       -0.7219685E-03 Eh
 * total energy  :   -83.0191516 Eh     change       -0.4076244E-03 Eh
 * total energy  :   -83.0194545 Eh     change       -0.3028293E-03 Eh
 * total energy  :   -83.0196779 Eh     change       -0.2234317E-03 Eh
 * total energy  :   -83.0198106 Eh     change       -0.1327228E-03 Eh
 * total energy  :   -83.0198722 Eh     change       -0.6159242E-04 Eh
 * total energy  :   -83.0205360 Eh     change       -0.1551112E-04 Eh
 * total energy  :   -83.0205511 Eh     change       -0.1506414E-04 Eh
 * total energy  :   -83.0205729 Eh     change       -0.2176856E-04 Eh
 * total energy  :   -83.0205837 Eh     change       -0.1080741E-04 Eh
 * total energy  :   -83.0205907 Eh     change       -0.6999791E-05 Eh
 * total energy  :   -83.0205975 Eh     change       -0.6833561E-05 Eh
 * total energy  :   -83.0206048 Eh     change       -0.7239885E-05 Eh
 * total energy  :   -83.0206108 Eh     change       -0.6090732E-05 Eh
 * total energy  :   -83.0206146 Eh     change       -0.3793088E-05 Eh
   *** GEOMETRY OPTIMIZATION CONVERGED AFTER 41 ITERATIONS ***

 final structure:
================
42
 xtb: 6.5.1 (579679a)
C            5.20173224762208        0.88267193265068        2.10775676902646
O            3.99468191686777        0.69197485053031        1.36613306134828
C            3.91494214059730       -0.42882588095202        0.64273969214756
O            4.80336941660708       -1.24801841948657        0.60364195961328
C            2.61653762785372       -0.52192192910079       -0.08880461993954
N            1.74172525852598        0.50557997500164        0.14933152583880
C            0.59443843559496        0.51108127547696       -0.43529819869462
C           -0.36587195457219        1.65854975726661       -0.21284423550773
C           -0.00576111988279        2.40010840172558        1.07814810758781
C           -0.27803048866024        2.58878401260839       -1.43296676500424
N           -1.71574351446931        1.09243470138174       -0.10639740335925
C           -2.82217886528726        1.85456447670688        0.04927633523526
O           -2.85236873252651        3.07272344748800        0.02488189725436
C           -4.04763336780521        1.04009421872429        0.24202221305704
N           -5.25943467336933        1.46167334273870        0.42984711573056
N           -6.04613542154543        0.35641051727330        0.55414047644205
C           -5.26629787671120       -0.67296152945116        0.43578463857042
C           -5.63851653582423       -2.10369726097394        0.47764348365776
O           -3.98799445308244       -0.30982412734946        0.23865317280957
N            0.23317522954687       -0.46662457053056       -1.31390435065863
C            1.01844450389999       -1.55478804944243       -1.63799748908126
O            0.61157487589137       -2.38178248308569       -2.44020772336189
C            2.30810813470066       -1.56121274621289       -0.94071951654622
O            3.19866086589826       -2.54354348163841       -1.11723240199089
C            2.95362586819011       -3.67645137001218       -1.95052493804813
H            6.05822159222457        0.92077572593198        1.42993696636795
H            5.09694522198894        1.82782659277525        2.63657282526681
H            5.34042258892539        0.06434851816480        2.81872579860390
H           -0.08159889605336        1.72356807897777        1.92783090980553
H           -0.67957367904142        3.24200981658421        1.22530632588474
H            1.01769124591163        2.76571252607120        1.01006179677395
H            0.75033410564006        2.92664844458338       -1.55240529207997
H           -0.58283933075263        2.05393228978647       -2.33044270008571
H           -0.92262202826309        3.45472460112084       -1.29584994866160
H           -1.80188529462241        0.10253577326776        0.05358386984547
H           -5.43860195056289       -2.56499306829497       -0.48975313567704
H           -5.04152610728403       -2.62362372855224        1.22623584321080
H           -6.69493119003005       -2.20142407984787        0.71557289458887
H           -0.66426702813437       -0.42717974771096       -1.77266808939781
H            2.07821397514304       -4.23322785612803       -1.60930590192321
H            3.84365371965212       -4.30099447069496       -1.86128224690824
H            2.81731653720722       -3.37763847737352       -2.99214472173832

          :  Hamiltonian                  GFN1-xTB          :
         :: total energy             -83.020614635083 Eh    ::
         :: gradient norm              0.000585106083 Eh/a0 ::
         :: HOMO-LUMO gap              2.756383101227 eV    ::
         :: SCC energy               -83.804873728810 Eh    ::
         :: -> Gsolv                  -0.057463852781 Eh    ::
         :: repulsion energy           0.809237580176 Eh    ::

    * Orbital Energies and Occupations

         #    Occupation            Energy/Eh            Energy/eV
      -------------------------------------------------------------
         1        2.0000           -0.8661334             -23.5687
       ...           ...                  ...                  ...
        55        2.0000           -0.5055100             -13.7556
        56        2.0000           -0.5021218             -13.6634
        57        2.0000           -0.4960080             -13.4971
        58        2.0000           -0.4849727             -13.1968
        59        2.0000           -0.4832789             -13.1507
        60        2.0000           -0.4804279             -13.0731
        61        2.0000           -0.4673524             -12.7173
        62        2.0000           -0.4618763             -12.5683
        63        2.0000           -0.4575940             -12.4518
        64        2.0000           -0.4523576             -12.3093
        65        2.0000           -0.4501743             -12.2499
        66        2.0000           -0.4472197             -12.1695
        67        2.0000           -0.4269644             -11.6183 (HOMO)
        68                         -0.3256692              -8.8619 (LUMO)
        69                         -0.3122198              -8.4959
        70                         -0.2853657              -7.7652
        71                         -0.2571514              -6.9974
        72                         -0.2406770              -6.5492
        73                         -0.1999252              -5.4402
        74                         -0.1613985              -4.3919
        75                         -0.1419134              -3.8617
        76                         -0.1374263              -3.7396
        77                         -0.1309000              -3.5620
        78                         -0.1281044              -3.4859
       ...                                ...                  ...
       134                          0.7346155              19.9899
      -------------------------------------------------------------
                  HL-Gap            0.1012952 Eh            2.7564 eV

Wiberg/Mayer (AO) data.
largest (>0.10) Wiberg bond orders for each atom

     #   Z sym  total        # sym  WBO       # sym  WBO       # sym  WBO
 ---------------------------------------------------------------------------
     1   6 C    3.873 --    27 H    0.986    26 H    0.979    28 H    0.979
                             2 O    0.900
     2   8 O    2.196 --     3 C    1.107     1 C    0.900     4 O    0.134
     3   6 C    3.852 --     4 O    1.660     2 O    1.107     5 C    1.003
     4   8 O    1.923 --     3 C    1.660     2 O    0.134
     5   6 C    3.963 --    23 C    1.478     6 N    1.186     3 C    1.003
     6   7 N    3.028 --     7 C    1.586     5 C    1.186
     7   6 C    3.931 --     6 N    1.586    20 N    1.168     8 C    0.982
     8   6 C    3.934 --     9 C    0.990     7 C    0.982    10 C    0.975
                            11 N    0.923
     9   6 C    3.988 --     8 C    0.990    29 H    0.985    31 H    0.983
                            30 H    0.982
    10   6 C    3.987 --    32 H    0.985    33 H    0.985    34 H    0.977
                             8 C    0.975
    11   7 N    3.336 --    12 C    1.246     8 C    0.923    35 H    0.893
                            13 O    0.174
    12   6 C    3.915 --    13 O    1.592    11 N    1.246    14 C    0.993
    13   8 O    1.908 --    12 C    1.592    11 N    0.174
    14   6 C    3.872 --    15 N    1.622    19 O    1.046    12 C    0.993
    15   7 N    3.000 --    14 C    1.622    16 N    1.199
    16   7 N    2.982 --    17 C    1.610    15 N    1.199
    17   6 C    3.868 --    16 N    1.610    19 O    1.072    18 C    1.032
    18   6 C    3.986 --    17 C    1.032    38 H    0.982    37 H    0.965
                            36 H    0.961
    19   8 O    2.316 --    17 C    1.072    14 C    1.046
    20   7 N    3.464 --     7 C    1.168    21 C    1.127    39 H    0.882
                            22 O    0.132
    21   6 C    3.908 --    22 O    1.579    20 N    1.127    23 C    1.065
    22   8 O    1.904 --    21 C    1.579    20 N    0.132
    23   6 C    3.919 --     5 C    1.478    24 O    1.103    21 C    1.065
    24   8 O    2.200 --    23 C    1.103    25 C    0.896
    25   6 C    3.871 --    41 H    0.984    40 H    0.979    42 H    0.978
                            24 O    0.896
    26   1 H    1.008 --     1 C    0.979
    27   1 H    1.011 --     1 C    0.986
    28   1 H    1.008 --     1 C    0.979
    29   1 H    1.004 --     9 C    0.985
    30   1 H    1.007 --     9 C    0.982
    31   1 H    1.010 --     9 C    0.983
    32   1 H    1.001 --    10 C    0.985
    33   1 H    1.001 --    10 C    0.985
    34   1 H    1.009 --    10 C    0.977
    35   1 H    0.937 --    11 N    0.893
    36   1 H    0.996 --    18 C    0.961
    37   1 H    0.997 --    18 C    0.965
    38   1 H    0.998 --    18 C    0.982
    39   1 H    0.928 --    20 N    0.882
    40   1 H    1.013 --    25 C    0.979
    41   1 H    1.012 --    25 C    0.984
    42   1 H    1.015 --    25 C    0.978
 ---------------------------------------------------------------------------

           -------------------------------------------------
          | TOTAL ENERGY              -83.020614635083 Eh   |
          | GRADIENT NORM               0.000585106083 Eh/α |
          | HOMO-LUMO GAP               2.756383101227 eV   |
           -------------------------------------------------

 * finished run on 2023/06/21 at 17:39:13.909
