   * xtb version 6.5.1 (579679a) compiled by 'ehlert@majestix' on 2022-07-11
          program call               : /lustre/hpc/kemi/ree/PhD/git/ReactivityQM/dep/xtb-6.5.1/bin/xtb --gfn 1 /lustre/hpc/kemi/ree/PhD/git/ReactivityQM/calculations/RaltegravirCLI/reac01prodE04/conf06/RaltegravirCLI_reac01prodE04_conf06_gfn1.xyz --opt --vfukui --chrg -1 --uhf 0 --alpb DMSO

   ID    Z sym.   atoms
    1    6 C      1, 2, 5-7
    2    7 N      3, 4
    3    8 O      8, 10
    4   17 Cl     9
    5    1 H      11-16

      * Solvation model:               ALPB
        Solvent                        DMSO
        Solvent mass                       7.8130E+01 g/mol
          :  Hamiltonian                  GFN1-xTB          :
 * total energy  :   -34.1203718 Eh     change       -0.9691803E-11 Eh
 * total energy  :   -34.1278745 Eh     change       -0.7502662E-02 Eh
 * total energy  :   -34.1319335 Eh     change       -0.4059033E-02 Eh
 * total energy  :   -34.1330799 Eh     change       -0.1146409E-02 Eh
 * total energy  :   -34.1335567 Eh     change       -0.4768237E-03 Eh
 * total energy  :   -34.1337331 Eh     change       -0.1764217E-03 Eh
 * total energy  :   -34.1338521 Eh     change       -0.1189325E-03 Eh
 * total energy  :   -34.1339817 Eh     change       -0.1295881E-03 Eh
 * total energy  :   -34.1345254 Eh     change       -0.5437490E-03 Eh
 * total energy  :   -34.1350941 Eh     change       -0.5686712E-03 Eh
 * total energy  :   -34.1502759 Eh     change       -0.7942164E-04 Eh
 * total energy  :   -34.1502939 Eh     change       -0.1797511E-04 Eh
 * total energy  :   -34.1504493 Eh     change       -0.1553685E-03 Eh
 * total energy  :   -34.1504867 Eh     change       -0.3741511E-04 Eh
 * total energy  :   -34.1505071 Eh     change       -0.2043495E-04 Eh
 * total energy  :   -34.1505384 Eh     change       -0.3126499E-04 Eh
 * total energy  :   -34.1505493 Eh     change       -0.1090724E-04 Eh
 * total energy  :   -34.1505544 Eh     change       -0.5153508E-05 Eh
 * total energy  :   -34.1505551 Eh     change       -0.7084184E-06 Eh
   *** GEOMETRY OPTIMIZATION CONVERGED AFTER 37 ITERATIONS ***

 final structure:
================
16
 xtb: 6.5.1 (579679a)
C            2.72302156783014       -0.35531950786924       -0.15216311806676
C            1.25549867396583       -0.11024928624562       -0.18295426947909
N            0.41922296331147       -0.77514894935455       -0.87948470850965
N           -0.88267102401761       -0.22537335869725       -0.61522265149887
C           -1.67721404473617       -1.29950913026780        0.00443798439737
C           -0.63313940111013        0.88925479181597        0.28281373695501
C           -1.31750141397569        2.04866277730734        0.37217670855396
O           -1.19374808207918        3.10268646999835        0.97948918291397
Cl          -3.08875469254066        1.76782757228686       -0.40423887595549
O            0.76081594691848        0.88177257337862        0.57420875505844
H            3.04162031985126       -0.56433427943407        0.86828235951762
H            2.96732820836882       -1.20257906738661       -0.78773336296801
H            3.25995429830145        0.52689571824016       -0.49976288304433
H           -1.22197312988680       -1.64518800672431        0.93690065724109
H           -1.73850976974593       -2.12872086484318       -0.69923572671680
H           -2.67395142045532       -0.91067845220463        0.20248721160148

          :  Hamiltonian                  GFN1-xTB          :
         :: total energy             -34.150555141686 Eh    ::
         :: gradient norm              0.000647430448 Eh/a0 ::
         :: HOMO-LUMO gap              2.849394722595 eV    ::
         :: SCC energy               -34.421579310770 Eh    ::
         :: -> Gsolv                  -0.093432545992 Eh    ::
         :: repulsion energy           0.278592760556 Eh    ::

    * Orbital Energies and Occupations

         #    Occupation            Energy/Eh            Energy/eV
      -------------------------------------------------------------
         1        2.0000           -0.8466162             -23.0376
       ...           ...                  ...                  ...
        16        2.0000           -0.5183719             -14.1056
        17        2.0000           -0.5145320             -14.0011
        18        2.0000           -0.5126066             -13.9487
        19        2.0000           -0.5109995             -13.9050
        20        2.0000           -0.4936341             -13.4325
        21        2.0000           -0.4753890             -12.9360
        22        2.0000           -0.4443460             -12.0913
        23        2.0000           -0.4405653             -11.9884
        24        2.0000           -0.4345064             -11.8235
        25        2.0000           -0.4299312             -11.6990
        26        2.0000           -0.4174094             -11.3583
        27        2.0000           -0.4041970             -10.9988
        28        2.0000           -0.3260745              -8.8729 (HOMO)
        29                         -0.2213612              -6.0235 (LUMO)
        30                         -0.1878345              -5.1112
        31                         -0.1657078              -4.5091
        32                         -0.1272681              -3.4631
        33                         -0.0992316              -2.7002
        34                         -0.0607646              -1.6535
        35                         -0.0601110              -1.6357
        36                         -0.0475786              -1.2947
        37                         -0.0419423              -1.1413
        38                         -0.0141971              -0.3863
        39                          0.0200590               0.5458
       ...                                ...                  ...
        57                          0.8080541              21.9883
      -------------------------------------------------------------
                  HL-Gap            0.1047133 Eh            2.8494 eV

Wiberg/Mayer (AO) data.
largest (>0.10) Wiberg bond orders for each atom

     #   Z sym  total        # sym  WBO       # sym  WBO       # sym  WBO
 ---------------------------------------------------------------------------
     1   6 C    3.993 --     2 C    1.017    12 H    0.986    11 H    0.971
                            13 H    0.971
     2   6 C    3.903 --     3 N    1.726    10 O    1.072     1 C    1.017
     3   7 N    2.955 --     2 C    1.726     4 N    0.989    10 O    0.125
     4   7 N    3.082 --     3 N    0.989     6 C    0.970     5 C    0.960
     5   6 C    3.975 --    15 H    0.989    16 H    0.986    14 H    0.985
                             4 N    0.960
     6   6 C    3.717 --     7 C    1.573     4 N    0.970    10 O    0.889
                             8 O    0.186
     7   6 C    3.870 --     6 C    1.573     8 O    1.571     9 Cl   0.608
     8   8 O    1.926 --     7 C    1.571     6 C    0.186     9 Cl   0.120
     9  17 Cl   0.795 --     7 C    0.608     8 O    0.120
    10   8 O    2.185 --     2 C    1.072     6 C    0.889     3 N    0.125
    11   1 H    1.002 --     1 C    0.971
    12   1 H    1.004 --     1 C    0.986
    13   1 H    1.003 --     1 C    0.971
    14   1 H    1.014 --     5 C    0.985
    15   1 H    1.021 --     5 C    0.989
    16   1 H    1.034 --     5 C    0.986
 ---------------------------------------------------------------------------

           -------------------------------------------------
          | TOTAL ENERGY              -34.150555141686 Eh   |
          | GRADIENT NORM               0.000647430448 Eh/α |
          | HOMO-LUMO GAP               2.849394722595 eV   |
           -------------------------------------------------

 * finished run on 2023/06/20 at 14:53:30.405
