   * xtb version 6.5.1 (579679a) compiled by 'ehlert@majestix' on 2022-07-11
          program call               : /lustre/hpc/kemi/ree/PhD/git/ReactivityQM/dep/xtb-6.5.1/bin/xtb --gfn 1 /lustre/hpc/kemi/ree/PhD/git/ReactivityQM/calculations/RaltegravirCLI/reac02prodN12/conf13/RaltegravirCLI_reac02prodN12_conf13_gfn1.xyz --opt --vfukui --chrg 1 --uhf 0 --alpb DMSO

   ID    Z sym.   atoms
    1    6 C      1, 3, 5, 6, 8, 9, 12-16, 18, 19, 21-24
    2    7 N      2, 11, 20, 25
    3    8 O      4, 7, 10
    4    9 F      17
    5    1 H      26-47

      * Solvation model:               ALPB
        Solvent                        DMSO
        Solvent mass                       7.8130E+01 g/mol
          :  Hamiltonian                  GFN1-xTB          :
 * total energy  :   -79.4662019 Eh     change       -0.1416822E-10 Eh
 * total energy  :   -79.4775494 Eh     change       -0.1134756E-01 Eh
 * total energy  :   -79.4829791 Eh     change       -0.5429690E-02 Eh
 * total energy  :   -79.4845537 Eh     change       -0.1574552E-02 Eh
 * total energy  :   -79.4859976 Eh     change       -0.1443915E-02 Eh
 * total energy  :   -79.4868635 Eh     change       -0.8659135E-03 Eh
 * total energy  :   -79.4875591 Eh     change       -0.6956506E-03 Eh
 * total energy  :   -79.4881802 Eh     change       -0.6210511E-03 Eh
 * total energy  :   -79.4886628 Eh     change       -0.4825764E-03 Eh
 * total energy  :   -79.4889784 Eh     change       -0.3156509E-03 Eh
 * total energy  :   -79.4917223 Eh     change       -0.6473568E-05 Eh
 * total energy  :   -79.4917293 Eh     change       -0.6954877E-05 Eh
 * total energy  :   -79.4917383 Eh     change       -0.9083592E-05 Eh
 * total energy  :   -79.4917492 Eh     change       -0.1089657E-04 Eh
 * total energy  :   -79.4917599 Eh     change       -0.1066886E-04 Eh
 * total energy  :   -79.4917700 Eh     change       -0.1005887E-04 Eh
 * total energy  :   -79.4917791 Eh     change       -0.9120399E-05 Eh
 * total energy  :   -79.4917858 Eh     change       -0.6701897E-05 Eh
 * total energy  :   -79.4917906 Eh     change       -0.4809888E-05 Eh
   *** GEOMETRY OPTIMIZATION CONVERGED AFTER 60 ITERATIONS ***

 final structure:
================
47
 xtb: 6.5.1 (579679a)
C           -3.79266478034976       -1.95585360768221        0.71067762900928
N           -2.64309379839693       -1.37696962407443        0.00947328874579
C           -1.83268072861853       -2.36219965701152       -0.64931590570463
O           -2.07553258591545       -3.52514472208515       -0.52164387842516
C           -0.75789231910291       -1.81461963130455       -1.56102910505150
C           -1.45320211946594       -1.56371761201110       -2.93722404557195
O            0.29021595990657       -2.71546650018829       -1.69165762453418
C           -0.28966645682357       -0.48035638797435       -1.08706245765062
C            1.01538274784519        0.09302924319120       -1.58921658452745
O            1.48505258518126       -0.22754927800928       -2.66508305171074
N            1.53690648465730        0.99186454225355       -0.74687269806309
C            2.79167314164614        1.67875605577815       -1.03799668090303
C            3.94549664365552        1.03997368065915       -0.29486059473339
C            4.22711814006504       -0.31363389260902       -0.47348901711775
C            5.28441661723160       -0.90675827705660        0.20005954426787
C            6.04947668810973       -0.12091511361827        1.04445667544597
F            7.07332534017346       -0.68812571194675        1.69844812730648
C            5.79812044943399        1.22449308471140        1.24233299408837
C            4.73299900061151        1.80166698169175        0.56382653111391
N           -1.04617273480845        0.28453315490449       -0.37411132378677
C           -2.26191699598571       -0.11249174294967        0.09550348636658
C           -3.03377078302309        0.98642177670108        0.77988300114335
C           -2.57201040352170        2.35786195424055        0.25612127621205
C           -2.72061040606289        0.87443824761554        2.28536931932404
N           -4.45922804736094        0.82530557209158        0.57256731912092
H           -3.43888638131114       -2.39807909590138        1.64124597109150
H           -4.51796743630084       -1.17067413430895        0.91126028163475
H           -4.22129568522455       -2.73047150788679        0.07661425668672
H           -1.86752198749423       -2.50628763922564       -3.28713407074302
H           -0.69082263052112       -1.21397811541484       -3.63108452452638
H           -2.24127148848204       -0.82284001964926       -2.83911285902398
H           -0.03979035986532       -3.62534390198533       -1.72086004942757
H            1.05814544445269        1.20533410597076        0.11157114568608
H            2.95332362443001        1.62158263694220       -2.11960552598658
H            2.67471352794212        2.72421778957635       -0.74560310638189
H            3.61451313095232       -0.90831328605148       -1.14086698372084
H            5.51212202545959       -1.95751697545753        0.07510234854867
H            6.41607453048941        1.80557285494497        1.91437534750908
H            4.51517372680982        2.85315636055352        0.70700964990798
H           -2.69165071227334        2.40629677631289       -0.82464345907915
H           -3.18463107688207        3.12987636003534        0.71708121450464
H           -1.52785293112537        2.53259165204061        0.50710298704454
H           -3.11168034948704       -0.05887511430963        2.68547435218602
H           -1.64556054225729        0.91582422428432        2.45107549566225
H           -3.19292040588988        1.70934639233575        2.79983303586483
H           -4.69973030524616        1.04528444570875       -0.38344454351172
H           -4.96422435726686        1.44875565617350        1.18628281171075

          :  Hamiltonian                  GFN1-xTB          :
         :: total energy             -79.491790598937 Eh    ::
         :: gradient norm              0.000493350341 Eh/a0 ::
         :: HOMO-LUMO gap              0.789349713376 eV    ::
         :: SCC energy               -80.385155023235 Eh    ::
         :: -> Gsolv                  -0.110005330733 Eh    ::
         :: repulsion energy           0.924191861243 Eh    ::

    * Orbital Energies and Occupations

         #    Occupation            Energy/Eh            Energy/eV
      -------------------------------------------------------------
         1        2.0000           -0.8869276             -24.1345
       ...           ...                  ...                  ...
        55        2.0000           -0.5246586             -14.2767
        56        2.0000           -0.5232945             -14.2396
        57        2.0000           -0.5176112             -14.0849
        58        2.0000           -0.5132359             -13.9659
        59        2.0000           -0.5116913             -13.9238
        60        2.0000           -0.5094787             -13.8636
        61        2.0000           -0.4934436             -13.4273
        62        2.0000           -0.4817508             -13.1091
        63        2.0000           -0.4755689             -12.9409
        64        2.0000           -0.4683015             -12.7431
        65        2.0000           -0.4596549             -12.5078
        66        2.0000           -0.4456421             -12.1265
        67        2.0000           -0.4424178             -12.0388 (HOMO)
        68        0.0000           -0.4134097             -11.2495 (LUMO)
        69                         -0.3420399              -9.3074
        70                         -0.2991491              -8.1403
        71                         -0.2815895              -7.6624
        72                         -0.2760733              -7.5123
        73                         -0.2491317              -6.7792
        74                         -0.1598566              -4.3499
        75                         -0.1546214              -4.2075
        76                         -0.1484109              -4.0385
        77                         -0.1465339              -3.9874
        78                         -0.1392088              -3.7881
       ...                                ...                  ...
       144                          0.6970773              18.9684
      -------------------------------------------------------------
                  HL-Gap            0.0290081 Eh            0.7893 eV

Wiberg/Mayer (AO) data.
largest (>0.10) Wiberg bond orders for each atom

     #   Z sym  total        # sym  WBO       # sym  WBO       # sym  WBO
 ---------------------------------------------------------------------------
     1   6 C    3.879 --    28 H    0.973    26 H    0.962    27 H    0.952
                             2 N    0.905
     2   7 N    3.567 --    21 C    1.417     3 C    0.983     1 C    0.905
     3   6 C    3.855 --     4 O    1.779     2 N    0.983     5 C    0.949
     4   8 O    2.039 --     3 C    1.779
     5   6 C    3.939 --     8 C    1.000     7 O    0.996     3 C    0.949
                             6 C    0.872
     6   6 C    3.965 --    31 H    0.986    29 H    0.975    30 H    0.973
                             5 C    0.872
     7   8 O    1.918 --     5 C    0.996    32 H    0.824
     8   6 C    3.898 --    20 N    1.627     5 C    1.000     9 C    0.956
     9   6 C    3.920 --    10 O    1.593    11 N    1.295     8 C    0.956
    10   8 O    1.928 --     9 C    1.593    11 N    0.200
    11   7 N    3.404 --     9 C    1.295    12 C    0.929    33 H    0.894
                            10 O    0.200
    12   6 C    3.928 --    13 C    0.990    35 H    0.971    34 H    0.963
                            11 N    0.929
    13   6 C    3.986 --    19 C    1.423    14 C    1.413    12 C    0.990
    14   6 C    3.993 --    15 C    1.449    13 C    1.413    36 H    0.970
                            18 C    0.111
    15   6 C    3.992 --    14 C    1.449    16 C    1.396    37 H    0.969
                            19 C    0.109
    16   6 C    3.862 --    18 C    1.403    15 C    1.396    17 F    0.930
    17   9 F    1.059 --    16 C    0.930
    18   6 C    3.991 --    19 C    1.439    16 C    1.403    38 H    0.968
                            14 C    0.111
    19   6 C    3.993 --    18 C    1.439    13 C    1.423    39 H    0.970
                            15 C    0.109
    20   7 N    3.063 --     8 C    1.627    21 C    1.199
    21   6 C    3.876 --     2 N    1.417    20 N    1.199    22 C    1.001
    22   6 C    3.956 --    21 C    1.001    25 N    0.995    23 C    0.973
                            24 C    0.940
    23   6 C    3.986 --    40 H    0.984    42 H    0.982    41 H    0.982
                            22 C    0.973
    24   6 C    3.983 --    44 H    0.984    43 H    0.983    45 H    0.974
                            22 C    0.940
    25   7 N    3.021 --    22 C    0.995    46 H    0.928    47 H    0.924
    26   1 H    0.994 --     1 C    0.962
    27   1 H    1.018 --     1 C    0.952
    28   1 H    0.997 --     1 C    0.973
    29   1 H    0.994 --     6 C    0.975
    30   1 H    1.005 --     6 C    0.973
    31   1 H    0.995 --     6 C    0.986
    32   1 H    0.845 --     7 O    0.824
    33   1 H    0.941 --    11 N    0.894
    34   1 H    1.005 --    12 C    0.963
    35   1 H    0.999 --    12 C    0.971
    36   1 H    1.002 --    14 C    0.970
    37   1 H    0.997 --    15 C    0.969
    38   1 H    0.997 --    18 C    0.968
    39   1 H    0.998 --    19 C    0.970
    40   1 H    1.000 --    23 C    0.984
    41   1 H    0.998 --    23 C    0.982
    42   1 H    1.008 --    23 C    0.982
    43   1 H    0.998 --    24 C    0.983
    44   1 H    0.998 --    24 C    0.984
    45   1 H    0.993 --    24 C    0.974
    46   1 H    0.943 --    25 N    0.928
    47   1 H    0.939 --    25 N    0.924
 ---------------------------------------------------------------------------

           -------------------------------------------------
          | TOTAL ENERGY              -79.491790598937 Eh   |
          | GRADIENT NORM               0.000493350341 Eh/α |
          | HOMO-LUMO GAP               0.789349713376 eV   |
           -------------------------------------------------

 * finished run on 2023/06/20 at 15:33:37.572
