   * xtb version 6.5.1 (579679a) compiled by 'ehlert@majestix' on 2022-07-11
          program call               : /lustre/hpc/kemi/ree/PhD/git/ReactivityQM/dep/xtb-6.5.1/bin/xtb --gfn 1 /lustre/hpc/kemi/ree/PhD/git/ReactivityQM/calculations/RaltegravirCLI/reac02prodE09/conf04/RaltegravirCLI_reac02prodE09_conf04_gfn1.xyz --opt --vfukui --chrg -1 --uhf 0 --alpb DMSO

   ID    Z sym.   atoms
    1    6 C      1, 3-6, 9, 10, 13-18, 20-22, 24
    2    7 N      2, 7, 8, 12
    3    8 O      11, 23, 25
    4    9 F      19
    5    1 H      26-47

      * Solvation model:               ALPB
        Solvent                        DMSO
        Solvent mass                       7.8130E+01 g/mol
          :  Hamiltonian                  GFN1-xTB          :
 * total energy  :   -80.1871393 Eh     change       -0.7099743E-09 Eh
 * total energy  :   -80.1969301 Eh     change       -0.9790734E-02 Eh
 * total energy  :   -80.2006414 Eh     change       -0.3711304E-02 Eh
 * total energy  :   -80.2018897 Eh     change       -0.1248365E-02 Eh
 * total energy  :   -80.2032483 Eh     change       -0.1358565E-02 Eh
 * total energy  :   -80.2045611 Eh     change       -0.1312836E-02 Eh
 * total energy  :   -80.2067568 Eh     change       -0.2195612E-02 Eh
 * total energy  :   -80.2098890 Eh     change       -0.3132231E-02 Eh
 * total energy  :   -80.2122875 Eh     change       -0.2398565E-02 Eh
 * total energy  :   -80.2145842 Eh     change       -0.2296613E-02 Eh
 * total energy  :   -80.2319098 Eh     change       -0.1468600E-04 Eh
 * total energy  :   -80.2319277 Eh     change       -0.1797440E-04 Eh
 * total energy  :   -80.2319420 Eh     change       -0.1424357E-04 Eh
 * total energy  :   -80.2319540 Eh     change       -0.1205865E-04 Eh
 * total energy  :   -80.2319677 Eh     change       -0.1363415E-04 Eh
 * total energy  :   -80.2319777 Eh     change       -0.1001138E-04 Eh
 * total energy  :   -80.2319843 Eh     change       -0.6574085E-05 Eh
 * total energy  :   -80.2319923 Eh     change       -0.8041171E-05 Eh
 * total energy  :   -80.2319959 Eh     change       -0.3557369E-05 Eh
   *** GEOMETRY OPTIMIZATION CONVERGED AFTER 94 ITERATIONS ***

 final structure:
================
47
 xtb: 6.5.1 (579679a)
C           -4.27022515871493       -2.19308930030015        1.40732868016459
N           -3.17455218332440       -1.31384941905440        0.99593579061095
C           -3.32423671698678       -0.27340321929010        0.11390119360686
C           -4.67224423953760        0.09013036339900       -0.49762276314113
C           -4.93203943991056       -0.81188856675281       -1.71306575168712
C           -4.63362416999726        1.55889512618683       -0.95365365176121
N           -5.74286349451905       -0.08975482115603        0.47797619847255
N           -2.31520960966199        0.44072625637063       -0.27652469647296
C           -1.05795531930274        0.23396354869753        0.21491670748245
C            0.00969265597830        1.11267475398952       -0.37865420424428
O           -0.08535436891563        1.56589134585065       -1.51235835788971
N            1.05606655811128        1.35411287737804        0.43122387528871
C            2.18955714458777        2.15890773230785        0.00296094167290
C            3.46091093443866        1.34453264867594       -0.11607814254942
C            4.67697962265038        2.00948194654067       -0.26287348025485
C            5.85967743298578        1.29696264523392       -0.38485297742094
C            5.86062548402864       -0.09834722108961       -0.36224551675972
C            7.14505168600940       -0.86474796964736       -0.45283705798160
F            8.32677855806294       -1.07887922298873        2.33787878803622
C            4.64051162800916       -0.75695598020686       -0.21948548766598
C            3.45464656256747       -0.04629108129735       -0.10013444361227
C           -0.85345899923956       -0.74251058709332        1.14399865245556
O            0.34860586065461       -1.02104860492451        1.69808190804176
C           -1.94911666425601       -1.58416275217960        1.57974119195387
O           -1.78981567952927       -2.48464448528154        2.40344320974216
H           -4.91439603253065       -2.41210827287207        0.56244249398367
H           -4.85463825024979       -1.71213041607242        2.18953683893310
H           -3.83701382462549       -3.11720962422208        1.79017171288719
H           -4.11115284673267       -0.72258228731994       -2.42428198391556
H           -5.02703326871069       -1.85443732975410       -1.41493146883976
H           -5.85608068882762       -0.50694087586289       -2.20180447913792
H           -4.39049948500361        2.20517250205266       -0.11144796974786
H           -5.61017521839763        1.83999411754512       -1.34310267363864
H           -3.88404347633678        1.69883388471251       -1.73186771407637
H           -5.71616004169317        0.66094454514799        1.15569280718224
H           -6.63434932395901       -0.04162326063632        0.00629828759310
H            1.06628933884711        0.99611743412735        1.37119058830896
H            2.33422003667245        2.97507334447475        0.71949744504578
H            1.93562722374921        2.60324976019015       -0.96708529059034
H            4.69672312856918        3.09400230539923       -0.28338631114174
H            6.79413285731098        1.83649789913850       -0.50252847942050
H            7.86619726045513       -0.34417062616079       -1.08324533882089
H            6.97728062017099       -1.86404557897722       -0.85474796948242
H            7.58345179647008       -0.96733303666048        0.55399172928027
H            4.61011867577528       -1.84201076538977       -0.20612180034185
H            2.51781258388416       -0.58163201282678        0.01056132162621
H            0.22528085094596       -1.75036671932525        2.33427864799114

          :  Hamiltonian                  GFN1-xTB          :
         :: total energy             -80.231995861431 Eh    ::
         :: gradient norm              0.000319834401 Eh/a0 ::
         :: HOMO-LUMO gap              0.711826871822 eV    ::
         :: SCC energy               -81.126480917800 Eh    ::
         :: -> Gsolv                  -0.160036381923 Eh    ::
         :: repulsion energy           0.923768219510 Eh    ::

    * Orbital Energies and Occupations

         #    Occupation            Energy/Eh            Energy/eV
      -------------------------------------------------------------
         1        2.0000           -0.8234229             -22.4065
       ...           ...                  ...                  ...
        56        2.0000           -0.4619726             -12.5709
        57        2.0000           -0.4568271             -12.4309
        58        2.0000           -0.4503729             -12.2553
        59        2.0000           -0.4459208             -12.1341
        60        2.0000           -0.4318006             -11.7499
        61        2.0000           -0.4303181             -11.7096
        62        2.0000           -0.4241721             -11.5423
        63        2.0000           -0.4174456             -11.3593
        64        2.0000           -0.4121932             -11.2163
        65        2.0000           -0.4072621             -11.0822
        66        2.0000           -0.3317640              -9.0278
        67        2.0000           -0.3317611              -9.0277
        68        2.0000           -0.3312204              -9.0130 (HOMO)
        69        0.0000           -0.3050612              -8.3011 (LUMO)
        70                         -0.2713587              -7.3840
        71                         -0.2459508              -6.6927
        72                         -0.2419649              -6.5842
        73                         -0.2250934              -6.1251
        74                         -0.1506597              -4.0997
        75                         -0.1311420              -3.5686
        76                         -0.1233034              -3.3553
        77                         -0.1213890              -3.3032
        78                         -0.1162342              -3.1629
        79                         -0.1141799              -3.1070
       ...                                ...                  ...
       144                          0.7159387              19.4817
      -------------------------------------------------------------
                  HL-Gap            0.0261592 Eh            0.7118 eV

Wiberg/Mayer (AO) data.
largest (>0.10) Wiberg bond orders for each atom

     #   Z sym  total        # sym  WBO       # sym  WBO       # sym  WBO
 ---------------------------------------------------------------------------
     1   6 C    3.923 --    26 H    0.979    28 H    0.976    27 H    0.976
                             2 N    0.929
     2   7 N    3.514 --     3 C    1.175    24 C    1.133     1 C    0.929
                            25 O    0.132
     3   6 C    3.923 --     8 N    1.560     2 N    1.175     4 C    0.976
     4   6 C    3.966 --     6 C    0.988     7 N    0.985     5 C    0.982
                             3 C    0.976
     5   6 C    3.994 --    29 H    0.985    31 H    0.983     4 C    0.982
                            30 H    0.980
     6   6 C    3.994 --     4 C    0.988    33 H    0.986    32 H    0.985
                            34 H    0.983
     7   7 N    2.977 --     4 C    0.985    35 H    0.941    36 H    0.939
     8   7 N    3.029 --     3 C    1.560     9 C    1.202
     9   6 C    3.964 --    22 C    1.512     8 N    1.202    10 C    0.978
    10   6 C    3.908 --    11 O    1.577    12 N    1.273     9 C    0.978
    11   8 O    1.873 --    10 C    1.577    12 N    0.174
    12   7 N    3.361 --    10 C    1.273    13 C    0.946    37 H    0.898
                            11 O    0.174
    13   6 C    3.944 --    14 C    0.994    38 H    0.969    39 H    0.962
                            12 N    0.946
    14   6 C    3.985 --    21 C    1.419    15 C    1.406    13 C    0.994
                            17 C    0.105
    15   6 C    3.995 --    16 C    1.458    14 C    1.406    40 H    0.973
                            20 C    0.108
    16   6 C    3.995 --    15 C    1.458    17 C    1.399    41 H    0.973
                            21 C    0.107
    17   6 C    3.987 --    20 C    1.409    16 C    1.399    18 C    1.032
                            14 C    0.105
    18   6 C    3.988 --    17 C    1.032    43 H    0.985    42 H    0.983
                            44 H    0.926
    19   9 F    0.101
    20   6 C    3.995 --    21 C    1.446    17 C    1.409    45 H    0.973
                            15 C    0.108
    21   6 C    3.995 --    20 C    1.446    14 C    1.419    46 H    0.971
                            16 C    0.107
    22   6 C    3.917 --     9 C    1.512    24 C    1.097    23 O    1.064
    23   8 O    2.057 --    22 C    1.064    47 H    0.807
    24   6 C    3.917 --    25 O    1.534     2 N    1.133    22 C    1.097
    25   8 O    1.883 --    24 C    1.534     2 N    0.132
    26   1 H    1.022 --     1 C    0.979
    27   1 H    1.018 --     1 C    0.976
    28   1 H    1.010 --     1 C    0.976
    29   1 H    1.004 --     5 C    0.985
    30   1 H    1.005 --     5 C    0.980
    31   1 H    1.000 --     5 C    0.983
    32   1 H    1.007 --     6 C    0.985
    33   1 H    1.004 --     6 C    0.986
    34   1 H    1.015 --     6 C    0.983
    35   1 H    0.957 --     7 N    0.941
    36   1 H    0.954 --     7 N    0.939
    37   1 H    0.948 --    12 N    0.898
    38   1 H    1.007 --    13 C    0.969
    39   1 H    1.015 --    13 C    0.962
    40   1 H    1.001 --    15 C    0.973
    41   1 H    1.003 --    16 C    0.973
    42   1 H    1.006 --    18 C    0.983
    43   1 H    1.006 --    18 C    0.985
    44   1 H    1.038 --    18 C    0.926
    45   1 H    1.003 --    20 C    0.973
    46   1 H    1.012 --    21 C    0.971
    47   1 H    0.849 --    23 O    0.807
 ---------------------------------------------------------------------------

           -------------------------------------------------
          | TOTAL ENERGY              -80.231995861431 Eh   |
          | GRADIENT NORM               0.000319834401 Eh/α |
          | HOMO-LUMO GAP               0.711826871822 eV   |
           -------------------------------------------------

 * finished run on 2023/06/20 at 15:09:52.783
