   * xtb version 6.5.1 (579679a) compiled by 'ehlert@majestix' on 2022-07-11
          program call               : /lustre/hpc/kemi/ree/PhD/git/ReactivityQM/dep/xtb-6.5.1/bin/xtb --gfn 1 /lustre/hpc/kemi/ree/PhD/git/ReactivityQM/calculations/R02oxygendeprot/reac01prodE06/conf01/R02oxygendeprot_reac01prodE06_conf01_gfn1.xyz --opt --vfukui --chrg -2 --uhf 0 --alpb DMSO

   ID    Z sym.   atoms
    1    6 C      1, 3, 5, 6, 8, 11-15, 17, 19, 22, 23
    2    8 O      2, 4, 7, 9, 18, 24
    3    7 N      10, 16, 20, 21, 25
    4    1 H      26-42

      * Solvation model:               ALPB
        Solvent                        DMSO
        Solvent mass                       7.8130E+01 g/mol
          :  Hamiltonian                  GFN1-xTB          :
 * total energy  :   -83.6065748 Eh     change       -0.9164580E-10 Eh
 * total energy  :   -83.6175513 Eh     change       -0.1097658E-01 Eh
 * total energy  :   -83.6210202 Eh     change       -0.3468871E-02 Eh
 * total energy  :   -83.6217831 Eh     change       -0.7628530E-03 Eh
 * total energy  :   -83.6226059 Eh     change       -0.8228265E-03 Eh
 * total energy  :   -83.6232086 Eh     change       -0.6027391E-03 Eh
 * total energy  :   -83.6237509 Eh     change       -0.5422971E-03 Eh
 * total energy  :   -83.6241549 Eh     change       -0.4039494E-03 Eh
 * total energy  :   -83.6243318 Eh     change       -0.1769487E-03 Eh
 * total energy  :   -83.6243977 Eh     change       -0.6585287E-04 Eh
 * total energy  :   -83.6257977 Eh     change       -0.7566792E-05 Eh
 * total energy  :   -83.6258102 Eh     change       -0.1255092E-04 Eh
 * total energy  :   -83.6258185 Eh     change       -0.8246690E-05 Eh
 * total energy  :   -83.6258301 Eh     change       -0.1159877E-04 Eh
 * total energy  :   -83.6258367 Eh     change       -0.6653871E-05 Eh
 * total energy  :   -83.6258429 Eh     change       -0.6131500E-05 Eh
 * total energy  :   -83.6258506 Eh     change       -0.7776289E-05 Eh
 * total energy  :   -83.6258568 Eh     change       -0.6180953E-05 Eh
 * total energy  :   -83.6258618 Eh     change       -0.4974824E-05 Eh
   *** GEOMETRY OPTIMIZATION CONVERGED AFTER 66 ITERATIONS ***

 final structure:
================
42
 xtb: 6.5.1 (579679a)
C           -5.87515009244940       -0.52245179109769        0.94083748819549
O           -4.54999612343762       -0.43720355926257        0.45449153016355
C           -4.28191640101905        0.66093342915347       -0.34672492047459
O           -5.18401403428167        1.46399200246859       -0.57463028879487
C           -2.90562228651654        0.69157526841937       -0.81135179791679
C           -2.46196974072365        1.76028575096450       -1.64589886683994
O           -3.15529065670054        2.75791914782344       -2.00239057058843
C           -1.05386416217876        1.64021612103905       -2.14364085091703
O           -0.53611303644962        2.40932821606715       -2.96879457217866
N           -0.32699671981215        0.58893185871186       -1.67042631605337
C           -0.76468376339513       -0.38380042795438       -0.68002376348521
C           -0.34618029456652       -1.77550472983103       -1.19756467497282
C           -0.01035198840745       -0.05332539182878        0.71930961362993
C           -0.60005126767844       -0.92199170826504        1.83348823527103
C           -0.25998060996642        1.42043405741207        1.06757804678334
N            1.42172486038824       -0.21165520682706        0.59633344669927
C            2.16058656830881       -1.36046504201773        0.70059122045329
O            1.69577491157357       -2.48286873585790        0.98982227061390
C            3.57031959085655       -1.15407521456106        0.44988581176763
N            4.53905717497779       -2.05472534109603        0.50636515305019
N            5.70442353269729       -1.39292278690412        0.22539476729648
C            5.40170398684715       -0.15381425964586        0.01826496141972
C            6.32734167579483        0.95533200436394       -0.31649467007376
O            4.07566657050999        0.08662168704373        0.13994825875558
N           -2.15198430535008       -0.38488394160583       -0.43980747009731
H           -6.59889864885489       -0.55118832544217        0.11787094918308
H           -6.11579079697861        0.33172445132889        1.58419387321271
H           -5.95006982426542       -1.44284633180737        1.51996457037736
H            0.62871631734152        0.52791514397756       -1.98017629697354
H           -0.90632909557731       -1.98506143611640       -2.10862333776962
H            0.71642257028526       -1.80455305243400       -1.42707538036568
H           -0.57866311819397       -2.54218739522962       -0.46248563491436
H           -0.47854510765077       -1.98501774577282        1.63710372904679
H           -1.66767026888860       -0.70819847317214        1.90946907908548
H           -0.12145133753441       -0.68858266341233        2.78483686303929
H           -1.33119049453401        1.61647368184106        1.11769402463298
H            0.18309897637193        2.07597443311550        0.31835914689408
H            0.18362886092515        1.65432353034387        2.03486240305914
H            1.92881096053213        0.61090899159631        0.30906216871540
H            7.33793927354977        0.56656598756095       -0.41626420220158
H            6.02785625937821        1.43078436785369       -1.25080817582269
H            6.30970308507292        1.71285442906549        0.46745317909361

          :  Hamiltonian                  GFN1-xTB          :
         :: total energy             -83.625861799992 Eh    ::
         :: gradient norm              0.000960228594 Eh/a0 ::
         :: HOMO-LUMO gap              0.279642160774 eV    ::
         :: SCC energy               -84.351302404673 Eh    ::
         :: -> Gsolv                  -0.273328247186 Eh    ::
         :: repulsion energy           0.753249528247 Eh    ::

    * Orbital Energies and Occupations

         #    Occupation            Energy/Eh            Energy/eV
      -------------------------------------------------------------
         1        2.0000           -0.8159289             -22.2026
       ...           ...                  ...                  ...
        56        2.0000           -0.4453528             -12.1187
        57        2.0000           -0.4369345             -11.8896
        58        2.0000           -0.4160864             -11.3223
        59        2.0000           -0.4145063             -11.2793
        60        2.0000           -0.4126916             -11.2299
        61        2.0000           -0.4102426             -11.1633
        62        2.0000           -0.4037944             -10.9878
        63        2.0000           -0.4021772             -10.9438
        64        2.0000           -0.3901171             -10.6156
        65        2.0000           -0.3728194             -10.1449
        66        2.0000           -0.3675889             -10.0026
        67        2.0000           -0.3347448              -9.1089
        68        1.9911           -0.2779012              -7.5621 (HOMO)
        69        0.0089           -0.2676245              -7.2824 (LUMO)
        70                         -0.2364053              -6.4329
        71                         -0.2188643              -5.9556
        72                         -0.1634530              -4.4478
        73                         -0.1478052              -4.0220
        74                         -0.1265256              -3.4429
        75                         -0.1127350              -3.0677
        76                         -0.0984341              -2.6785
        77                         -0.0911978              -2.4816
        78                         -0.0874890              -2.3807
        79                         -0.0781915              -2.1277
       ...                                ...                  ...
       134                          0.7588883              20.6504
      -------------------------------------------------------------
                  HL-Gap            0.0102767 Eh            0.2796 eV

Wiberg/Mayer (AO) data.
largest (>0.10) Wiberg bond orders for each atom

     #   Z sym  total        # sym  WBO       # sym  WBO       # sym  WBO
 ---------------------------------------------------------------------------
     1   6 C    3.913 --    28 H    0.987    27 H    0.980    26 H    0.980
                             2 O    0.943
     2   8 O    2.115 --     3 C    0.990     1 C    0.943
     3   6 C    3.813 --     4 O    1.559     5 C    1.125     2 O    0.990
     4   8 O    1.828 --     3 C    1.559
     5   6 C    3.917 --    25 N    1.252     6 C    1.234     3 C    1.125
                             7 O    0.101
     6   6 C    3.878 --     7 O    1.432     5 C    1.234     8 C    0.994
     7   8 O    1.681 --     6 C    1.432     5 C    0.101
     8   6 C    3.872 --     9 O    1.520    10 N    1.195     6 C    0.994
     9   8 O    1.790 --     8 C    1.520    10 N    0.142
    10   7 N    3.303 --     8 C    1.195    11 C    0.926    29 H    0.914
                             9 O    0.142
    11   6 C    3.934 --    25 N    1.071    12 C    0.979    10 N    0.926
                            13 C    0.857
    12   6 C    3.995 --    31 H    0.987    30 H    0.986    32 H    0.982
                            11 C    0.979
    13   6 C    3.925 --    14 C    1.001    15 C    0.999    16 N    0.959
                            11 C    0.857
    14   6 C    3.994 --    13 C    1.001    35 H    0.986    34 H    0.982
                            33 H    0.977
    15   6 C    3.996 --    13 C    0.999    38 H    0.987    37 H    0.983
                            36 H    0.983
    16   7 N    3.314 --    17 C    1.172    13 C    0.959    39 H    0.911
                            18 O    0.142
    17   6 C    3.879 --    18 O    1.441    16 N    1.172    19 C    1.098
    18   8 O    1.766 --    17 C    1.441    16 N    0.142
    19   6 C    3.745 --    20 N    1.469    17 C    1.098    24 O    0.990
    20   7 N    2.807 --    19 C    1.469    21 N    1.182
    21   7 N    2.980 --    22 C    1.633    20 N    1.182
    22   6 C    3.832 --    21 N    1.633    24 O    1.048    23 C    1.025
    23   6 C    3.993 --    22 C    1.025    40 H    0.985    41 H    0.970
                            42 H    0.969
    24   8 O    2.221 --    22 C    1.048    19 C    0.990
    25   7 N    2.721 --     5 C    1.252    11 C    1.071
    26   1 H    1.018 --     1 C    0.980
    27   1 H    1.017 --     1 C    0.980
    28   1 H    1.019 --     1 C    0.987
    29   1 H    0.963 --    10 N    0.914
    30   1 H    1.020 --    12 C    0.986
    31   1 H    1.010 --    12 C    0.987
    32   1 H    1.022 --    12 C    0.982
    33   1 H    1.025 --    14 C    0.977
    34   1 H    1.030 --    14 C    0.982
    35   1 H    1.006 --    14 C    0.986
    36   1 H    1.014 --    15 C    0.983
    37   1 H    1.008 --    15 C    0.983
    38   1 H    1.006 --    15 C    0.987
    39   1 H    0.959 --    16 N    0.911
    40   1 H    1.003 --    23 C    0.985
    41   1 H    1.000 --    23 C    0.970
    42   1 H    1.000 --    23 C    0.969
 ---------------------------------------------------------------------------

           -------------------------------------------------
          | TOTAL ENERGY              -83.625861799992 Eh   |
          | GRADIENT NORM               0.000960228594 Eh/α |
          | HOMO-LUMO GAP               0.279642160774 eV   |
           -------------------------------------------------

 * finished run on 2023/06/21 at 17:07:54.897
