   * xtb version 6.5.1 (579679a) compiled by 'ehlert@majestix' on 2022-07-11
          program call               : /lustre/hpc/kemi/ree/PhD/git/ReactivityQM/dep/xtb-6.5.1/bin/xtb --gfn 1 /lustre/hpc/kemi/ree/PhD/git/ReactivityQM/calculations/R01/reac02prodE07/conf02/R01_reac02prodE07_conf02_gfn1.xyz --opt --vfukui --chrg -1 --uhf 0 --alpb DMSO

   ID    Z sym.   atoms
    1    6 C      1, 3, 5, 6, 8, 10, 12-15
    2    8 O      2, 4, 7, 9
    3    7 N      11, 16, 17
    4    1 H      18-33

      * Solvation model:               ALPB
        Solvent                        DMSO
        Solvent mass                       7.8130E+01 g/mol
          :  Hamiltonian                  GFN1-xTB          :
 * total energy  :   -58.5037549 Eh     change       -0.6544099E-11 Eh
 * total energy  :   -58.5192053 Eh     change       -0.1545032E-01 Eh
 * total energy  :   -58.5232621 Eh     change       -0.4056842E-02 Eh
 * total energy  :   -58.5237856 Eh     change       -0.5234728E-03 Eh
 * total energy  :   -58.5242138 Eh     change       -0.4282308E-03 Eh
 * total energy  :   -58.5244694 Eh     change       -0.2555681E-03 Eh
 * total energy  :   -58.5249796 Eh     change       -0.5102146E-03 Eh
 * total energy  :   -58.5254743 Eh     change       -0.4947048E-03 Eh
 * total energy  :   -58.5261607 Eh     change       -0.6864187E-03 Eh
 * total energy  :   -58.5263154 Eh     change       -0.1547210E-03 Eh
 * total energy  :   -58.5307983 Eh     change       -0.6776720E-04 Eh
 * total energy  :   -58.5308189 Eh     change       -0.2063755E-04 Eh
 * total energy  :   -58.5308213 Eh     change       -0.2387351E-05 Eh
 * total energy  :   -58.5308669 Eh     change       -0.4558863E-04 Eh
 * total energy  :   -58.5308747 Eh     change       -0.7797648E-05 Eh
 * total energy  :   -58.5308912 Eh     change       -0.1652894E-04 Eh
 * total energy  :   -58.5308988 Eh     change       -0.7612404E-05 Eh
 * total energy  :   -58.5309054 Eh     change       -0.6520207E-05 Eh
 * total energy  :   -58.5309094 Eh     change       -0.4044152E-05 Eh
   *** GEOMETRY OPTIMIZATION CONVERGED AFTER 60 ITERATIONS ***

 final structure:
================
33
 xtb: 6.5.1 (579679a)
C            3.73851723113950       -2.99453945586381        0.08799362344039
O            2.52584786327773       -2.27015325894316        0.06917811287698
C            2.66425650783260       -0.88104779346018        0.22913049725483
O            3.83659248722101       -0.40425180687333        0.35941105544862
C            1.49589964936668       -0.14920258494687        0.21115016327466
C            1.52327711752301        1.30207466832560        0.40810481044746
O            2.72383950801955        1.88453281648003        0.70423700496245
C            0.37586917179917        2.00165660453521        0.36948200554865
O            0.23449909497127        3.35939097697162        0.61637827709924
C            0.12756952254850        4.18501077964522       -0.53739871080096
N           -0.84480255146934        1.34055420554821       -0.02912006169182
C           -0.82238481051186       -0.06424205714794        0.07127722379954
C           -2.19739677300214       -0.70313015747889       -0.00551203645852
C           -2.12581690531432       -2.17975738859281        0.40457940830043
C           -2.72553529852434       -0.57026903897718       -1.44124774975352
N           -3.09794028837427        0.04541823190278        0.87943661965948
N            0.23033415176776       -0.77487196839308        0.12606317801351
H            3.48699993868589       -4.05106644131899       -0.02438241498033
H            4.39945063273033       -2.69309530114737       -0.73518212459154
H            4.27735891338282       -2.85213109373177        1.03369150574903
H            3.39866862742990        1.13151804182973        0.62865521096968
H            1.03904523735431        4.13783258654460       -1.14761713375930
H           -0.01878455888623        5.20752995782541       -0.18707795939622
H           -0.72931146646694        3.89195421454334       -1.15576938359539
H           -1.67507204743075        1.74210629278402        0.39556900282790
H           -1.44137886855080       -2.71547568808696       -0.25438608183505
H           -3.11247287327645       -2.63595663208044        0.34299609085521
H           -1.76030809138343       -2.26623093144357        1.42770206647150
H           -3.72459760766827       -0.99792630557915       -1.51871794544739
H           -2.06648740535957       -1.09273316204617       -2.13488583380362
H           -2.77138385356663        0.48224102448701       -1.72197636116615
H           -4.05359240281967       -0.21551849828502        0.68510363406161
H           -2.91076285244613       -0.20022183702711        1.84313530621651

          :  Hamiltonian                  GFN1-xTB          :
         :: total energy             -58.530909413793 Eh    ::
         :: gradient norm              0.000964396022 Eh/a0 ::
         :: HOMO-LUMO gap              2.245789793375 eV    ::
         :: SCC energy               -59.064742809225 Eh    ::
         :: -> Gsolv                  -0.106319472738 Eh    ::
         :: repulsion energy           0.551763899847 Eh    ::

    * Orbital Energies and Occupations

         #    Occupation            Energy/Eh            Energy/eV
      -------------------------------------------------------------
         1        2.0000           -0.7660153             -20.8443
       ...           ...                  ...                  ...
        36        2.0000           -0.4725768             -12.8595
        37        2.0000           -0.4696569             -12.7800
        38        2.0000           -0.4635172             -12.6129
        39        2.0000           -0.4592854             -12.4978
        40        2.0000           -0.4495123             -12.2319
        41        2.0000           -0.4351381             -11.8407
        42        2.0000           -0.4332625             -11.7897
        43        2.0000           -0.4108951             -11.1810
        44        2.0000           -0.3994521             -10.8696
        45        2.0000           -0.3917689             -10.6606
        46        2.0000           -0.3769254             -10.2567
        47        2.0000           -0.3705691             -10.0837
        48        2.0000           -0.2943555              -8.0098 (HOMO)
        49                         -0.2118242              -5.7640 (LUMO)
        50                         -0.1827605              -4.9732
        51                         -0.1186058              -3.2274
        52                         -0.1090035              -2.9661
        53                         -0.1083123              -2.9473
        54                         -0.1044247              -2.8415
        55                         -0.0885853              -2.4105
        56                         -0.0849051              -2.3104
        57                         -0.0653629              -1.7786
        58                         -0.0591558              -1.6097
        59                         -0.0576186              -1.5679
       ...                                ...                  ...
       100                          0.7084386              19.2776
      -------------------------------------------------------------
                  HL-Gap            0.0825313 Eh            2.2458 eV

Wiberg/Mayer (AO) data.
largest (>0.10) Wiberg bond orders for each atom

     #   Z sym  total        # sym  WBO       # sym  WBO       # sym  WBO
 ---------------------------------------------------------------------------
     1   6 C    3.919 --    18 H    0.987    19 H    0.981    20 H    0.980
                             2 O    0.951
     2   8 O    2.063 --     1 C    0.951     3 C    0.937
     3   6 C    3.871 --     5 C    1.429     4 O    1.336     2 O    0.937
     4   8 O    1.793 --     3 C    1.336    21 H    0.129     5 C    0.122
     5   6 C    3.861 --     3 C    1.429     6 C    1.072    17 N    1.052
                             4 O    0.122
     6   6 C    3.915 --     8 C    1.647     5 C    1.072     7 O    1.041
     7   8 O    1.971 --     6 C    1.041    21 H    0.749
     8   6 C    3.819 --     6 C    1.647    11 N    0.955     9 O    0.954
     9   8 O    2.020 --     8 C    0.954    10 C    0.934
    10   6 C    3.920 --    23 H    0.986    24 H    0.983    22 H    0.983
                             9 O    0.934
    11   7 N    3.194 --    12 C    1.047     8 C    0.955    25 H    0.915
                            17 N    0.112
    12   6 C    3.946 --    17 N    1.729    11 N    1.047    13 C    0.975
    13   6 C    3.964 --    14 C    0.993    15 C    0.987    12 C    0.975
                            16 N    0.974
    14   6 C    3.996 --    13 C    0.993    27 H    0.988    28 H    0.985
                            26 H    0.984
    15   6 C    3.994 --    13 C    0.987    30 H    0.987    31 H    0.986
                            29 H    0.986
    16   7 N    2.972 --    13 C    0.974    32 H    0.948    33 H    0.948
    17   7 N    3.025 --    12 C    1.729     5 C    1.052    11 N    0.112
    18   1 H    1.020 --     1 C    0.987
    19   1 H    1.020 --     1 C    0.981
    20   1 H    1.021 --     1 C    0.980
    21   1 H    0.891 --     7 O    0.749     4 O    0.129
    22   1 H    1.016 --    10 C    0.983
    23   1 H    1.019 --    10 C    0.986
    24   1 H    1.016 --    10 C    0.983
    25   1 H    0.983 --    11 N    0.915
    26   1 H    1.017 --    14 C    0.984
    27   1 H    1.006 --    14 C    0.988
    28   1 H    1.012 --    14 C    0.985
    29   1 H    1.003 --    15 C    0.986
    30   1 H    1.007 --    15 C    0.987
    31   1 H    1.011 --    15 C    0.986
    32   1 H    0.963 --    16 N    0.948
    33   1 H    0.964 --    16 N    0.948
 ---------------------------------------------------------------------------

           -------------------------------------------------
          | TOTAL ENERGY              -58.530909413793 Eh   |
          | GRADIENT NORM               0.000964396022 Eh/α |
          | HOMO-LUMO GAP               2.245789793375 eV   |
           -------------------------------------------------

 * finished run on 2023/06/20 at 15:02:05.185
