   * xtb version 6.5.1 (579679a) compiled by 'ehlert@majestix' on 2022-07-11
          program call               : /lustre/hpc/kemi/ree/PhD/git/ReactivityQM/dep/xtb-6.5.1/bin/xtb --gfn 1 /lustre/hpc/kemi/ree/PhD/git/ReactivityQM/calculations/R01/reac01prodN03/conf10/R01_reac01prodN03_conf10_gfn1.xyz --opt --vfukui --chrg 1 --uhf 0 --alpb DMSO

   ID    Z sym.   atoms
    1    6 C      1, 3, 5, 7, 8, 11
    2    8 O      2, 4, 6
    3    7 N      9, 10
    4    1 H      12-20

      * Solvation model:               ALPB
        Solvent                        DMSO
        Solvent mass                       7.8130E+01 g/mol
          :  Hamiltonian                  GFN1-xTB          :
 * total energy  :   -37.6204771 Eh     change       -0.2653877E-10 Eh
 * total energy  :   -37.6366434 Eh     change       -0.1616625E-01 Eh
 * total energy  :   -37.6425484 Eh     change       -0.5905061E-02 Eh
 * total energy  :   -37.6433675 Eh     change       -0.8191174E-03 Eh
 * total energy  :   -37.6436680 Eh     change       -0.3004779E-03 Eh
 * total energy  :   -37.6437110 Eh     change       -0.4298480E-04 Eh
 * total energy  :   -37.6437448 Eh     change       -0.3376934E-04 Eh
 * total energy  :   -37.6437761 Eh     change       -0.3131139E-04 Eh
 * total energy  :   -37.6438223 Eh     change       -0.4621650E-04 Eh
 * total energy  :   -37.6438799 Eh     change       -0.5756384E-04 Eh
 * total energy  :   -37.6440384 Eh     change        0.1971528E-04 Eh
 * total energy  :   -37.6441021 Eh     change       -0.6365412E-04 Eh
 * total energy  :   -37.6441231 Eh     change       -0.2095870E-04 Eh
 * total energy  :   -37.6441668 Eh     change       -0.4371832E-04 Eh
 * total energy  :   -37.6442121 Eh     change       -0.4528086E-04 Eh
 * total energy  :   -37.6442377 Eh     change       -0.2564216E-04 Eh
 * total energy  :   -37.6442636 Eh     change       -0.2586615E-04 Eh
 * total energy  :   -37.6442716 Eh     change       -0.8063344E-05 Eh
 * total energy  :   -37.6442752 Eh     change       -0.3593236E-05 Eh
   *** GEOMETRY OPTIMIZATION CONVERGED AFTER 22 ITERATIONS ***

 final structure:
================
20
 xtb: 6.5.1 (579679a)
C           -3.51913774538238        0.41189654344479       -0.43541225316014
O           -2.08275389145288        0.46482132976714       -0.28676323531984
C           -1.45502088461351       -0.67946364566376       -0.14846503511127
O           -1.93326105226962       -1.77389771218940       -0.12954290031092
C            0.02874291085129       -0.43399829380435       -0.01185218990479
O            0.89650665130609       -1.42343458265492        0.11503812951480
C            2.10450152426365       -0.85477294465481        0.20570898500811
C            3.32445618940086       -1.66773309582339        0.33444522753096
N            2.01003720280420        0.44717315201097        0.14051564427912
N            0.70237697042531        0.69618425859219        0.00331836966388
C            0.23895140740903        2.06217886961733       -0.11008542257248
H           -3.77209648863349       -0.23275610395559       -1.27798065461363
H           -3.83818287059676        1.43481921781171       -0.61582934726083
H           -3.96147101256195        0.02076094719140        0.48158977704608
H            4.14086353206627       -1.05446670591632        0.70912773623436
H            3.14228768538918       -2.51162079606363        0.99847682989814
H            3.59795744244385       -2.06360975412700       -0.64600786377984
H           -0.22867164708243        2.19133475229753       -1.08478239987751
H           -0.49572411883644        2.24960888505648        0.67052730394113
H            1.09963919506948        2.71697767906419       -0.00289270120514

          :  Hamiltonian                  GFN1-xTB          :
         :: total energy             -37.644275221414 Eh    ::
         :: gradient norm              0.000536364478 Eh/a0 ::
         :: HOMO-LUMO gap              3.653800054131 eV    ::
         :: SCC energy               -37.999192343038 Eh    ::
         :: -> Gsolv                  -0.081143758710 Eh    ::
         :: repulsion energy           0.363250214467 Eh    ::

    * Orbital Energies and Occupations

         #    Occupation            Energy/Eh            Energy/eV
      -------------------------------------------------------------
         1        2.0000           -0.9440798             -25.6897
       ...           ...                  ...                  ...
        18        2.0000           -0.6269400             -17.0599
        19        2.0000           -0.6085824             -16.5604
        20        2.0000           -0.6080685             -16.5464
        21        2.0000           -0.5935553             -16.1515
        22        2.0000           -0.5879259             -15.9983
        23        2.0000           -0.5743952             -15.6301
        24        2.0000           -0.5686501             -15.4738
        25        2.0000           -0.5614560             -15.2780
        26        2.0000           -0.5521802             -15.0256
        27        2.0000           -0.5441833             -14.8080
        28        2.0000           -0.5332406             -14.5102
        29        2.0000           -0.5323511             -14.4860
        30        2.0000           -0.5220529             -14.2058 (HOMO)
        31                         -0.3877783             -10.5520 (LUMO)
        32                         -0.3291684              -8.9571
        33                         -0.2701296              -7.3506
        34                         -0.1756637              -4.7801
        35                         -0.1694192              -4.6101
        36                         -0.1569947              -4.2720
        37                         -0.1120428              -3.0488
        38                         -0.1070715              -2.9136
        39                         -0.1006942              -2.7400
        40                         -0.0993023              -2.7022
        41                         -0.0921500              -2.5075
       ...                                ...                  ...
        62                          0.7338395              19.9688
      -------------------------------------------------------------
                  HL-Gap            0.1342747 Eh            3.6538 eV

Wiberg/Mayer (AO) data.
largest (>0.10) Wiberg bond orders for each atom

     #   Z sym  total        # sym  WBO       # sym  WBO       # sym  WBO
 ---------------------------------------------------------------------------
     1   6 C    3.824 --    13 H    0.983    12 H    0.977    14 H    0.976
                             2 O    0.853
     2   8 O    2.236 --     3 C    1.160     1 C    0.853     4 O    0.158
     3   6 C    3.882 --     4 O    1.711     2 O    1.160     5 C    0.940
     4   8 O    1.996 --     3 C    1.711     2 O    0.158
     5   6 C    3.852 --    10 N    1.448     6 O    1.135     3 C    0.940
     6   8 O    2.390 --     5 C    1.135     7 C    1.089
     7   6 C    3.837 --     9 N    1.546     6 O    1.089     8 C    1.044
     8   6 C    3.968 --     7 C    1.044    15 H    0.973    16 H    0.961
                            17 H    0.938
     9   7 N    2.967 --     7 C    1.546    10 N    1.178
    10   7 N    3.669 --     5 C    1.448     9 N    1.178    11 C    0.908
    11   6 C    3.876 --    20 H    0.978    19 H    0.963    18 H    0.961
                            10 N    0.908
    12   1 H    0.998 --     1 C    0.977
    13   1 H    1.003 --     1 C    0.983
    14   1 H    0.998 --     1 C    0.976
    15   1 H    0.990 --     8 C    0.973
    16   1 H    0.988 --     8 C    0.961
    17   1 H    0.987 --     8 C    0.938
    18   1 H    0.994 --    11 C    0.961
    19   1 H    0.995 --    11 C    0.963
    20   1 H    0.992 --    11 C    0.978
 ---------------------------------------------------------------------------

           -------------------------------------------------
          | TOTAL ENERGY              -37.644275221414 Eh   |
          | GRADIENT NORM               0.000536364478 Eh/α |
          | HOMO-LUMO GAP               3.653800054131 eV   |
           -------------------------------------------------

 * finished run on 2023/06/20 at 14:55:24.598
