   * xtb version 6.5.1 (579679a) compiled by 'ehlert@majestix' on 2022-07-11
          program call               : /lustre/hpc/kemi/ree/PhD/git/ReactivityQM/dep/xtb-6.5.1/bin/xtb --gfn 1 /lustre/hpc/kemi/ree/PhD/git/ReactivityQM/calculations/R01/reac02prodE03/conf13/R01_reac02prodE03_conf13_gfn1.xyz --opt --vfukui --chrg -1 --uhf 0 --alpb DMSO

   ID    Z sym.   atoms
    1    6 C      1, 3, 5, 6, 8-11, 14, 16
    2    8 O      2, 4, 15, 17
    3    7 N      7, 12, 13
    4    1 H      18-33

      * Solvation model:               ALPB
        Solvent                        DMSO
        Solvent mass                       7.8130E+01 g/mol
          :  Hamiltonian                  GFN1-xTB          :
 * total energy  :   -58.5304175 Eh     change       -0.4419576E-11 Eh
 * total energy  :   -58.5440839 Eh     change       -0.1366637E-01 Eh
 * total energy  :   -58.5478711 Eh     change       -0.3787261E-02 Eh
 * total energy  :   -58.5484817 Eh     change       -0.6105355E-03 Eh
 * total energy  :   -58.5489241 Eh     change       -0.4424519E-03 Eh
 * total energy  :   -58.5490516 Eh     change       -0.1274811E-03 Eh
 * total energy  :   -58.5491516 Eh     change       -0.1000260E-03 Eh
 * total energy  :   -58.5492434 Eh     change       -0.9173916E-04 Eh
 * total energy  :   -58.5493530 Eh     change       -0.1096789E-03 Eh
 * total energy  :   -58.5495016 Eh     change       -0.1486024E-03 Eh
 * total energy  :   -58.5518650 Eh     change       -0.1355686E-04 Eh
 * total energy  :   -58.5518803 Eh     change       -0.1527650E-04 Eh
 * total energy  :   -58.5518986 Eh     change       -0.1827398E-04 Eh
 * total energy  :   -58.5519070 Eh     change       -0.8455381E-05 Eh
 * total energy  :   -58.5519271 Eh     change       -0.2010307E-04 Eh
 * total energy  :   -58.5519377 Eh     change       -0.1052182E-04 Eh
 * total energy  :   -58.5519539 Eh     change       -0.1625154E-04 Eh
 * total energy  :   -58.5519615 Eh     change       -0.7583306E-05 Eh
 * total energy  :   -58.5519659 Eh     change       -0.4408763E-05 Eh
   *** GEOMETRY OPTIMIZATION CONVERGED AFTER 44 ITERATIONS ***

 final structure:
================
33
 xtb: 6.5.1 (579679a)
C            4.34524541052094        1.01551016007157        0.49282268817526
O            3.35320266044825        0.49324229143103       -0.38619359824292
C            2.06800575993973        0.61014258252917        0.01931236103014
O            1.77654174369489        1.16907410455852        1.06240088498555
C            1.09781301098062       -0.16734644126907       -0.87703839091871
C            1.51443122512055       -0.11960707362551       -2.35148874965948
N           -0.23978332670242        0.40275097826968       -0.74601298694822
C           -1.00083368107132       -0.02034230064978        0.19260104998653
C           -2.37967463542824        0.60876682587811        0.34859406414121
C           -2.66155649296890        0.97595293499634        1.81054986630164
C           -3.43587871757728       -0.38598268075967       -0.16852141008085
N           -2.41503665245394        1.84034549663325       -0.43674108918002
N           -0.67460074979038       -1.01485622652496        1.06579473140058
C            0.34362396561608       -1.98634762269743        0.69602367662073
O            0.31201434181972       -3.10804623177381        1.27717796570641
C            1.17935313357070       -1.54923852664601       -0.28423416389352
O            2.21798542480944       -2.38101119616590       -0.77785232857413
H            4.27389358858126        0.54634364217284        1.47885299340557
H            4.22592712145425        2.09743325960279        0.60493437937305
H            5.31365452487420        0.79550589673576        0.04627942220349
H            0.79510119311021       -0.68257260499157       -2.94501288922564
H            1.52955825522205        0.91151475605761       -2.70339272312672
H            2.50222773627465       -0.55773608712180       -2.48449188266190
H           -1.88651926329132        1.64630918575658        2.18382215937592
H           -3.62286883185623        1.48332458125603        1.87944157976623
H           -2.69836635678682        0.08808668497308        2.43930876375560
H           -3.25704714728394       -0.60303745756297       -1.22114695159179
H           -3.39333835699862       -1.31667353944192        0.39641529308555
H           -4.43220055026612        0.04076830524736       -0.06510371255803
H           -2.11135892858996        1.63150844121345       -1.38340724023213
H           -3.36871029492197        2.16831635258079       -0.48715638598275
H           -1.40564144101331       -1.40575298708663        1.63821931458022
H            2.13483733096249       -3.22634550364791       -0.31475869101608

          :  Hamiltonian                  GFN1-xTB          :
         :: total energy             -58.551965899860 Eh    ::
         :: gradient norm              0.000737469414 Eh/a0 ::
         :: HOMO-LUMO gap              2.069665760398 eV    ::
         :: SCC energy               -59.095058454132 Eh    ::
         :: -> Gsolv                  -0.112874328843 Eh    ::
         :: repulsion energy           0.562599590602 Eh    ::

    * Orbital Energies and Occupations

         #    Occupation            Energy/Eh            Energy/eV
      -------------------------------------------------------------
         1        2.0000           -0.8085175             -22.0009
       ...           ...                  ...                  ...
        36        2.0000           -0.4819003             -13.1132
        37        2.0000           -0.4774906             -12.9932
        38        2.0000           -0.4742546             -12.9051
        39        2.0000           -0.4693223             -12.7709
        40        2.0000           -0.4611198             -12.5477
        41        2.0000           -0.4504720             -12.2580
        42        2.0000           -0.4489197             -12.2157
        43        2.0000           -0.4328356             -11.7781
        44        2.0000           -0.3922177             -10.6728
        45        2.0000           -0.3910952             -10.6422
        46        2.0000           -0.3829733             -10.4212
        47        2.0000           -0.3718365             -10.1182
        48        2.0000           -0.3076965              -8.3728 (HOMO)
        49                         -0.2316377              -6.3032 (LUMO)
        50                         -0.2114070              -5.7527
        51                         -0.1293065              -3.5186
        52                         -0.1258177              -3.4237
        53                         -0.1134841              -3.0881
        54                         -0.1074352              -2.9235
        55                         -0.0972026              -2.6450
        56                         -0.0904912              -2.4624
        57                         -0.0660611              -1.7976
        58                         -0.0652124              -1.7745
        59                         -0.0645909              -1.7576
       ...                                ...                  ...
       100                          0.7084722              19.2785
      -------------------------------------------------------------
                  HL-Gap            0.0760588 Eh            2.0697 eV

Wiberg/Mayer (AO) data.
largest (>0.10) Wiberg bond orders for each atom

     #   Z sym  total        # sym  WBO       # sym  WBO       # sym  WBO
 ---------------------------------------------------------------------------
     1   6 C    3.893 --    20 H    0.987    19 H    0.981    18 H    0.981
                             2 O    0.915
     2   8 O    2.168 --     3 C    1.062     1 C    0.915     4 O    0.113
     3   6 C    3.813 --     4 O    1.624     2 O    1.062     5 C    0.922
     4   8 O    1.886 --     3 C    1.624     2 O    0.113
     5   6 C    3.967 --     6 C    0.989     7 N    0.973    16 C    0.952
                             3 C    0.922
     6   6 C    3.997 --     5 C    0.989    22 H    0.988    21 H    0.987
                            23 H    0.985
     7   7 N    2.977 --     8 C    1.683     5 C    0.973    13 N    0.154
     8   6 C    3.945 --     7 N    1.683    13 N    1.176     9 C    0.971
     9   6 C    3.968 --    10 C    0.993    12 N    0.988    11 C    0.978
                             8 C    0.971
    10   6 C    3.997 --     9 C    0.993    24 H    0.986    25 H    0.986
                            26 H    0.984
    11   6 C    3.995 --    27 H    0.986    29 H    0.985    28 H    0.984
                             9 C    0.978
    12   7 N    2.955 --     9 C    0.988    31 H    0.953    30 H    0.943
    13   7 N    3.298 --     8 C    1.176    32 H    0.915    14 C    0.911
                             7 N    0.154
    14   6 C    3.920 --    16 C    1.508    15 O    1.363    13 N    0.911
    15   8 O    1.707 --    14 C    1.363    16 C    0.166
    16   6 C    3.792 --    14 C    1.508     5 C    0.952    17 O    0.942
                            15 O    0.166
    17   8 O    1.915 --    16 C    0.942    33 H    0.859
    18   1 H    1.012 --     1 C    0.981
    19   1 H    1.012 --     1 C    0.981
    20   1 H    1.014 --     1 C    0.987
    21   1 H    1.013 --     6 C    0.987
    22   1 H    1.011 --     6 C    0.988
    23   1 H    1.018 --     6 C    0.985
    24   1 H    1.010 --    10 C    0.986
    25   1 H    1.004 --    10 C    0.986
    26   1 H    1.005 --    10 C    0.984
    27   1 H    1.007 --    11 C    0.986
    28   1 H    1.004 --    11 C    0.984
    29   1 H    1.005 --    11 C    0.985
    30   1 H    0.985 --    12 N    0.943
    31   1 H    0.967 --    12 N    0.953
    32   1 H    0.967 --    13 N    0.915
    33   1 H    0.891 --    17 O    0.859
 ---------------------------------------------------------------------------

           -------------------------------------------------
          | TOTAL ENERGY              -58.551965899860 Eh   |
          | GRADIENT NORM               0.000737469414 Eh/α |
          | HOMO-LUMO GAP               2.069665760398 eV   |
           -------------------------------------------------

 * finished run on 2023/06/20 at 14:58:40.859
