   * xtb version 6.5.1 (579679a) compiled by 'ehlert@majestix' on 2022-07-11
          program call               : /lustre/hpc/kemi/ree/PhD/git/ReactivityQM/dep/xtb-6.5.1/bin/xtb --gfn 1 /lustre/hpc/kemi/ree/PhD/git/ReactivityQM/calculations/R02/reac01prodE01/conf08/R02_reac01prodE01_conf08_gfn1.xyz --opt --vfukui --chrg -1 --uhf 0 --alpb DMSO

   ID    Z sym.   atoms
    1    6 C      1, 3, 5, 7-10, 12, 13, 15, 18, 19, 22, 24
    2    8 O      2, 4, 14, 20, 23, 25
    3    7 N      6, 11, 16, 17, 21
    4    1 H      26-43

      * Solvation model:               ALPB
        Solvent                        DMSO
        Solvent mass                       7.8130E+01 g/mol
          :  Hamiltonian                  GFN1-xTB          :
 * total energy  :   -83.8502119 Eh     change       -0.1432170E-09 Eh
 * total energy  :   -83.8639524 Eh     change       -0.1374059E-01 Eh
 * total energy  :   -83.8690324 Eh     change       -0.5079942E-02 Eh
 * total energy  :   -83.8700066 Eh     change       -0.9741943E-03 Eh
 * total energy  :   -83.8704333 Eh     change       -0.4267159E-03 Eh
 * total energy  :   -83.8705819 Eh     change       -0.1486187E-03 Eh
 * total energy  :   -83.8706790 Eh     change       -0.9709451E-04 Eh
 * total energy  :   -83.8707390 Eh     change       -0.6003995E-04 Eh
 * total energy  :   -83.8707880 Eh     change       -0.4896827E-04 Eh
 * total energy  :   -83.8708319 Eh     change       -0.4390222E-04 Eh
 * total energy  :   -83.8725669 Eh     change       -0.1382936E-04 Eh
 * total energy  :   -83.8725789 Eh     change       -0.1197843E-04 Eh
 * total energy  :   -83.8726014 Eh     change       -0.2256612E-04 Eh
 * total energy  :   -83.8726264 Eh     change       -0.2493840E-04 Eh
 * total energy  :   -83.8726433 Eh     change       -0.1695098E-04 Eh
 * total energy  :   -83.8726609 Eh     change       -0.1761569E-04 Eh
 * total energy  :   -83.8726749 Eh     change       -0.1399974E-04 Eh
 * total energy  :   -83.8726837 Eh     change       -0.8772116E-05 Eh
 * total energy  :   -83.8726879 Eh     change       -0.4232401E-05 Eh
   *** GEOMETRY OPTIMIZATION CONVERGED AFTER 70 ITERATIONS ***

 final structure:
================
43
 xtb: 6.5.1 (579679a)
C            5.16557932299538        2.70042209373084        1.31927898984308
O            4.16888946695322        1.79110922870863        0.84757407101833
C            4.44497546426955        0.49767381837978        0.96463346454732
O            5.48941749414551        0.08611434210159        1.44351308710226
C            3.37321522283466       -0.39351434075433        0.46850807259484
N            2.25766216566052        0.20548195406983       -0.05466169710007
C            1.29393510462401       -0.54354680047173       -0.48430552389033
C            0.04744051017748        0.04749677708173       -1.11615715601422
C            0.29767802532740        0.04054608001256       -2.63621240267086
C           -0.14964700917039        1.48125343653426       -0.59965198254144
N           -1.04139288036281       -0.86771883979789       -0.77297859335958
C           -2.47109714623316       -0.41709174494548       -1.17908232769783
C           -3.19438492697832       -1.76446024506602       -1.51608936392756
O           -2.54479953061197        0.48852237559433       -2.10281017803657
C           -3.09247928366837        0.06597068014585        0.17744967620774
N           -2.47993642557879        0.49360384833447        1.23707615209694
N           -3.45163703671606        0.88566467174461        2.13801017507168
C           -4.58446781137150        0.66825934498910        1.56031976284220
C           -5.94002878692785        0.91932545146470        2.10696116442558
O           -4.43430146115247        0.15288253364234        0.32421236795247
N            1.36714139691943       -1.90339217642342       -0.43982984308330
C            2.42764314427502       -2.62348395133732        0.05544071256438
O            2.42006783219349       -3.84615715248417        0.06625442951283
C            3.50762775019495       -1.75977571686768        0.54309223296849
O            4.57945659178427       -2.38371543695932        1.04812808975607
H            5.32256741951384        2.56084185306006        2.39117718914440
H            6.10739387743808        2.53110305079191        0.79296418148166
H            4.79461496195500        3.70324715211339        1.11839953416318
H           -0.55021085973076        0.48137288868092       -3.15839302350982
H            1.19653531733172        0.61252236702589       -2.86604674883346
H            0.43136473551409       -0.98431170850477       -2.98131095928317
H           -0.32821065999399        1.46678415806381        0.47551699405294
H            0.74601106306704        2.06851464019748       -0.80178807998166
H           -1.00158453604239        1.94371209484837       -1.09617326843137
H           -1.04928450746580       -0.97806667500550        0.24053379079487
H           -4.24381168116282       -1.55884818028462       -1.72032713380454
H           -3.11334679803110       -2.46926198790532       -0.69093183163110
H           -2.73176738813182       -2.18996376744231       -2.40447802379572
H           -5.85811534541818        1.29981275199929        3.12216515032016
H           -6.52033152686826       -0.00270129022433        2.11181434835632
H           -6.46730473725180        1.64712154677701        1.49033871875710
H            0.56228035770206       -2.42388457259886       -0.77588213835434
H            5.24664311400714       -1.72946555301418        1.35374892036420

          :  Hamiltonian                  GFN1-xTB          :
         :: total energy             -83.872687938274 Eh    ::
         :: gradient norm              0.000798110733 Eh/a0 ::
         :: HOMO-LUMO gap              0.848770029341 eV    ::
         :: SCC energy               -84.626861990261 Eh    ::
         :: -> Gsolv                  -0.111097903125 Eh    ::
         :: repulsion energy           0.781042732061 Eh    ::

    * Orbital Energies and Occupations

         #    Occupation            Energy/Eh            Energy/eV
      -------------------------------------------------------------
         1        2.0000           -0.8389200             -22.8282
       ...           ...                  ...                  ...
        56        2.0000           -0.4660099             -12.6808
        57        2.0000           -0.4634644             -12.6115
        58        2.0000           -0.4609954             -12.5443
        59        2.0000           -0.4481846             -12.1957
        60        2.0000           -0.4436006             -12.0710
        61        2.0000           -0.4393232             -11.9546
        62        2.0000           -0.4332700             -11.7899
        63        2.0000           -0.4180473             -11.3756
        64        2.0000           -0.4159792             -11.3194
        65        2.0000           -0.4146061             -11.2820
        66        2.0000           -0.3828447             -10.4177
        67        2.0000           -0.3526460              -9.5960
        68        2.0000           -0.3469519              -9.4410 (HOMO)
        69        0.0000           -0.3157602              -8.5923 (LUMO)
        70                         -0.2663460              -7.2476
        71                         -0.2327167              -6.3325
        72                         -0.2287634              -6.2250
        73                         -0.2143067              -5.8316
        74                         -0.1473400              -4.0093
        75                         -0.1365529              -3.7158
        76                         -0.1297744              -3.5313
        77                         -0.1013891              -2.7589
        78                         -0.0946945              -2.5768
        79                         -0.0854224              -2.3245
       ...                                ...                  ...
       136                          0.7243088              19.7094
      -------------------------------------------------------------
                  HL-Gap            0.0311917 Eh            0.8488 eV

Wiberg/Mayer (AO) data.
largest (>0.10) Wiberg bond orders for each atom

     #   Z sym  total        # sym  WBO       # sym  WBO       # sym  WBO
 ---------------------------------------------------------------------------
     1   6 C    3.871 --    28 H    0.986    27 H    0.979    26 H    0.979
                             2 O    0.897
     2   8 O    2.214 --     3 C    1.128     1 C    0.897     4 O    0.127
     3   6 C    3.844 --     4 O    1.602     2 O    1.128     5 C    1.024
     4   8 O    1.937 --     3 C    1.602     2 O    0.127
     5   6 C    3.967 --    24 C    1.484     6 N    1.186     3 C    1.024
     6   7 N    3.016 --     7 C    1.565     5 C    1.186
     7   6 C    3.909 --     6 N    1.565    21 N    1.175     8 C    0.976
     8   6 C    3.963 --    10 C    0.985    11 N    0.979     7 C    0.976
                             9 C    0.971
     9   6 C    3.992 --    30 H    0.989    31 H    0.987    29 H    0.972
                             8 C    0.971
    10   6 C    3.995 --    33 H    0.986     8 C    0.985    32 H    0.983
                            34 H    0.979
    11   7 N    2.999 --     8 C    0.979    35 H    0.948    12 C    0.834
    12   6 C    3.934 --    14 O    1.227    13 C    0.936    15 C    0.881
                            11 N    0.834
    13   6 C    3.992 --    37 H    0.991    38 H    0.987    36 H    0.987
                            12 C    0.936
    14   8 O    1.568 --    12 C    1.227
    15   6 C    3.808 --    16 N    1.647    20 O    1.052    12 C    0.881
    16   7 N    2.995 --    15 C    1.647    17 N    1.146
    17   7 N    2.976 --    18 C    1.656    16 N    1.146
    18   6 C    3.887 --    17 N    1.656    20 O    1.064    19 C    1.024
    19   6 C    3.992 --    18 C    1.024    39 H    0.985    40 H    0.970
                            41 H    0.969
    20   8 O    2.299 --    18 C    1.064    15 C    1.052
    21   7 N    3.476 --     7 C    1.175    22 C    1.140    42 H    0.876
                            23 O    0.136
    22   6 C    3.913 --    23 O    1.578    21 N    1.140    24 C    1.062
    23   8 O    1.877 --    22 C    1.578    21 N    0.136
    24   6 C    3.919 --     5 C    1.484    25 O    1.110    22 C    1.062
    25   8 O    2.079 --    24 C    1.110    43 H    0.784
    26   1 H    1.007 --     1 C    0.979
    27   1 H    1.007 --     1 C    0.979
    28   1 H    1.011 --     1 C    0.986
    29   1 H    1.031 --     9 C    0.972
    30   1 H    1.007 --     9 C    0.989
    31   1 H    1.010 --     9 C    0.987
    32   1 H    1.026 --    10 C    0.983
    33   1 H    1.015 --    10 C    0.986
    34   1 H    1.031 --    10 C    0.979
    35   1 H    0.989 --    11 N    0.948
    36   1 H    1.016 --    13 C    0.987
    37   1 H    1.011 --    13 C    0.991
    38   1 H    1.019 --    13 C    0.987
    39   1 H    1.002 --    19 C    0.985
    40   1 H    1.001 --    19 C    0.970
    41   1 H    1.001 --    19 C    0.969
    42   1 H    0.955 --    21 N    0.876
    43   1 H    0.858 --    25 O    0.784
 ---------------------------------------------------------------------------

           -------------------------------------------------
          | TOTAL ENERGY              -83.872687938274 Eh   |
          | GRADIENT NORM               0.000798110733 Eh/α |
          | HOMO-LUMO GAP               0.848770029341 eV   |
           -------------------------------------------------

 * finished run on 2023/06/20 at 14:52:26.455
