   * xtb version 6.5.1 (579679a) compiled by 'ehlert@majestix' on 2022-07-11
          program call               : /lustre/hpc/kemi/ree/PhD/git/ReactivityQM/dep/xtb-6.5.1/bin/xtb --gfn 1 /lustre/hpc/kemi/ree/PhD/git/ReactivityQM/calculations/RaltegravirCLI/reac02prodE08/conf11/RaltegravirCLI_reac02prodE08_conf11_gfn1.xyz --opt --vfukui --chrg -1 --uhf 0 --alpb DMSO

   ID    Z sym.   atoms
    1    6 C      1-5, 7, 9, 11-14, 17, 18, 20, 22-24
    2    7 N      6, 10, 15, 16
    3    8 O      8, 19, 21
    4    9 F      25
    5    1 H      26-47

      * Solvation model:               ALPB
        Solvent                        DMSO
        Solvent mass                       7.8130E+01 g/mol
          :  Hamiltonian                  GFN1-xTB          :
 * total energy  :   -80.1722485 Eh     change       -0.8617747E-09 Eh
 * total energy  :   -80.1815859 Eh     change       -0.9337344E-02 Eh
 * total energy  :   -80.1841055 Eh     change       -0.2519620E-02 Eh
 * total energy  :   -80.1846040 Eh     change       -0.4984724E-03 Eh
 * total energy  :   -80.1850804 Eh     change       -0.4764258E-03 Eh
 * total energy  :   -80.1853470 Eh     change       -0.2665994E-03 Eh
 * total energy  :   -80.1855772 Eh     change       -0.2302649E-03 Eh
 * total energy  :   -80.1857376 Eh     change       -0.1603714E-03 Eh
 * total energy  :   -80.1858673 Eh     change       -0.1296810E-03 Eh
 * total energy  :   -80.1859761 Eh     change       -0.1087856E-03 Eh
 * total energy  :   -80.1866217 Eh     change       -0.8824474E-05 Eh
 * total energy  :   -80.1866290 Eh     change       -0.7309217E-05 Eh
 * total energy  :   -80.1866352 Eh     change       -0.6204672E-05 Eh
 * total energy  :   -80.1866414 Eh     change       -0.6152631E-05 Eh
 * total energy  :   -80.1866482 Eh     change       -0.6779836E-05 Eh
 * total energy  :   -80.1866551 Eh     change       -0.6935348E-05 Eh
 * total energy  :   -80.1866616 Eh     change       -0.6452242E-05 Eh
 * total energy  :   -80.1866679 Eh     change       -0.6395800E-05 Eh
 * total energy  :   -80.1866713 Eh     change       -0.3394216E-05 Eh
   *** GEOMETRY OPTIMIZATION CONVERGED AFTER 44 ITERATIONS ***

 final structure:
================
47
 xtb: 6.5.1 (579679a)
C            5.92825201343616        0.96828144665617       -1.52695634604199
C            5.32143059368027        0.54820243755413       -0.15587588699552
C            3.95847346115385       -0.08501822740204       -0.33010276304615
C            3.71330105537380       -1.41021180558401       -0.09219711839119
C            2.33534589875523       -1.97591535793813       -0.37422465608833
N            1.28602680456904       -1.06189924880156        0.07085726381555
C            0.09677451405239       -0.99313532847126       -0.56519815283911
O           -0.13124303130793       -1.61558585344667       -1.60652273327216
C           -0.93220070691299       -0.11839168879837        0.06091182733775
N           -2.20007155616821       -0.30280454426373       -0.42769944983934
C           -3.21551916696036        0.36052344299901        0.01889965025185
C           -4.56036048045259        0.04295459253809       -0.62701000219157
C           -4.86423646149787        1.08953603724041       -1.70961698925365
C           -4.48717186555110       -1.34770475291357       -1.28120921947674
N           -5.62771375217768        0.05769553314717        0.37132640172492
N           -3.08407921465075        1.33135828211702        0.99023789367538
C           -4.20372616166590        2.10234442693375        1.52369032515530
C           -1.83737770179193        1.59700743510705        1.55768971317627
O           -1.68920729814511        2.44994874512235        2.44575368297424
C           -0.74261131079042        0.82652124413562        1.04775147398769
O            0.46976816150802        1.11107907051764        1.60222107199545
C            4.69002577377698       -2.28039920947462        0.43208424973862
C            5.95253478870894       -1.73592586331574        0.77363079596111
C            6.21303845720691       -0.43293354690244        0.54174529339924
F            7.42891072926782        0.09125519369831        0.93085580074357
H            6.90563661408459        1.42886543267124       -1.37934629377189
H            5.27163802596916        1.68403447210017       -2.02185508539070
H            6.04234104772407        0.09444895180421       -2.16916472929956
H            5.24310403673972        1.47607215055216        0.44163998292340
H            3.17268879327801        0.56636730649184       -0.70106966607525
H            2.21006784540617       -2.94433718380088        0.13038470738303
H            2.19793827722213       -2.14421964126694       -1.45072436648892
H            1.40661411478064       -0.63830107784550        0.97642504081109
H           -5.79006644957718        0.82937149725486       -2.22093193113249
H           -4.97734983972070        2.08254598891367       -1.27856659614908
H           -4.05493178916160        1.11476913589102       -2.43923927484074
H           -4.22866334552970       -2.09915482624107       -0.53617599696768
H           -5.45568680131217       -1.59630092862299       -1.71104423136698
H           -3.73281829248777       -1.36022660802677       -2.06780749884580
H           -6.52211111094493        0.04196306437046       -0.09642792606252
H           -5.57103905486894       -0.77469363576865        0.94409757112420
H           -4.77726161926844        1.49420352817427        2.22266550339132
H           -4.85747964572902        2.43116894187682        0.72137083993899
H           -3.80161959565527        2.97202418599044        2.04460071391955
H            0.32582508875844        1.80679703214194        2.26969845393113
H            4.47396188755304       -3.32400535615050        0.62060217947869
H            6.70084926933024       -2.35817789097448        1.25421147698348

          :  Hamiltonian                  GFN1-xTB          :
         :: total energy             -80.186671340670 Eh    ::
         :: gradient norm              0.000216032438 Eh/a0 ::
         :: HOMO-LUMO gap              0.099701920634 eV    ::
         :: SCC energy               -81.043756812975 Eh    ::
         :: -> Gsolv                  -0.103676669293 Eh    ::
         :: repulsion energy           0.886342436826 Eh    ::

    * Orbital Energies and Occupations

         #    Occupation            Energy/Eh            Energy/eV
      -------------------------------------------------------------
         1        2.0000           -0.8037891             -21.8722
       ...           ...                  ...                  ...
        56        2.0000           -0.4570052             -12.4357
        57        2.0000           -0.4438825             -12.0787
        58        2.0000           -0.4413765             -12.0105
        59        2.0000           -0.4357475             -11.8573
        60        2.0000           -0.4275498             -11.6342
        61        2.0000           -0.4248052             -11.5595
        62        2.0000           -0.4200810             -11.4310
        63        2.0000           -0.4125141             -11.2251
        64        2.0000           -0.4079153             -11.0999
        65        2.0000           -0.4045422             -11.0082
        66        2.0000           -0.3971643             -10.8074
        67        2.0000           -0.3823144             -10.4033
        68        1.7461           -0.2941177              -8.0034 (HOMO)
        69        0.2539           -0.2904537              -7.9036 (LUMO)
        70                         -0.2518441              -6.8530
        71                         -0.2024079              -5.5078
        72                         -0.1995826              -5.4309
        73                         -0.1308808              -3.5614
        74                         -0.1278007              -3.4776
        75                         -0.1231708              -3.3516
        76                         -0.1163053              -3.1648
        77                         -0.1102100              -2.9990
        78                         -0.0949922              -2.5849
        79                         -0.0932507              -2.5375
       ...                                ...                  ...
       144                          0.7087767              19.2868
      -------------------------------------------------------------
                  HL-Gap            0.0036640 Eh            0.0997 eV

Wiberg/Mayer (AO) data.
largest (>0.10) Wiberg bond orders for each atom

     #   Z sym  total        # sym  WBO       # sym  WBO       # sym  WBO
 ---------------------------------------------------------------------------
     1   6 C    3.971 --    28 H    0.989    27 H    0.988    26 H    0.987
                             2 C    0.964
     2   6 C    3.992 --    24 C    1.007     3 C    1.006     1 C    0.964
                            29 H    0.960
     3   6 C    3.816 --     4 C    1.585     2 C    1.006    30 H    0.975
     4   6 C    3.984 --     3 C    1.585    22 C    1.312     5 C    0.992
     5   6 C    3.942 --     4 C    0.992    31 H    0.972    32 H    0.968
                             6 N    0.938
     6   7 N    3.323 --     7 C    1.252     5 C    0.938    33 H    0.900
                             8 O    0.162
     7   6 C    3.880 --     8 O    1.531     6 N    1.252     9 C    1.021
     8   8 O    1.808 --     7 C    1.531     6 N    0.162
     9   6 C    3.867 --    20 C    1.424    10 N    1.186     7 C    1.021
    10   7 N    3.028 --    11 C    1.579     9 C    1.186
    11   6 C    3.894 --    10 N    1.579    16 N    1.146    12 C    0.976
    12   6 C    3.966 --    14 C    0.990    13 C    0.984    15 N    0.982
                            11 C    0.976
    13   6 C    3.993 --    36 H    0.986    12 C    0.984    34 H    0.984
                            35 H    0.979
    14   6 C    3.995 --    12 C    0.990    38 H    0.987    37 H    0.985
                            39 H    0.983
    15   7 N    2.976 --    12 C    0.982    41 H    0.943    40 H    0.942
    16   7 N    3.421 --    11 C    1.146    18 C    1.092    17 C    0.938
                            19 O    0.115
    17   6 C    3.934 --    43 H    0.979    42 H    0.977    44 H    0.976
                            16 N    0.938
    18   6 C    3.871 --    19 O    1.488    20 C    1.153    16 N    1.092
    19   8 O    1.822 --    18 C    1.488    16 N    0.115
    20   6 C    3.829 --     9 C    1.424    18 C    1.153    21 O    1.041
    21   8 O    2.022 --    20 C    1.041    45 H    0.816
    22   6 C    3.761 --     4 C    1.312    23 C    1.270    46 H    0.976
    23   6 C    3.990 --    24 C    1.627    22 C    1.270    47 H    0.971
    24   6 C    3.695 --    23 C    1.627     2 C    1.007    25 F    0.859
    25   9 F    0.965 --    24 C    0.859
    26   1 H    1.010 --     1 C    0.987
    27   1 H    1.011 --     1 C    0.988
    28   1 H    1.017 --     1 C    0.989
    29   1 H    1.006 --     2 C    0.960
    30   1 H    1.005 --     3 C    0.975
    31   1 H    1.011 --     5 C    0.972
    32   1 H    1.022 --     5 C    0.968
    33   1 H    0.961 --     6 N    0.900
    34   1 H    1.001 --    13 C    0.984
    35   1 H    1.006 --    13 C    0.979
    36   1 H    1.005 --    13 C    0.986
    37   1 H    1.009 --    14 C    0.985
    38   1 H    1.005 --    14 C    0.987
    39   1 H    1.017 --    14 C    0.983
    40   1 H    0.957 --    15 N    0.942
    41   1 H    0.959 --    15 N    0.943
    42   1 H    1.020 --    17 C    0.977
    43   1 H    1.021 --    17 C    0.979
    44   1 H    1.013 --    17 C    0.976
    45   1 H    0.862 --    21 O    0.816
    46   1 H    1.003 --    22 C    0.976
    47   1 H    1.006 --    23 C    0.971
 ---------------------------------------------------------------------------

           -------------------------------------------------
          | TOTAL ENERGY              -80.186671340670 Eh   |
          | GRADIENT NORM               0.000216032438 Eh/α |
          | HOMO-LUMO GAP               0.099701920634 eV   |
           -------------------------------------------------

 * finished run on 2023/06/20 at 15:06:54.878
