   * xtb version 6.5.1 (579679a) compiled by 'ehlert@majestix' on 2022-07-11
          program call               : /lustre/hpc/kemi/ree/PhD/git/ReactivityQM/dep/xtb-6.5.1/bin/xtb --gfn 1 /lustre/hpc/kemi/ree/PhD/git/ReactivityQM/calculations/R02oxygendeprot/reac01prodN11/conf05/R02oxygendeprot_reac01prodN11_conf05_gfn1.xyz --opt --vfukui --chrg 0 --uhf 0 --alpb DMSO

   ID    Z sym.   atoms
    1    6 C      1, 3, 5, 7-10, 12, 13, 15, 18, 19, 22, 24
    2    8 O      2, 4, 14, 20, 23, 25
    3    7 N      6, 11, 16, 17, 21
    4    1 H      26-42

      * Solvation model:               ALPB
        Solvent                        DMSO
        Solvent mass                       7.8130E+01 g/mol
          :  Hamiltonian                  GFN1-xTB          :
 * total energy  :   -82.8634724 Eh     change       -0.7058532E-10 Eh
 * total energy  :   -82.8748192 Eh     change       -0.1134681E-01 Eh
 * total energy  :   -82.8803001 Eh     change       -0.5480912E-02 Eh
 * total energy  :   -82.8817230 Eh     change       -0.1422859E-02 Eh
 * total energy  :   -82.8827701 Eh     change       -0.1047134E-02 Eh
 * total energy  :   -82.8834265 Eh     change       -0.6563449E-03 Eh
 * total energy  :   -82.8838316 Eh     change       -0.4051520E-03 Eh
 * total energy  :   -82.8840228 Eh     change       -0.1911946E-03 Eh
 * total energy  :   -82.8841009 Eh     change       -0.7806248E-04 Eh
 * total energy  :   -82.8841496 Eh     change       -0.4870543E-04 Eh
 * total energy  :   -82.8863321 Eh     change       -0.1695009E-04 Eh
 * total energy  :   -82.8863442 Eh     change       -0.1202125E-04 Eh
 * total energy  :   -82.8863545 Eh     change       -0.1039746E-04 Eh
 * total energy  :   -82.8863680 Eh     change       -0.1347927E-04 Eh
 * total energy  :   -82.8863736 Eh     change       -0.5579175E-05 Eh
 * total energy  :   -82.8863813 Eh     change       -0.7715061E-05 Eh
 * total energy  :   -82.8863855 Eh     change       -0.4193031E-05 Eh
 * total energy  :   -82.8863911 Eh     change       -0.5594723E-05 Eh
 * total energy  :   -82.8863960 Eh     change       -0.4927922E-05 Eh
   *** GEOMETRY OPTIMIZATION CONVERGED AFTER 69 ITERATIONS ***

 final structure:
================
42
 xtb: 6.5.1 (579679a)
C            5.42445169743505        1.78784637569608        1.79458706525957
O            4.32939133150481        1.27109051572745        1.03311831869961
C            4.41533020558499        1.40786951273796       -0.29220796850721
O            5.35126815834394        1.93584111163026       -0.84354934480226
C            3.22464476679088        0.82758869938101       -0.98377067412060
N            2.29674716154319        0.28237746525143       -0.19535925354006
C            1.19452121204068       -0.23152762252870       -0.69367409383315
C            0.23241300494283       -0.89662694591181        0.24744213832928
C            0.69128863073868       -2.37353528182000        0.34301269836751
C            0.29857671126120       -0.23809161274047        1.63915580618200
N           -1.10309299306927       -0.81761292277835       -0.26991824088598
C           -2.24562522378455       -1.49916774389637        0.33956858969554
C           -2.81642904506819       -2.42733427361489       -0.83187192694762
O           -2.04679600738012       -2.15135279041576        1.41876309044456
C           -3.34396376195533       -0.41903916587619        0.42343824925210
N           -4.24674981940291       -0.29029515634980        1.33202451551259
N           -5.01605070067138        0.77787871738196        0.94827953454152
C           -4.53682377410410        1.21196154754474       -0.17086613458765
C           -5.01250120488384        2.35060527435611       -0.98642369670327
O           -3.46656064642740        0.48886698074886       -0.56471674474927
N            0.95120153220325       -0.24204444446431       -2.02176815373670
C            1.81939147175706        0.26994880913947       -2.98267889317063
O            1.53796591704419        0.19953790906734       -4.15662375186886
C            3.09807868217118        0.87445834070716       -2.42900830549885
O            3.92495796937811        1.34786971298960       -3.19266674478561
H            5.19403780783138        1.59483129416479        2.83995984447660
H            5.52918383105844        2.86143833498723        1.62011625851649
H            6.35064607056470        1.28279553156218        1.50970504721962
H            0.59287121917070       -2.84645229262016       -0.63151876120617
H            0.08024149051453       -2.90462451609297        1.06851365048960
H            1.73279161101514       -2.40202769808992        0.65730034466797
H            1.32557821747374       -0.27322762431182        1.99777647084285
H           -0.02452755949539        0.79855019373796        1.56831690793696
H           -0.34851815336826       -0.77453576363759        2.32978590348084
H           -1.31853560361428       -0.12923696988164       -0.97159336843833
H           -2.06473434368824       -3.18612767510182       -1.02368308850338
H           -3.73325349822082       -2.88087197687694       -0.46701872950522
H           -3.00035985005797       -1.83232890337696       -1.71897512735160
H           -5.97216675729251        2.69488255248219       -0.60730551560983
H           -5.11279858813183        2.04582770215812       -2.02669525981087
H           -4.29362324387246        3.16826589601010       -0.94123720140922
H            0.10753007411722       -0.66426809707678       -2.37860645435213

          :  Hamiltonian                  GFN1-xTB          :
         :: total energy             -82.886396037528 Eh    ::
         :: gradient norm              0.000808750172 Eh/a0 ::
         :: HOMO-LUMO gap              0.085878988737 eV    ::
         :: SCC energy               -83.653524737182 Eh    ::
         :: -> Gsolv                  -0.071342809276 Eh    ::
         :: repulsion energy           0.793372416811 Eh    ::

    * Orbital Energies and Occupations

         #    Occupation            Energy/Eh            Energy/eV
      -------------------------------------------------------------
         1        2.0000           -0.8681469             -23.6235
       ...           ...                  ...                  ...
        55        2.0000           -0.5113507             -13.9146
        56        2.0000           -0.5058479             -13.7648
        57        2.0000           -0.5054098             -13.7529
        58        2.0000           -0.4976782             -13.5425
        59        2.0000           -0.4883692             -13.2892
        60        2.0000           -0.4805128             -13.0754
        61        2.0000           -0.4775725             -12.9954
        62        2.0000           -0.4607399             -12.5374
        63        2.0000           -0.4586478             -12.4804
        64        2.0000           -0.4536479             -12.3444
        65        2.0000           -0.4447154             -12.1013
        66        2.0000           -0.4373945             -11.9021
        67        1.6807           -0.4208976             -11.4532 (HOMO)
        68        0.3193           -0.4177416             -11.3673 (LUMO)
        69                         -0.3239628              -8.8155
        70                         -0.3003725              -8.1736
        71                         -0.2727379              -7.4216
        72                         -0.2543058              -6.9200
        73                         -0.2475534              -6.7363
        74                         -0.1731028              -4.7104
        75                         -0.1430029              -3.8913
        76                         -0.1413003              -3.8450
        77                         -0.1388762              -3.7790
        78                         -0.1354287              -3.6852
       ...                                ...                  ...
       134                          0.7535585              20.5054
      -------------------------------------------------------------
                  HL-Gap            0.0031560 Eh            0.0859 eV

Wiberg/Mayer (AO) data.
largest (>0.10) Wiberg bond orders for each atom

     #   Z sym  total        # sym  WBO       # sym  WBO       # sym  WBO
 ---------------------------------------------------------------------------
     1   6 C    3.868 --    26 H    0.986    28 H    0.978    27 H    0.978
                             2 O    0.896
     2   8 O    2.191 --     3 C    1.109     1 C    0.896     4 O    0.137
     3   6 C    3.845 --     4 O    1.664     2 O    1.109     5 C    1.000
     4   8 O    1.907 --     3 C    1.664     2 O    0.137
     5   6 C    3.756 --     6 N    1.376    24 C    1.117     3 C    1.000
     6   7 N    2.994 --     7 C    1.396     5 C    1.376
     7   6 C    3.835 --     6 N    1.396    21 N    1.231     8 C    1.004
     8   6 C    3.930 --     7 C    1.004    11 N    0.980    10 C    0.945
                             9 C    0.922
     9   6 C    3.958 --    31 H    0.985    29 H    0.985    30 H    0.972
                             8 C    0.922
    10   6 C    3.961 --    33 H    0.985    32 H    0.980    34 H    0.978
                             8 C    0.945
    11   7 N    3.211 --     8 C    0.980    12 C    0.925    35 H    0.894
                            14 O    0.165
    12   6 C    3.882 --    14 O    1.275    11 N    0.925    15 C    0.849
                            13 C    0.767
    13   6 C    3.819 --    38 H    0.987    37 H    0.981    36 H    0.980
                            12 C    0.767
    14   8 O    1.622 --    12 C    1.275    11 N    0.165
    15   6 C    3.788 --    16 N    1.661    20 O    1.057    12 C    0.849
    16   7 N    2.977 --    15 C    1.661    17 N    1.155
    17   7 N    2.978 --    18 C    1.638    16 N    1.155
    18   6 C    3.858 --    17 N    1.638    20 O    1.048    19 C    1.031
    19   6 C    3.985 --    18 C    1.031    39 H    0.981    40 H    0.968
                            41 H    0.960
    20   8 O    2.306 --    15 C    1.057    18 C    1.048
    21   7 N    3.452 --     7 C    1.231    22 C    1.083    42 H    0.875
                            23 O    0.104
    22   6 C    3.838 --    23 O    1.688    21 N    1.083    24 C    0.938
    23   8 O    1.911 --    22 C    1.688    21 N    0.104
    24   6 C    3.858 --    25 O    1.664     5 C    1.117    22 C    0.938
    25   8 O    1.824 --    24 C    1.664
    26   1 H    1.010 --     1 C    0.986
    27   1 H    1.005 --     1 C    0.978
    28   1 H    1.005 --     1 C    0.978
    29   1 H    0.999 --     9 C    0.985
    30   1 H    1.009 --     9 C    0.972
    31   1 H    0.999 --     9 C    0.985
    32   1 H    1.009 --    10 C    0.980
    33   1 H    0.999 --    10 C    0.985
    34   1 H    1.009 --    10 C    0.978
    35   1 H    0.937 --    11 N    0.894
    36   1 H    0.997 --    13 C    0.980
    37   1 H    1.000 --    13 C    0.981
    38   1 H    0.999 --    13 C    0.987
    39   1 H    0.998 --    19 C    0.981
    40   1 H    0.996 --    19 C    0.968
    41   1 H    0.997 --    19 C    0.960
    42   1 H    0.921 --    21 N    0.875
 ---------------------------------------------------------------------------

           -------------------------------------------------
          | TOTAL ENERGY              -82.886396037528 Eh   |
          | GRADIENT NORM               0.000808750172 Eh/α |
          | HOMO-LUMO GAP               0.085878988737 eV   |
           -------------------------------------------------

 * finished run on 2023/06/21 at 17:27:07.137
