   * xtb version 6.5.1 (579679a) compiled by 'ehlert@majestix' on 2022-07-11
          program call               : /lustre/hpc/kemi/ree/PhD/git/ReactivityQM/dep/xtb-6.5.1/bin/xtb --gfn 1 /lustre/hpc/kemi/ree/PhD/git/ReactivityQM/calculations/R03/reac02prodE03/conf01/R03_reac02prodE03_conf01_gfn1.xyz --opt --vfukui --chrg -1 --uhf 0 --alpb DMSO

   ID    Z sym.   atoms
    1    6 C      1, 3, 5, 6, 8-11, 13, 15, 18, 19, 22, 23, 25
    2    8 O      2, 4, 14, 20, 24, 26
    3    7 N      7, 12, 16, 17, 21
    4    1 H      27-46

      * Solvation model:               ALPB
        Solvent                        DMSO
        Solvent mass                       7.8130E+01 g/mol
          :  Hamiltonian                  GFN1-xTB          :
 * total energy  :   -86.9916950 Eh     change       -0.1278977E-11 Eh
 * total energy  :   -87.0075435 Eh     change       -0.1584852E-01 Eh
 * total energy  :   -87.0138350 Eh     change       -0.6291465E-02 Eh
 * total energy  :   -87.0152308 Eh     change       -0.1395839E-02 Eh
 * total energy  :   -87.0158464 Eh     change       -0.6156346E-03 Eh
 * total energy  :   -87.0160652 Eh     change       -0.2187423E-03 Eh
 * total energy  :   -87.0162388 Eh     change       -0.1736756E-03 Eh
 * total energy  :   -87.0164013 Eh     change       -0.1624444E-03 Eh
 * total energy  :   -87.0165784 Eh     change       -0.1771494E-03 Eh
 * total energy  :   -87.0167769 Eh     change       -0.1984139E-03 Eh
 * total energy  :   -87.0227208 Eh     change       -0.1659270E-04 Eh
 * total energy  :   -87.0227373 Eh     change       -0.1657204E-04 Eh
 * total energy  :   -87.0227506 Eh     change       -0.1329519E-04 Eh
 * total energy  :   -87.0227623 Eh     change       -0.1168317E-04 Eh
 * total energy  :   -87.0227788 Eh     change       -0.1652211E-04 Eh
 * total energy  :   -87.0227876 Eh     change       -0.8719999E-05 Eh
 * total energy  :   -87.0228009 Eh     change       -0.1332218E-04 Eh
 * total energy  :   -87.0228060 Eh     change       -0.5070337E-05 Eh
 * total energy  :   -87.0228087 Eh     change       -0.2741429E-05 Eh
   *** GEOMETRY OPTIMIZATION CONVERGED AFTER 83 ITERATIONS ***

 final structure:
================
46
 xtb: 6.5.1 (579679a)
C           -3.41493114756098        0.43598978100258       -3.18179485759506
O           -3.23535084604156        1.54305325034660       -2.30896069488234
C           -3.53965176753508        1.33029134040456       -0.95912039868666
O           -4.71894194895112        1.93016805353576       -0.53945120457542
C           -5.90014868692847        1.13674837560104       -0.60255230829230
C           -2.70770566848176        0.62103840676085       -0.13358996819469
N           -1.52228425188083        0.13495884001952       -0.70557758863453
C           -0.63120482974111       -0.47737118823286       -0.00433808461166
C            0.60358780645610       -0.95007021394599       -0.77967270866756
C            0.51454097920563       -0.46410898188463       -2.23450946863470
C            0.70721828366181       -2.48158298643325       -0.77286920013259
N            1.78465515178957       -0.32573211997528       -0.16407654267662
C            3.05604024715247       -0.57411384208632       -0.54756693577954
O            3.41357312270038       -1.45060994921422       -1.32127995695694
C            3.99473440360119        0.36044584409022        0.11763779354249
N            3.66734607295947        1.33353139162616        0.92013903563886
N            4.82877959929659        1.95100686374253        1.28311121935267
C            5.78789447662372        1.31979709396138        0.68005357610990
C            7.23810009474794        1.60738351937950        0.74696460633680
O            5.32995015180453        0.30587684998344       -0.07187515106639
N           -0.74592611287400       -0.68913773593335        1.33898994897304
C            0.20371924633138       -1.41743327697991        2.17029333480210
C           -1.96609344916418       -0.32907694511226        2.01816838943599
O           -2.09053156858560       -0.62742481982796        3.23620227645998
C           -2.90179949141846        0.33695623583951        1.25136050450834
O           -4.10360464760820        0.69014516729914        1.88242949174518
H           -2.77828558506149       -0.40691911697066       -2.88396778843434
H           -3.12599222992235        0.76512672851969       -4.18223498106618
H           -4.45940657815513        0.10077459529844       -3.20273438694013
H           -6.70704954708003        1.72816257975935       -0.16475076969644
H           -6.16168332206058        0.88725016016556       -1.63820512809740
H           -5.78235197472064        0.20894286515698       -0.03048633158346
H            0.42134631079190        0.62062698671531       -2.26614211189998
H            1.40828642532031       -0.76390791909923       -2.77913665074598
H           -0.35770835183389       -0.90511805267729       -2.71391358213077
H            1.03334472725754       -2.85998739196378        0.19222716517606
H            1.41806063088817       -2.81578645257182       -1.52659540583049
H           -0.27020380576632       -2.90289563701803       -1.00514102111015
H            1.63022712910885        0.51137891839014        0.38178595149766
H            7.77297575097204        0.74482631460032        1.14398090116459
H            7.41006762241862        2.46812852414027        1.38816949130265
H            7.62473181283157        1.81307115658445       -0.25087105070324
H            1.21595154134687       -1.32180522519624        1.78878910356035
H            0.16658161413221       -0.99887771727193        3.17832016535764
H           -0.07115439881707       -2.47393662253225        2.22673124084740
H           -4.03970399121056        0.35021835200020        2.78950808181742

          :  Hamiltonian                  GFN1-xTB          :
         :: total energy             -87.022808694172 Eh    ::
         :: gradient norm              0.000559482172 Eh/a0 ::
         :: HOMO-LUMO gap              0.168387196610 eV    ::
         :: SCC energy               -87.816392572021 Eh    ::
         :: -> Gsolv                  -0.113366498776 Eh    ::
         :: repulsion energy           0.822902239340 Eh    ::

    * Orbital Energies and Occupations

         #    Occupation            Energy/Eh            Energy/eV
      -------------------------------------------------------------
         1        2.0000           -0.8537424             -23.2315
       ...           ...                  ...                  ...
        59        2.0000           -0.4717730             -12.8376
        60        2.0000           -0.4694673             -12.7749
        61        2.0000           -0.4530413             -12.3279
        62        2.0000           -0.4499134             -12.2428
        63        2.0000           -0.4416568             -12.0181
        64        2.0000           -0.4340794             -11.8119
        65        2.0000           -0.4317790             -11.7493
        66        2.0000           -0.4308887             -11.7251
        67        2.0000           -0.4205655             -11.4442
        68        2.0000           -0.3961845             -10.7807
        69        2.0000           -0.3913230             -10.6484
        70        2.0000           -0.3723812             -10.1330
        71        1.9258           -0.3067457              -8.3470 (HOMO)
        72        0.0742           -0.3005576              -8.1786 (LUMO)
        73                         -0.2491998              -6.7811
        74                         -0.2328309              -6.3357
        75                         -0.1959515              -5.3321
        76                         -0.1872448              -5.0952
        77                         -0.1394448              -3.7945
        78                         -0.1241362              -3.3779
        79                         -0.1194614              -3.2507
        80                         -0.1140343              -3.1030
        81                         -0.1071721              -2.9163
        82                         -0.1002643              -2.7283
       ...                                ...                  ...
       144                          0.7255461              19.7431
      -------------------------------------------------------------
                  HL-Gap            0.0061881 Eh            0.1684 eV

Wiberg/Mayer (AO) data.
largest (>0.10) Wiberg bond orders for each atom

     #   Z sym  total        # sym  WBO       # sym  WBO       # sym  WBO
 ---------------------------------------------------------------------------
     1   6 C    3.916 --    28 H    0.985    29 H    0.980    27 H    0.979
                             2 O    0.936
     2   8 O    2.002 --     1 C    0.936     3 C    0.936
     3   6 C    3.723 --     6 C    1.514     4 O    0.954     2 O    0.936
     4   8 O    2.012 --     3 C    0.954     5 C    0.930
     5   6 C    3.915 --    30 H    0.985    31 H    0.981    32 H    0.981
                             4 O    0.930
     6   6 C    3.953 --     3 C    1.514    25 C    1.177     7 N    1.077
     7   7 N    3.012 --     8 C    1.608     6 C    1.077    21 N    0.134
     8   6 C    3.946 --     7 N    1.608    21 N    1.188     9 C    0.966
     9   6 C    3.929 --    10 C    0.992    11 C    0.990     8 C    0.966
                            12 N    0.912
    10   6 C    3.993 --     9 C    0.992    33 H    0.985    34 H    0.984
                            35 H    0.983
    11   6 C    3.992 --     9 C    0.990    38 H    0.986    36 H    0.981
                            37 H    0.980
    12   7 N    3.337 --    13 C    1.244     9 C    0.912    39 H    0.900
                            14 O    0.172
    13   6 C    3.895 --    14 O    1.571    12 N    1.244    15 C    0.999
    14   8 O    1.877 --    13 C    1.571    12 N    0.172
    15   6 C    3.842 --    16 N    1.587    20 O    1.053    13 C    0.999
    16   7 N    2.977 --    15 C    1.587    17 N    1.193
    17   7 N    2.980 --    18 C    1.613    16 N    1.193
    18   6 C    3.865 --    17 N    1.613    20 O    1.078    19 C    1.030
    19   6 C    3.988 --    18 C    1.030    41 H    0.983    42 H    0.965
                            40 H    0.964
    20   8 O    2.309 --    18 C    1.078    15 C    1.053
    21   7 N    3.401 --     8 C    1.188    23 C    0.954    22 C    0.952
                             7 N    0.134
    22   6 C    3.952 --    43 H    0.981    45 H    0.979    44 H    0.977
                            21 N    0.952
    23   6 C    3.903 --    24 O    1.389    25 C    1.385    21 N    0.954
    24   8 O    1.739 --    23 C    1.389    25 C    0.127
    25   6 C    3.823 --    23 C    1.385     6 C    1.177    26 O    0.967
                            24 O    0.127
    26   8 O    1.945 --    25 C    0.967    46 H    0.851
    27   1 H    1.032 --     1 C    0.979
    28   1 H    1.019 --     1 C    0.985
    29   1 H    1.018 --     1 C    0.980
    30   1 H    1.020 --     5 C    0.985
    31   1 H    1.018 --     5 C    0.981
    32   1 H    1.030 --     5 C    0.981
    33   1 H    1.017 --    10 C    0.985
    34   1 H    1.008 --    10 C    0.984
    35   1 H    1.018 --    10 C    0.983
    36   1 H    1.006 --    11 C    0.981
    37   1 H    1.015 --    11 C    0.980
    38   1 H    1.004 --    11 C    0.986
    39   1 H    0.962 --    12 N    0.900
    40   1 H    0.997 --    19 C    0.964
    41   1 H    0.999 --    19 C    0.983
    42   1 H    0.997 --    19 C    0.965
    43   1 H    1.013 --    22 C    0.981
    44   1 H    1.020 --    22 C    0.977
    45   1 H    1.007 --    22 C    0.979
    46   1 H    0.892 --    26 O    0.851
 ---------------------------------------------------------------------------

           -------------------------------------------------
          | TOTAL ENERGY              -87.022808694172 Eh   |
          | GRADIENT NORM               0.000559482172 Eh/α |
          | HOMO-LUMO GAP               0.168387196610 eV   |
           -------------------------------------------------

 * finished run on 2023/06/20 at 15:17:36.356
