   * xtb version 6.5.1 (579679a) compiled by 'ehlert@majestix' on 2022-07-11
          program call               : /lustre/hpc/kemi/ree/PhD/git/ReactivityQM/dep/xtb-6.5.1/bin/xtb --gfn 1 /lustre/hpc/kemi/ree/PhD/git/ReactivityQM/calculations/RaltegravirCLI/reac01prodN06/conf04/RaltegravirCLI_reac01prodN06_conf04_gfn1.xyz --opt --vfukui --chrg 1 --uhf 0 --alpb DMSO

   ID    Z sym.   atoms
    1    6 C      1, 2, 5-7
    2    7 N      3, 4
    3    8 O      8, 10
    4   17 Cl     9
    5    1 H      11-16

      * Solvation model:               ALPB
        Solvent                        DMSO
        Solvent mass                       7.8130E+01 g/mol
          :  Hamiltonian                  GFN1-xTB          :
 * total energy  :   -33.2671421 Eh     change       -0.4404654E-10 Eh
 * total energy  :   -33.2756235 Eh     change       -0.8481444E-02 Eh
 * total energy  :   -33.2815801 Eh     change       -0.5956626E-02 Eh
 * total energy  :   -33.2832222 Eh     change       -0.1642102E-02 Eh
 * total energy  :   -33.2850704 Eh     change       -0.1848155E-02 Eh
 * total energy  :   -33.2860006 Eh     change       -0.9301720E-03 Eh
 * total energy  :   -33.2873902 Eh     change       -0.1389580E-02 Eh
 * total energy  :   -33.2916626 Eh     change       -0.4272494E-02 Eh
 * total energy  :   -33.2989598 Eh     change       -0.7297179E-02 Eh
 * total energy  :   -33.3133374 Eh     change       -0.1437756E-01 Eh
 * total energy  :   -33.3941623 Eh     change       -0.4512452E-04 Eh
 * total energy  :   -33.3941900 Eh     change       -0.2768302E-04 Eh
 * total energy  :   -33.3942280 Eh     change       -0.3798039E-04 Eh
 * total energy  :   -33.3942747 Eh     change       -0.4669908E-04 Eh
 * total energy  :   -33.3943012 Eh     change       -0.2656295E-04 Eh
 * total energy  :   -33.3943157 Eh     change       -0.1445680E-04 Eh
 * total energy  :   -33.3943266 Eh     change       -0.1095378E-04 Eh
 * total energy  :   -33.3943301 Eh     change       -0.3421732E-05 Eh
 * total energy  :   -33.3943320 Eh     change       -0.1936238E-05 Eh
   *** GEOMETRY OPTIMIZATION CONVERGED AFTER 56 ITERATIONS ***

 final structure:
================
16
 xtb: 6.5.1 (579679a)
C            2.40671548250460        0.07457765542356       -1.21789087226645
C            1.55476121392489       -0.32940446983801       -0.08830861631039
N            1.91720179510167       -0.94181130983300        1.01372238092324
N            0.82302519249622       -1.11798602828391        1.75015907858914
C           -0.18024438404199       -0.60579833608038        1.07605905643051
C           -1.53838541694370       -0.58611544335397        1.51795535481703
C           -2.14125940576393        0.87243691286520       -1.11081868972221
O           -2.00893351892729       -1.00435867847181        2.51615526713933
Cl          -2.78958816936134        0.19757961457283        0.41375475459339
O            0.24108483782794       -0.09382421368728       -0.09979987383501
H            3.45562195416826       -0.03135196464917       -0.94938292488084
H            2.18804713195154        1.10504847043806       -1.49587402116489
H            2.18783861318396       -0.55508031523442       -2.08205665388367
H           -3.00632007129419        1.29586118575639       -1.61562863710638
H           -1.69983048685539        0.07711460238274       -1.70364773957422
H           -1.40973276797158        1.64311331799330       -0.88764586374854

          :  Hamiltonian                  GFN1-xTB          :
         :: total energy             -33.394331986432 Eh    ::
         :: gradient norm              0.000763263257 Eh/a0 ::
         :: HOMO-LUMO gap              2.775614811269 eV    ::
         :: SCC energy               -33.688562450345 Eh    ::
         :: -> Gsolv                  -0.093330507840 Eh    ::
         :: repulsion energy           0.301539618594 Eh    ::

    * Orbital Energies and Occupations

         #    Occupation            Energy/Eh            Energy/eV
      -------------------------------------------------------------
         1        2.0000           -1.0659426             -29.0058
       ...           ...                  ...                  ...
        15        2.0000           -0.6297990             -17.1377
        16        2.0000           -0.6109141             -16.6238
        17        2.0000           -0.6049439             -16.4614
        18        2.0000           -0.5926799             -16.1276
        19        2.0000           -0.5777399             -15.7211
        20        2.0000           -0.5725473             -15.5798
        21        2.0000           -0.5589273             -15.2092
        22        2.0000           -0.5567174             -15.1491
        23        2.0000           -0.5434283             -14.7874
        24        2.0000           -0.5419115             -14.7462
        25        2.0000           -0.5270599             -14.3420
        26        2.0000           -0.5015555             -13.6480
        27        2.0000           -0.4969875             -13.5237 (HOMO)
        28                         -0.3949856             -10.7481 (LUMO)
        29                         -0.3161290              -8.6023
        30                         -0.3042472              -8.2790
        31                         -0.3007853              -8.1848
        32                         -0.2724034              -7.4125
        33                         -0.1839343              -5.0051
        34                         -0.1836482              -4.9973
        35                         -0.1620910              -4.4107
        36                         -0.1619433              -4.4067
        37                         -0.1565339              -4.2595
        38                         -0.1117247              -3.0402
       ...                                ...                  ...
        57                          0.7537959              20.5118
      -------------------------------------------------------------
                  HL-Gap            0.1020020 Eh            2.7756 eV

Wiberg/Mayer (AO) data.
largest (>0.10) Wiberg bond orders for each atom

     #   Z sym  total        # sym  WBO       # sym  WBO       # sym  WBO
 ---------------------------------------------------------------------------
     1   6 C    3.974 --     2 C    1.046    11 H    0.977    12 H    0.957
                            13 H    0.943
     2   6 C    3.845 --     3 N    1.503    10 O    1.099     1 C    1.046
     3   7 N    3.001 --     2 C    1.503     4 N    1.303
     4   7 N    3.022 --     5 C    1.501     3 N    1.303
     5   6 C    3.884 --     4 N    1.501     6 C    1.113    10 O    1.038
     6   6 C    3.869 --     8 O    1.841     5 C    1.113     9 Cl   0.776
     7   6 C    3.864 --    15 H    0.980    16 H    0.980    14 H    0.969
                             9 Cl   0.898
     8   8 O    2.156 --     6 C    1.841     9 Cl   0.138
     9  17 Cl   1.892 --     7 C    0.898     6 C    0.776     8 O    0.138
    10   8 O    2.337 --     2 C    1.099     5 C    1.038
    11   1 H    0.992 --     1 C    0.977
    12   1 H    0.990 --     1 C    0.957
    13   1 H    0.988 --     1 C    0.943
    14   1 H    0.992 --     7 C    0.969
    15   1 H    1.000 --     7 C    0.980
    16   1 H    1.000 --     7 C    0.980
 ---------------------------------------------------------------------------

           -------------------------------------------------
          | TOTAL ENERGY              -33.394331986432 Eh   |
          | GRADIENT NORM               0.000763263257 Eh/α |
          | HOMO-LUMO GAP               2.775614811269 eV   |
           -------------------------------------------------

 * finished run on 2023/06/20 at 14:55:31.617
