                         Program Version 5.0.1 -  RELEASE  -
|  1> # ORCA input file
|  2> ! SP r2SCAN-3c CPCM
|  3>
|  4> %maxcore 1875.0
|  5> %pal nprocs 4 end
|  6> %cpcm smd true SMDsolvent "DMSO" end
|  7>
|  8> *xyz -2 1
|  9> C       6.624476   -0.844882   -0.918954
| 10> O       5.294292   -0.536224   -0.520803
| 11> C       5.118781   -0.244721    0.785473
| 12> O       6.052053   -0.240075    1.565231
| 13> C       3.707988    0.042669    1.116000
| 14> N       2.814123    0.013947    0.081180
| 15> C       1.545174    0.245427    0.357344
| 16> C       0.601976    0.193384   -0.844111
| 17> C       1.032947    1.283945   -1.839467
| 18> C       0.734407   -1.196692   -1.495657
| 19> N      -0.753719    0.443198   -0.383203
| 20> C      -1.867378    0.247625   -1.197195
| 21> O      -1.779046    0.234057   -2.443618
| 22> C      -3.064480    0.127841   -0.442752
| 23> N      -3.140283    0.125871    0.877813
| 24> N      -4.369422   -0.037112    1.284294
| 25> C      -5.209482   -0.174828    0.085229
| 26> C      -6.276490    0.933683    0.061746
| 27> C      -5.876075   -1.563276    0.078442
| 28> O      -4.335652   -0.044201   -1.026282
| 29> N       1.021137    0.511410    1.553006
| 30> C       1.842740    0.569378    2.624618
| 31> O       1.465536    0.815891    3.790693
| 32> C       3.264898    0.319612    2.384217
| 33> O       4.052484    0.376851    3.484426
| 34> H       6.993348   -1.720614   -0.377269
| 35> H       7.290430   -0.000078   -0.721658
| 36> H       6.596651   -1.053944   -1.986883
| 37> H       2.076147    1.130745   -2.115026
| 38> H       0.931533    2.267331   -1.379645
| 39> H       0.417275    1.247253   -2.737335
| 40> H       0.149186   -1.251174   -2.412604
| 41> H       0.390570   -1.968453   -0.806764
| 42> H       1.782064   -1.380243   -1.732796
| 43> H      -0.895064    0.251644    0.607332
| 44> H      -6.901079    0.857499    0.949396
| 45> H      -6.899742    0.841037   -0.825937
| 46> H      -5.788757    1.907226    0.053386
| 47> H      -6.504281   -1.672725    0.959993
| 48> H      -6.484706   -1.686957   -0.815557
| 49> H      -5.105127   -2.332317    0.093562
| 50> H       3.450571    0.584460    4.230133
| 51> **                         ****END OF INPUT****

CARTESIAN COORDINATES (ANGSTROEM)
---------------------------------
  C      6.624476   -0.844882   -0.918954
  O      5.294292   -0.536224   -0.520803
  C      5.118781   -0.244721    0.785473
  O      6.052053   -0.240075    1.565231
  C      3.707988    0.042669    1.116000
  N      2.814123    0.013947    0.081180
  C      1.545174    0.245427    0.357344
  C      0.601976    0.193384   -0.844111
  C      1.032947    1.283945   -1.839467
  C      0.734407   -1.196692   -1.495657
  N     -0.753719    0.443198   -0.383203
  C     -1.867378    0.247625   -1.197195
  O     -1.779046    0.234057   -2.443618
  C     -3.064480    0.127841   -0.442752
  N     -3.140283    0.125871    0.877813
  N     -4.369422   -0.037112    1.284294
  C     -5.209482   -0.174828    0.085229
  C     -6.276490    0.933683    0.061746
  C     -5.876075   -1.563276    0.078442
  O     -4.335652   -0.044201   -1.026282
  N      1.021137    0.511410    1.553006
  C      1.842740    0.569378    2.624618
  O      1.465536    0.815891    3.790693
  C      3.264898    0.319612    2.384217
  O      4.052484    0.376851    3.484426
  H      6.993348   -1.720614   -0.377269
  H      7.290430   -0.000078   -0.721658
  H      6.596651   -1.053944   -1.986883
  H      2.076147    1.130745   -2.115026
  H      0.931533    2.267331   -1.379645
  H      0.417275    1.247253   -2.737335
  H      0.149186   -1.251174   -2.412604
  H      0.390570   -1.968453   -0.806764
  H      1.782064   -1.380243   -1.732796
  H     -0.895064    0.251644    0.607332
  H     -6.901079    0.857499    0.949396
  H     -6.899742    0.841037   -0.825937
  H     -5.788757    1.907226    0.053386
  H     -6.504281   -1.672725    0.959993
  H     -6.484706   -1.686957   -0.815557
  H     -5.105127   -2.332317    0.093562
  H      3.450571    0.584460    4.230133

 Total Charge           Charge          ....   -2
 Multiplicity           Mult            ....    1
 Number of Electrons    NEL             ....  186
 Basis Dimension        Dim             ....  615

ORBITAL ENERGIES
----------------

  NO   OCC          E(Eh)            E(eV)
   0   2.0000     -18.983463      -516.5663
   1   2.0000     -18.969102      -516.1755
   2   2.0000     -18.945869      -515.5433
   3   2.0000     -18.922089      -514.8962
   4   2.0000     -18.890578      -514.0388
   5   2.0000     -18.878824      -513.7189
   6   2.0000     -14.158750      -385.2792
   7   2.0000     -14.135589      -384.6489
   8   2.0000     -14.124092      -384.3361
   9   2.0000     -14.123927      -384.3316
  10   2.0000     -14.119667      -384.2157
  11   2.0000     -10.144414      -276.0435
  12   2.0000     -10.094659      -274.6896
  13   2.0000     -10.093413      -274.6557
  14   2.0000     -10.084518      -274.4137
  15   2.0000     -10.081917      -274.3429
  16   2.0000     -10.072404      -274.0841
  17   2.0000     -10.067127      -273.9404
  18   2.0000     -10.061108      -273.7767
  19   2.0000     -10.059839      -273.7421
  20   2.0000     -10.053043      -273.5572
  21   2.0000     -10.000069      -272.1157
  22   2.0000      -9.999977      -272.1132
  23   2.0000      -9.998366      -272.0694
  24   2.0000      -9.998101      -272.0622
  25   2.0000      -1.057323       -28.7712
  26   2.0000      -1.026030       -27.9197
  27   2.0000      -1.019254       -27.7353
  28   2.0000      -0.965560       -26.2742
  29   2.0000      -0.958531       -26.0830
  30   2.0000      -0.953612       -25.9491
  31   2.0000      -0.912404       -24.8278
  32   2.0000      -0.902725       -24.5644
  33   2.0000      -0.852463       -23.1967
  34   2.0000      -0.814284       -22.1578
  35   2.0000      -0.763349       -20.7718
  36   2.0000      -0.740808       -20.1584
  37   2.0000      -0.704867       -19.1804
  38   2.0000      -0.682804       -18.5800
  39   2.0000      -0.662303       -18.0222
  40   2.0000      -0.640900       -17.4398
  41   2.0000      -0.636704       -17.3256
  42   2.0000      -0.606584       -16.5060
  43   2.0000      -0.599653       -16.3174
  44   2.0000      -0.576591       -15.6898
  45   2.0000      -0.536576       -14.6010
  46   2.0000      -0.526433       -14.3250
  47   2.0000      -0.518551       -14.1105
  48   2.0000      -0.506542       -13.7837
  49   2.0000      -0.491032       -13.3617
  50   2.0000      -0.478911       -13.0318
  51   2.0000      -0.464453       -12.6384
  52   2.0000      -0.459229       -12.4963
  53   2.0000      -0.438275       -11.9261
  54   2.0000      -0.422251       -11.4900
  55   2.0000      -0.414668       -11.2837
  56   2.0000      -0.409556       -11.1446
  57   2.0000      -0.405725       -11.0403
  58   2.0000      -0.397582       -10.8188
  59   2.0000      -0.392250       -10.6737
  60   2.0000      -0.381527       -10.3819
  61   2.0000      -0.375336       -10.2134
  62   2.0000      -0.370382       -10.0786
  63   2.0000      -0.366197        -9.9647
  64   2.0000      -0.358815        -9.7639
  65   2.0000      -0.354486        -9.6461
  66   2.0000      -0.353625        -9.6226
  67   2.0000      -0.345548        -9.4028
  68   2.0000      -0.340966        -9.2782
  69   2.0000      -0.335933        -9.1412
  70   2.0000      -0.334149        -9.0927
  71   2.0000      -0.324054        -8.8180
  72   2.0000      -0.322841        -8.7850
  73   2.0000      -0.319106        -8.6833
  74   2.0000      -0.314526        -8.5587
  75   2.0000      -0.310019        -8.4361
  76   2.0000      -0.305341        -8.3088
  77   2.0000      -0.304010        -8.2725
  78   2.0000      -0.294744        -8.0204
  79   2.0000      -0.287227        -7.8159
  80   2.0000      -0.264586        -7.1998
  81   2.0000      -0.261291        -7.1101
  82   2.0000      -0.255926        -6.9641
  83   2.0000      -0.255363        -6.9488
  84   2.0000      -0.235230        -6.4009
  85   2.0000      -0.233632        -6.3575
  86   2.0000      -0.207759        -5.6534
  87   2.0000      -0.203002        -5.5240
  88   2.0000      -0.199216        -5.4209
  89   2.0000      -0.194213        -5.2848
  90   2.0000      -0.186252        -5.0682
  91   2.0000      -0.171093        -4.6557
  92   2.0000      -0.115573        -3.1449
  93   0.0000      -0.059463        -1.6181
  94   0.0000      -0.023076        -0.6279
  95   0.0000      -0.002159        -0.0588
  96   0.0000       0.048738         1.3262
  97   0.0000       0.063022         1.7149

MULLIKEN ATOMIC CHARGES
-----------------------
   0 C :   -0.316781
   1 O :   -0.179147
   2 C :    0.085591
   3 O :   -0.407616
   4 C :    0.105539
   5 N :   -0.275144
   6 C :    0.498561
   7 C :   -0.037358
   8 C :   -0.681580
   9 C :   -0.691138
  10 N :   -0.096513
  11 C :   -0.220915
  12 O :   -0.488661
  13 C :    0.169302
  14 N :   -0.111493
  15 N :   -0.420151
  16 C :    0.247155
  17 C :   -0.574005
  18 C :   -0.571386
  19 O :   -0.148476
  20 N :   -0.252722
  21 C :   -0.035436
  22 O :   -0.476012
  23 C :    0.017027
  24 O :   -0.358555
  25 H :    0.169670
  26 H :    0.169507
  27 H :    0.169702
  28 H :    0.174179
  29 H :    0.168470
  30 H :    0.190185
  31 H :    0.192241
  32 H :    0.173327
  33 H :    0.175600
  34 H :    0.306380
  35 H :    0.168477
  36 H :    0.162611
  37 H :    0.162918
  38 H :    0.168819
  39 H :    0.163938
  40 H :    0.162547
  41 H :    0.341341
Sum of atomic charges:   -2.0000000

LOEWDIN ATOMIC CHARGES
----------------------
   0 C :   -0.046295
   1 O :   -0.591842
   2 C :    0.398644
   3 O :   -0.436310
   4 C :    0.173275
   5 N :   -0.631405
   6 C :    0.310621
   7 C :    0.097368
   8 C :   -0.365830
   9 C :   -0.367536
  10 N :   -0.668584
  11 C :    0.345316
  12 O :   -0.562436
  13 C :    0.317485
  14 N :   -0.467372
  15 N :   -0.498568
  16 C :    0.234909
  17 C :   -0.376407
  18 C :   -0.376678
  19 O :   -0.545267
  20 N :   -0.577137
  21 C :    0.303655
  22 O :   -0.565273
  23 C :    0.252237
  24 O :   -0.481060
  25 H :    0.177638
  26 H :    0.177488
  27 H :    0.181620
  28 H :    0.164591
  29 H :    0.163907
  30 H :    0.172025
  31 H :    0.171653
  32 H :    0.164258
  33 H :    0.167732
  34 H :    0.297660
  35 H :    0.165841
  36 H :    0.160608
  37 H :    0.164091
  38 H :    0.165773
  39 H :    0.160616
  40 H :    0.164195
  41 H :    0.304794

  Mayer bond orders larger than 0.100000
B(  0-C ,  1-O ) :   0.8441 B(  0-C , 25-H ) :   0.9594 B(  0-C , 26-H ) :   0.9597
B(  0-C , 27-H ) :   0.9656 B(  1-O ,  2-C ) :   1.1021 B(  2-C ,  3-O ) :   1.9018
B(  2-C ,  4-C ) :   1.0130 B(  4-C ,  5-N ) :   1.1029 B(  4-C , 23-C ) :   1.4024
B(  5-N ,  6-C ) :   1.3370 B(  6-C ,  7-C ) :   0.7758 B(  6-C , 10-N ) :  -0.1382
B(  6-C , 20-N ) :   1.2961 B(  7-C ,  8-C ) :   0.9143 B(  7-C ,  9-C ) :   0.8898
B(  7-C , 10-N ) :   0.9956 B(  7-C , 20-N ) :   0.1069 B(  8-C , 28-H ) :   0.9754
B(  8-C , 29-H ) :   0.9757 B(  8-C , 30-H ) :   0.9694 B(  9-C , 31-H ) :   0.9730
B(  9-C , 32-H ) :   0.9796 B(  9-C , 33-H ) :   0.9665 B( 10-N , 11-C ) :   0.9949
B( 10-N , 34-H ) :   0.8416 B( 11-C , 12-O ) :   1.9135 B( 11-C , 13-C ) :   1.0232
B( 11-C , 15-N ) :   0.1356 B( 12-O , 13-C ) :  -0.1248 B( 13-C , 14-N ) :   1.5587
B( 13-C , 15-N ) :   0.1690 B( 13-C , 19-O ) :   0.9950 B( 14-N , 15-N ) :   1.5802
B( 15-N , 16-C ) :   0.8209 B( 16-C , 17-C ) :   0.9384 B( 16-C , 18-C ) :   0.9362
B( 16-C , 19-O ) :   0.7863 B( 17-C , 35-H ) :   0.9677 B( 17-C , 36-H ) :   0.9768
B( 17-C , 37-H ) :   0.9730 B( 18-C , 38-H ) :   0.9674 B( 18-C , 39-H ) :   0.9776
B( 18-C , 40-H ) :   0.9708 B( 20-N , 21-C ) :   1.3223 B( 21-C , 22-O ) :   1.9726
B( 21-C , 23-C ) :   0.9207 B( 22-O , 23-C ) :  -0.1004 B( 23-C , 24-O ) :   1.0983
B( 24-O , 41-H ) :   0.8090

Dispersion correction           -0.018614345
FINAL SINGLE POINT ENERGY     -1268.891351981751

DIPOLE MOMENT
-------------
                                X             Y             Z
Electronic contribution:     17.08025       3.45384      11.92499
Nuclear contribution   :    -13.67428      -4.62247     -14.10282
                        -----------------------------------------
Total Dipole Moment    :      3.40597      -1.16864      -2.17783
                        -----------------------------------------
Magnitude (a.u.)       :      4.20824
Magnitude (Debye)      :     10.69650

Rotational constants in cm-1:     0.016637     0.003121     0.002750
Rotational constants in MHz :   498.771272    93.559182    82.446218

                             ****ORCA TERMINATED NORMALLY****
TOTAL RUN TIME: 0 days 0 hours 2 minutes 10 seconds 883 msec
