   * xtb version 6.5.1 (579679a) compiled by 'ehlert@majestix' on 2022-07-11
          program call               : /lustre/hpc/kemi/ree/PhD/git/ReactivityQM/dep/xtb-6.5.1/bin/xtb --gfn 1 /lustre/hpc/kemi/ree/PhD/git/ReactivityQM/calculations/R02deprot/reac01prodE11/conf11/R02deprot_reac01prodE11_conf11_gfn1.xyz --opt --vfukui --chrg -2 --uhf 0 --alpb DMSO

   ID    Z sym.   atoms
    1    6 C      1, 3, 5, 7-10, 12, 14, 17-19, 22, 24
    2    8 O      2, 4, 13, 20, 23, 25
    3    7 N      6, 11, 15, 16, 21
    4    1 H      26-42

      * Solvation model:               ALPB
        Solvent                        DMSO
        Solvent mass                       7.8130E+01 g/mol
          :  Hamiltonian                  GFN1-xTB          :
 * total energy  :   -83.6413445 Eh     change       -0.3822720E-11 Eh
 * total energy  :   -83.6518252 Eh     change       -0.1048067E-01 Eh
 * total energy  :   -83.6546696 Eh     change       -0.2844457E-02 Eh
 * total energy  :   -83.6550975 Eh     change       -0.4278589E-03 Eh
 * total energy  :   -83.6554136 Eh     change       -0.3161406E-03 Eh
 * total energy  :   -83.6555357 Eh     change       -0.1220520E-03 Eh
 * total energy  :   -83.6556369 Eh     change       -0.1012589E-03 Eh
 * total energy  :   -83.6556983 Eh     change       -0.6136539E-04 Eh
 * total energy  :   -83.6557273 Eh     change       -0.2898405E-04 Eh
 * total energy  :   -83.6557445 Eh     change       -0.1723174E-04 Eh
 * total energy  :   -83.6566683 Eh     change       -0.9078513E-05 Eh
 * total energy  :   -83.6566809 Eh     change       -0.1265081E-04 Eh
 * total energy  :   -83.6566954 Eh     change       -0.1451373E-04 Eh
 * total energy  :   -83.6567058 Eh     change       -0.1037436E-04 Eh
 * total energy  :   -83.6567135 Eh     change       -0.7647958E-05 Eh
 * total energy  :   -83.6567211 Eh     change       -0.7615834E-05 Eh
 * total energy  :   -83.6567284 Eh     change       -0.7326755E-05 Eh
 * total energy  :   -83.6567343 Eh     change       -0.5877913E-05 Eh
 * total energy  :   -83.6567392 Eh     change       -0.4952358E-05 Eh
   *** GEOMETRY OPTIMIZATION CONVERGED AFTER 55 ITERATIONS ***

 final structure:
================
42
 xtb: 6.5.1 (579679a)
C            6.62447611970251       -0.84488164382151       -0.91895406926638
O            5.29429164553795       -0.53622447451100       -0.52080284092722
C            5.11878070271752       -0.24472091780283        0.78547254644860
O            6.05205295540058       -0.24007527284283        1.56523089952055
C            3.70798791497243        0.04266868943685        1.11599976731286
N            2.81412284253541        0.01394742969695        0.08117993009441
C            1.54517393539136        0.24542736893070        0.35734356817525
C            0.60197599502468        0.19338371416010       -0.84411064801996
C            1.03294718483129        1.28394524170638       -1.83946715248563
C            0.73440733790556       -1.19669179787148       -1.49565657688261
N           -0.75371850500416        0.44319824956457       -0.38320255636249
C           -1.86737810719344        0.24762485869497       -1.19719535504147
O           -1.77904623173437        0.23405672260061       -2.44361827897597
C           -3.06447965362759        0.12784051102660       -0.44275164732765
N           -3.14028344661753        0.12587081539214        0.87781343275434
N           -4.36942195647628       -0.03711190356666        1.28429396943099
C           -5.20948164295820       -0.17482780692175        0.08522921438417
C           -6.27649004033791        0.93368281909271        0.06174598899463
C           -5.87607541328691       -1.56327648722241        0.07844220775250
O           -4.33565226548150       -0.04420119252992       -1.02628248793571
N            1.02113739020167        0.51141039551867        1.55300606191642
C            1.84273974507156        0.56937805502051        2.62461789057294
O            1.46553564685357        0.81589125358171        3.79069304346786
C            3.26489789543412        0.31961201147710        2.38421724943908
O            4.05248444416406        0.37685144689823        3.48442603464867
H            6.99334813855527       -1.72061431221145       -0.37726872917907
H            7.29043018822950       -0.00007755610719       -0.72165836415177
H            6.59665127183731       -1.05394402089383       -1.98688299407579
H            2.07614661035438        1.13074524336768       -2.11502595151316
H            0.93153339824544        2.26733055776152       -1.37964473417654
H            0.41727475107660        1.24725316071798       -2.73733493901713
H            0.14918629634797       -1.25117377385020       -2.41260441580686
H            0.39056971220191       -1.96845281172996       -0.80676419841385
H            1.78206361481775       -1.38024345023920       -1.73279569892614
H           -0.89506437749177        0.25164407218588        0.60733190119653
H           -6.90107876938132        0.85749940430056        0.94939617779742
H           -6.89974224810605        0.84103670474446       -0.82593659961171
H           -5.78875734677120        1.90722615159473        0.05338620398038
H           -6.50428110111401       -1.67272457057019        0.95999330046642
H           -6.48470557764755       -1.68695737710103       -0.81555732510557
H           -5.10512748884910       -2.33231709265351        0.09356214518413
H            3.45057143466818        0.58445958496742        4.23013302966661

          :  Hamiltonian                  GFN1-xTB          :
         :: total energy             -83.656739231393 Eh    ::
         :: gradient norm              0.000444248467 Eh/a0 ::
         :: HOMO-LUMO gap              0.890386809014 eV    ::
         :: SCC energy               -84.387940951414 Eh    ::
         :: -> Gsolv                  -0.259974381487 Eh    ::
         :: repulsion energy           0.756365054061 Eh    ::

    * Orbital Energies and Occupations

         #    Occupation            Energy/Eh            Energy/eV
      -------------------------------------------------------------
         1        2.0000           -0.8109199             -22.0663
       ...           ...                  ...                  ...
        56        2.0000           -0.4436607             -12.0726
        57        2.0000           -0.4395932             -11.9619
        58        2.0000           -0.4282552             -11.6534
        59        2.0000           -0.4243746             -11.5478
        60        2.0000           -0.4118204             -11.2062
        61        2.0000           -0.4057795             -11.0418
        62        2.0000           -0.3945991             -10.7376
        63        2.0000           -0.3886313             -10.5752
        64        2.0000           -0.3788138             -10.3080
        65        2.0000           -0.3648646              -9.9285
        66        2.0000           -0.3630614              -9.8794
        67        2.0000           -0.3615390              -9.8380
        68        2.0000           -0.3044360              -8.2841 (HOMO)
        69                         -0.2717149              -7.3937 (LUMO)
        70                         -0.2273183              -6.1856
        71                         -0.2187873              -5.9535
        72                         -0.1838279              -5.0022
        73                         -0.1266202              -3.4455
        74                         -0.1158373              -3.1521
        75                         -0.1004059              -2.7322
        76                         -0.0984043              -2.6777
        77                         -0.0942155              -2.5637
        78                         -0.0915292              -2.4906
        79                         -0.0899455              -2.4475
       ...                                ...                  ...
       134                          0.7522789              20.4706
      -------------------------------------------------------------
                  HL-Gap            0.0327211 Eh            0.8904 eV

Wiberg/Mayer (AO) data.
largest (>0.10) Wiberg bond orders for each atom

     #   Z sym  total        # sym  WBO       # sym  WBO       # sym  WBO
 ---------------------------------------------------------------------------
     1   6 C    3.891 --    28 H    0.987    27 H    0.980    26 H    0.980
                             2 O    0.917
     2   8 O    2.176 --     3 C    1.072     1 C    0.917     4 O    0.121
     3   6 C    3.835 --     4 O    1.631     2 O    1.072     5 C    1.033
     4   8 O    1.895 --     3 C    1.631     2 O    0.121
     5   6 C    3.964 --    24 C    1.469     6 N    1.209     3 C    1.033
     6   7 N    2.993 --     7 C    1.454     5 C    1.209
     7   6 C    3.953 --     6 N    1.454    21 N    1.365     8 C    0.973
     8   6 C    3.956 --     9 C    0.984    10 C    0.979     7 C    0.973
                            11 N    0.956
     9   6 C    3.995 --    30 H    0.987    29 H    0.987     8 C    0.984
                            31 H    0.982
    10   6 C    3.994 --    33 H    0.987    34 H    0.986    32 H    0.983
                             8 C    0.979
    11   7 N    3.214 --    12 C    1.103     8 C    0.956    35 H    0.904
                            13 O    0.109
    12   6 C    3.926 --    13 O    1.452    14 C    1.200    11 N    1.103
    13   8 O    1.790 --    12 C    1.452    11 N    0.109
    14   6 C    3.847 --    15 N    1.417    12 C    1.200    20 O    0.929
                            16 N    0.170
    15   7 N    3.045 --    16 N    1.437    14 C    1.417
    16   7 N    2.859 --    15 N    1.437    17 C    0.984    14 C    0.170
    17   6 C    3.902 --    16 N    0.984    18 C    0.977    19 C    0.976
                            20 O    0.929
    18   6 C    3.994 --    36 H    0.988    37 H    0.987    38 H    0.986
                            17 C    0.977
    19   6 C    3.994 --    39 H    0.988    40 H    0.987    41 H    0.986
                            17 C    0.976
    20   8 O    2.051 --    17 C    0.929    14 C    0.929
    21   7 N    3.000 --     7 C    1.365    22 C    1.257    23 O    0.124
    22   6 C    3.931 --    23 O    1.457    21 N    1.257    24 C    1.079
    23   8 O    1.795 --    22 C    1.457    21 N    0.124
    24   6 C    3.905 --     5 C    1.469    22 C    1.079    25 O    1.065
    25   8 O    2.043 --    24 C    1.065    42 H    0.819
    26   1 H    1.012 --     1 C    0.980
    27   1 H    1.012 --     1 C    0.980
    28   1 H    1.014 --     1 C    0.987
    29   1 H    1.018 --     9 C    0.987
    30   1 H    1.011 --     9 C    0.987
    31   1 H    1.024 --     9 C    0.982
    32   1 H    1.019 --    10 C    0.983
    33   1 H    1.008 --    10 C    0.987
    34   1 H    1.020 --    10 C    0.986
    35   1 H    1.003 --    11 N    0.904
    36   1 H    1.012 --    18 C    0.988
    37   1 H    1.009 --    18 C    0.987
    38   1 H    1.016 --    18 C    0.986
    39   1 H    1.011 --    19 C    0.988
    40   1 H    1.009 --    19 C    0.987
    41   1 H    1.016 --    19 C    0.986
    42   1 H    0.880 --    25 O    0.819
 ---------------------------------------------------------------------------

           -------------------------------------------------
          | TOTAL ENERGY              -83.656739231393 Eh   |
          | GRADIENT NORM               0.000444248467 Eh/α |
          | HOMO-LUMO GAP               0.890386809014 eV   |
           -------------------------------------------------

 * finished run on 2023/06/20 at 17:55:16.787
