   * xtb version 6.5.1 (579679a) compiled by 'ehlert@majestix' on 2022-07-11
          program call               : /lustre/hpc/kemi/ree/PhD/git/ReactivityQM/dep/xtb-6.5.1/bin/xtb --gfn 1 /lustre/hpc/kemi/ree/PhD/git/ReactivityQM/calculations/R03/reac01prodE03/conf02/R03_reac01prodE03_conf02_gfn1.xyz --opt --vfukui --chrg -1 --uhf 0 --alpb DMSO

   ID    Z sym.   atoms
    1    6 C      1-5, 7-9
    2    7 N      6
    3    9 F      10
    4    1 H      11-21

      * Solvation model:               ALPB
        Solvent                        DMSO
        Solvent mass                       7.8130E+01 g/mol
          :  Hamiltonian                  GFN1-xTB          :
 * total energy  :   -31.4501851 Eh     change       -0.2973621E-11 Eh
 * total energy  :   -31.4560443 Eh     change       -0.5859161E-02 Eh
 * total energy  :   -31.4573034 Eh     change       -0.1259108E-02 Eh
 * total energy  :   -31.4575250 Eh     change       -0.2216454E-03 Eh
 * total energy  :   -31.4577051 Eh     change       -0.1800305E-03 Eh
 * total energy  :   -31.4578594 Eh     change       -0.1543612E-03 Eh
 * total energy  :   -31.4580251 Eh     change       -0.1656319E-03 Eh
 * total energy  :   -31.4582083 Eh     change       -0.1832615E-03 Eh
 * total energy  :   -31.4582931 Eh     change       -0.8475517E-04 Eh
 * total energy  :   -31.4583225 Eh     change       -0.2940743E-04 Eh
 * total energy  :   -31.4583364 Eh     change       -0.1392505E-04 Eh
 * total energy  :   -31.4583432 Eh     change       -0.6794724E-05 Eh
 * total energy  :   -31.4583467 Eh     change       -0.3536663E-05 Eh
   *** GEOMETRY OPTIMIZATION CONVERGED AFTER 13 ITERATIONS ***

 final structure:
================
21
 xtb: 6.5.1 (579679a)
C            2.09828859056692       -1.21550486582982        0.85160750196235
C            1.54493349406330       -0.53306176090111       -0.44127226874668
C            0.06083284835194       -0.79620674377941       -0.61731021661096
C           -0.89777815165512        0.16624165137978       -0.43101102586792
C           -2.36402482561044       -0.22276296854413       -0.51520164670861
N           -2.98731814464700       -0.29802691967088        0.81749271551274
C           -0.58497180250961        1.52046275258559       -0.18996017100436
C            0.78313018088608        1.89155120829838       -0.22790014010444
C            1.73830582196263        0.95255551710468       -0.39785824050308
F            3.06957201779218        1.35428583784740       -0.51627792218523
H            1.57347731705818       -0.83356151150367        1.72767399462462
H            3.16491065111756       -1.01299239593612        0.96280376313182
H            1.94793112289365       -2.29450474068001        0.79783537279245
H            2.12271217120888       -0.96727277467827       -1.28246836610495
H           -0.21780014675483       -1.82077090667606       -0.85294728050550
H           -2.92724243721748        0.51312958707501       -1.10595890591610
H           -2.48602003492605       -1.20128566342069       -0.99777758244966
H           -2.50086525503456       -1.00083046242864        1.36196130036413
H           -2.84595610580927        0.58923579877296        1.28814449531156
H           -1.35773468697357        2.26957284865180       -0.06665265054204
H            1.06561837523648        2.93974551233359       -0.16492272645013

          :  Hamiltonian                  GFN1-xTB          :
         :: total energy             -31.458346743171 Eh    ::
         :: gradient norm              0.000844639607 Eh/a0 ::
         :: HOMO-LUMO gap              2.558271679501 eV    ::
         :: SCC energy               -31.828335015071 Eh    ::
         :: -> Gsolv                  -0.077118320558 Eh    ::
         :: repulsion energy           0.380031035976 Eh    ::

    * Orbital Energies and Occupations

         #    Occupation            Energy/Eh            Energy/eV
      -------------------------------------------------------------
         1        2.0000           -0.7793693             -21.2077
       ...           ...                  ...                  ...
        16        2.0000           -0.4821786             -13.1207
        17        2.0000           -0.4770605             -12.9815
        18        2.0000           -0.4666104             -12.6971
        19        2.0000           -0.4619119             -12.5693
        20        2.0000           -0.4539983             -12.3539
        21        2.0000           -0.4453830             -12.1195
        22        2.0000           -0.4300392             -11.7020
        23        2.0000           -0.4217320             -11.4759
        24        2.0000           -0.4025826             -10.9548
        25        2.0000           -0.3991165             -10.8605
        26        2.0000           -0.3712061             -10.1010
        27        2.0000           -0.3579333              -9.7399
        28        2.0000           -0.2702167              -7.3530 (HOMO)
        29                         -0.1762019              -4.7947 (LUMO)
        30                         -0.1102244              -2.9994
        31                         -0.0830529              -2.2600
        32                         -0.0770684              -2.0971
        33                         -0.0670286              -1.8239
        34                         -0.0587438              -1.5985
        35                         -0.0492466              -1.3401
        36                         -0.0447445              -1.2176
        37                         -0.0329602              -0.8969
        38                         -0.0214198              -0.5829
        39                         -0.0163309              -0.4444
       ...                                ...                  ...
        62                          0.6661470              18.1268
      -------------------------------------------------------------
                  HL-Gap            0.0940148 Eh            2.5583 eV

Wiberg/Mayer (AO) data.
largest (>0.10) Wiberg bond orders for each atom

     #   Z sym  total        # sym  WBO       # sym  WBO       # sym  WBO
 ---------------------------------------------------------------------------
     1   6 C    3.993 --    11 H    0.989    13 H    0.988    12 H    0.988
                             2 C    0.963
     2   6 C    3.993 --     9 C    1.008     3 C    1.001    14 H    0.967
                             1 C    0.963
     3   6 C    3.905 --     4 C    1.580     2 C    1.001    15 H    0.974
                             7 C    0.116
     4   6 C    3.986 --     3 C    1.580     7 C    1.315     5 C    0.989
     5   6 C    3.967 --     4 C    0.989    17 H    0.982    16 H    0.980
                             6 N    0.977
     6   7 N    2.947 --     5 C    0.977    18 H    0.957    19 H    0.955
     7   6 C    3.881 --     4 C    1.315     8 C    1.271    20 H    0.976
                             3 C    0.116     9 C    0.108
     8   6 C    3.989 --     9 C    1.627     7 C    1.271    21 H    0.972
     9   6 C    3.768 --     8 C    1.627     2 C    1.008    10 F    0.832
                             7 C    0.108
    10   9 F    0.940 --     9 C    0.832
    11   1 H    1.025 --     1 C    0.989
    12   1 H    1.013 --     1 C    0.988
    13   1 H    1.015 --     1 C    0.988
    14   1 H    1.023 --     2 C    0.967
    15   1 H    1.003 --     3 C    0.974
    16   1 H    1.019 --     5 C    0.980
    17   1 H    1.016 --     5 C    0.982
    18   1 H    0.976 --     6 N    0.957
    19   1 H    0.978 --     6 N    0.955
    20   1 H    1.003 --     7 C    0.976
    21   1 H    1.008 --     8 C    0.972
 ---------------------------------------------------------------------------

           -------------------------------------------------
          | TOTAL ENERGY              -31.458346743171 Eh   |
          | GRADIENT NORM               0.000844639607 Eh/α |
          | HOMO-LUMO GAP               2.558271679501 eV   |
           -------------------------------------------------

 * finished run on 2023/06/20 at 15:13:24.545
