   * xtb version 6.5.1 (579679a) compiled by 'ehlert@majestix' on 2022-07-11
          program call               : /lustre/hpc/kemi/ree/PhD/git/ReactivityQM/dep/xtb-6.5.1/bin/xtb --gfn 1 /lustre/hpc/kemi/ree/PhD/git/ReactivityQM/calculations/R02/reac01prodN13/conf12/R02_reac01prodN13_conf12_gfn1.xyz --opt --vfukui --chrg 1 --uhf 0 --alpb DMSO

   ID    Z sym.   atoms
    1    6 C      1, 3, 5, 7-10, 12, 14, 17-19, 22, 24
    2    8 O      2, 4, 13, 20, 23, 25
    3    7 N      6, 11, 15, 16, 21
    4    1 H      26-43

      * Solvation model:               ALPB
        Solvent                        DMSO
        Solvent mass                       7.8130E+01 g/mol
          :  Hamiltonian                  GFN1-xTB          :
 * total energy  :   -83.0959218 Eh     change       -0.1665512E-10 Eh
 * total energy  :   -83.1112736 Eh     change       -0.1535185E-01 Eh
 * total energy  :   -83.1174313 Eh     change       -0.6157643E-02 Eh
 * total energy  :   -83.1185194 Eh     change       -0.1088090E-02 Eh
 * total energy  :   -83.1190723 Eh     change       -0.5528809E-03 Eh
 * total energy  :   -83.1192558 Eh     change       -0.1835812E-03 Eh
 * total energy  :   -83.1194091 Eh     change       -0.1532179E-03 Eh
 * total energy  :   -83.1195055 Eh     change       -0.9642222E-04 Eh
 * total energy  :   -83.1195797 Eh     change       -0.7427023E-04 Eh
 * total energy  :   -83.1196542 Eh     change       -0.7449097E-04 Eh
 * total energy  :   -83.1200935 Eh     change       -0.1994717E-04 Eh
 * total energy  :   -83.1201144 Eh     change       -0.2084829E-04 Eh
 * total energy  :   -83.1201379 Eh     change       -0.2355451E-04 Eh
 * total energy  :   -83.1201430 Eh     change       -0.5037322E-05 Eh
 * total energy  :   -83.1201518 Eh     change       -0.8783250E-05 Eh
 * total energy  :   -83.1201583 Eh     change       -0.6506842E-05 Eh
 * total energy  :   -83.1201642 Eh     change       -0.5894622E-05 Eh
 * total energy  :   -83.1201700 Eh     change       -0.5797832E-05 Eh
 * total energy  :   -83.1201737 Eh     change       -0.3755854E-05 Eh
   *** GEOMETRY OPTIMIZATION CONVERGED AFTER 27 ITERATIONS ***

 final structure:
================
43
 xtb: 6.5.1 (579679a)
C            4.00236211144357        3.87869737313170       -0.76309483692895
O            4.00547378317428        2.44604266186744       -0.77150862425732
C            2.84110714508754        1.84371689029997       -0.57565497936587
O            1.79888639385962        2.43121931309891       -0.39426271677067
C            2.93507398201819        0.35084506379667       -0.59832278716678
N            1.73195415683864       -0.26800925223277       -0.37870162305865
C            1.64554274563710       -1.55626401916428       -0.36559686641107
C            0.30449377391794       -2.20525485185892       -0.10080436619687
C            0.35018770513290       -2.99586040399279        1.21521984058566
C           -0.11340006713212       -3.10267691899362       -1.27413075512508
N           -0.64695627664699       -1.10202149443936        0.02583271473420
C           -1.95153488426019       -1.26093813064727        0.27039343969546
O           -2.55649809473474       -2.29545107917767        0.43736058373215
C           -2.64403295172756        0.08212778721964        0.30705385353697
N           -2.01913894876753        1.28971143556927        0.10282520590675
N           -2.89476978323778        2.19285288674792        0.18170132254038
C           -4.17237894949132        1.61833546878824        0.44614273019071
C           -5.13981377583350        1.88902990617005       -0.71371020209911
C           -4.72418437363825        2.10263255546854        1.79248790183955
O           -3.89090407971795        0.22176206132269        0.51325437644699
N            2.72502039959874       -2.35876842813594       -0.56785644698641
C            3.98865192673951       -1.85967792998001       -0.80119726898007
O            4.95604523835207       -2.57600640973165       -0.98471754948070
C            4.06579587470086       -0.39619948533562       -0.80752847674562
O            5.27419005141426        0.11379680073918       -1.02537205157444
H            3.32591765626144        4.25488671784814       -1.53375378901524
H            3.67877738544112        4.24483863806128        0.21382064516606
H            5.02446287440171        4.19166456167559       -0.96710079605359
H           -0.62307409489294       -3.44168622611984        1.41088490137526
H            1.09247346079802       -3.78704381007568        1.13621160883516
H            0.61651623096352       -2.33476683368315        2.03788109845783
H           -0.17200832464329       -2.51683807800910       -2.18945963430248
H            0.61629937905339       -3.89894780608522       -1.40257923721880
H           -1.08565889121533       -3.54643614204402       -1.06863196255721
H           -0.24867748758819       -0.17070080117577       -0.08984543941503
H           -4.70291019809272        1.51984778580530       -1.63890122317942
H           -5.31103387529434        2.96019690434968       -0.78392850104908
H           -6.07578686700794        1.37259681404343       -0.51458629000846
H           -5.65944910901487        1.58543954796926        1.99304640474479
H           -4.89510493311722        3.17469571286947        1.73504792309002
H           -4.00344760693832        1.88268262753906        2.57682667217487
H            2.63496359026707       -3.36392552724978       -0.55842203314144
H            5.91656670788600       -0.61014288623835       -1.15048376595845

          :  Hamiltonian                  GFN1-xTB          :
         :: total energy             -83.120173711733 Eh    ::
         :: gradient norm              0.000313446965 Eh/a0 ::
         :: HOMO-LUMO gap              0.168239551087 eV    ::
         :: SCC energy               -83.909029384249 Eh    ::
         :: -> Gsolv                  -0.108020476608 Eh    ::
         :: repulsion energy           0.814875237376 Eh    ::

    * Orbital Energies and Occupations

         #    Occupation            Energy/Eh            Energy/eV
      -------------------------------------------------------------
         1        2.0000           -0.9370413             -25.4982
       ...           ...                  ...                  ...
        55        2.0000           -0.5356784             -14.5766
        56        2.0000           -0.5272743             -14.3479
        57        2.0000           -0.5244298             -14.2705
        58        2.0000           -0.5227302             -14.2242
        59        2.0000           -0.5156863             -14.0325
        60        2.0000           -0.5091629             -13.8550
        61        2.0000           -0.5050902             -13.7442
        62        2.0000           -0.5017751             -13.6540
        63        2.0000           -0.5002524             -13.6126
        64        2.0000           -0.4910442             -13.3620
        65        2.0000           -0.4807055             -13.0807
        66        2.0000           -0.4702294             -12.7956
        67        1.9256           -0.4495703             -12.2334 (HOMO)
        68        0.0744           -0.4433876             -12.0652 (LUMO)
        69                         -0.3614535              -9.8356
        70                         -0.3405389              -9.2665
        71                         -0.3055504              -8.3144
        72                         -0.2582253              -7.0267
        73                         -0.2553812              -6.9493
        74                         -0.1765971              -4.8055
        75                         -0.1638164              -4.4577
        76                         -0.1582067              -4.3050
        77                         -0.1545708              -4.2061
        78                         -0.1442759              -3.9259
       ...                                ...                  ...
       136                          0.7203662              19.6022
      -------------------------------------------------------------
                  HL-Gap            0.0061827 Eh            0.1682 eV

Wiberg/Mayer (AO) data.
largest (>0.10) Wiberg bond orders for each atom

     #   Z sym  total        # sym  WBO       # sym  WBO       # sym  WBO
 ---------------------------------------------------------------------------
     1   6 C    3.865 --    28 H    0.985    26 H    0.979    27 H    0.979
                             2 O    0.890
     2   8 O    2.213 --     3 C    1.131     1 C    0.890     4 O    0.138
     3   6 C    3.855 --     4 O    1.656     2 O    1.131     5 C    0.991
     4   8 O    1.919 --     3 C    1.656     2 O    0.138
     5   6 C    3.933 --    24 C    1.480     6 N    1.185     3 C    0.991
     6   7 N    3.043 --     7 C    1.565     5 C    1.185
     7   6 C    3.916 --     6 N    1.565    21 N    1.186     8 C    0.986
     8   6 C    3.916 --     7 C    0.986    10 C    0.969     9 C    0.966
                            11 N    0.925
     9   6 C    3.974 --    31 H    0.984    30 H    0.981    29 H    0.977
                             8 C    0.966
    10   6 C    3.975 --    32 H    0.984    33 H    0.981    34 H    0.978
                             8 C    0.969
    11   7 N    3.419 --    12 C    1.291     8 C    0.925    35 H    0.857
                            13 O    0.217
    12   6 C    3.927 --    13 O    1.614    11 N    1.291    14 C    0.942
    13   8 O    1.953 --    12 C    1.614    11 N    0.217
    14   6 C    3.755 --    20 O    1.348    15 N    1.197    12 C    0.942
    15   7 N    3.029 --    16 N    1.673    14 C    1.197
    16   7 N    2.939 --    15 N    1.673    17 C    1.053
    17   6 C    3.819 --    16 N    1.053    19 C    0.905    18 C    0.903
                            20 O    0.867
    18   6 C    3.940 --    36 H    0.979    37 H    0.977    38 H    0.976
                            17 C    0.903
    19   6 C    3.941 --    41 H    0.979    40 H    0.977    39 H    0.976
                            17 C    0.905
    20   8 O    2.389 --    14 C    1.348    17 C    0.867
    21   7 N    3.464 --     7 C    1.186    22 C    1.123    42 H    0.876
                            23 O    0.129
    22   6 C    3.902 --    23 O    1.602    21 N    1.123    24 C    1.051
    23   8 O    1.906 --    22 C    1.602    21 N    0.129
    24   6 C    3.885 --     5 C    1.480    25 O    1.132    22 C    1.051
    25   8 O    2.091 --    24 C    1.132    43 H    0.798
    26   1 H    1.006 --     1 C    0.979
    27   1 H    1.005 --     1 C    0.979
    28   1 H    1.009 --     1 C    0.985
    29   1 H    1.001 --     9 C    0.977
    30   1 H    0.996 --     9 C    0.981
    31   1 H    0.998 --     9 C    0.984
    32   1 H    0.997 --    10 C    0.984
    33   1 H    0.995 --    10 C    0.981
    34   1 H    1.001 --    10 C    0.978
    35   1 H    0.956 --    11 N    0.857
    36   1 H    0.991 --    18 C    0.979
    37   1 H    0.992 --    18 C    0.977
    38   1 H    0.991 --    18 C    0.976
    39   1 H    0.991 --    19 C    0.976
    40   1 H    0.992 --    19 C    0.977
    41   1 H    0.991 --    19 C    0.979
    42   1 H    0.920 --    21 N    0.876
    43   1 H    0.836 --    25 O    0.798
 ---------------------------------------------------------------------------

           -------------------------------------------------
          | TOTAL ENERGY              -83.120173711733 Eh   |
          | GRADIENT NORM               0.000313446965 Eh/α |
          | HOMO-LUMO GAP               0.168239551087 eV   |
           -------------------------------------------------

 * finished run on 2023/06/20 at 15:35:47.697
