   * xtb version 6.5.1 (579679a) compiled by 'ehlert@majestix' on 2022-07-11
          program call               : /lustre/hpc/kemi/ree/PhD/git/ReactivityQM/dep/xtb-6.5.1/bin/xtb --gfn 1 /lustre/hpc/kemi/ree/PhD/git/ReactivityQM/calculations/R02oxygendeprot/reac01prodN17/conf17/R02oxygendeprot_reac01prodN17_conf17_gfn1.xyz --opt --vfukui --chrg 0 --uhf 0 --alpb DMSO

   ID    Z sym.   atoms
    1    6 C      1, 3, 5, 7-10, 12, 13, 15, 18, 19, 22, 24
    2    8 O      2, 4, 14, 20, 23, 25
    3    7 N      6, 11, 16, 17, 21
    4    1 H      26-42

      * Solvation model:               ALPB
        Solvent                        DMSO
        Solvent mass                       7.8130E+01 g/mol
          :  Hamiltonian                  GFN1-xTB          :
 * total energy  :   -82.9359204 Eh     change       -0.4103100E-09 Eh
 * total energy  :   -82.9496931 Eh     change       -0.1377271E-01 Eh
 * total energy  :   -82.9544548 Eh     change       -0.4761728E-02 Eh
 * total energy  :   -82.9555137 Eh     change       -0.1058929E-02 Eh
 * total energy  :   -82.9563665 Eh     change       -0.8527488E-03 Eh
 * total energy  :   -82.9570024 Eh     change       -0.6359427E-03 Eh
 * total energy  :   -82.9575892 Eh     change       -0.5867846E-03 Eh
 * total energy  :   -82.9581206 Eh     change       -0.5314301E-03 Eh
 * total energy  :   -82.9585428 Eh     change       -0.4222028E-03 Eh
 * total energy  :   -82.9588971 Eh     change       -0.3542391E-03 Eh
 * total energy  :   -82.9625645 Eh     change       -0.2432562E-04 Eh
 * total energy  :   -82.9626082 Eh     change       -0.4373795E-04 Eh
 * total energy  :   -82.9626284 Eh     change       -0.2021118E-04 Eh
 * total energy  :   -82.9626505 Eh     change       -0.2204219E-04 Eh
 * total energy  :   -82.9626685 Eh     change       -0.1804919E-04 Eh
 * total energy  :   -82.9626799 Eh     change       -0.1131532E-04 Eh
 * total energy  :   -82.9626887 Eh     change       -0.8895378E-05 Eh
 * total energy  :   -82.9626941 Eh     change       -0.5314453E-05 Eh
 * total energy  :   -82.9626970 Eh     change       -0.2957949E-05 Eh
   *** GEOMETRY OPTIMIZATION CONVERGED AFTER 39 ITERATIONS ***

 final structure:
================
42
 xtb: 6.5.1 (579679a)
C           -4.49505160215154        3.54545301567224       -0.90464709102012
O           -3.54620281650408        2.83069845366507       -0.11895190065871
C           -2.94342195972934        1.78939973685969       -0.72325667202926
O           -3.19724189415893        1.48899880353418       -1.87892959262178
C           -1.98319697121681        1.06908536330962        0.12103021076563
N           -1.40701916630637        0.00819679199872       -0.52120958151019
C           -0.54854286148183       -0.74322899362269        0.07361147774671
C            0.07109502938632       -1.91659671822418       -0.66263285941339
C            0.15302935470662       -3.17710519975123        0.19165360976393
C           -0.69186221161087       -2.16890217838054       -1.95646390593809
N            1.50456514878141       -1.46343126024977       -0.95755522743473
C            2.22076006345840       -2.19652306496666       -2.02514196624946
C            1.43006680289643        0.02075820641233       -1.30316372135521
O            1.08497597878780        0.34701518055178       -2.40146240396515
C            1.87875154879015        0.84931540010140       -0.21771911771603
N            1.80301963946394        2.15036478974909       -0.10920750347360
N            2.25806851869008        2.46869409236696        1.11535585292396
C            2.58702065753664        1.35461461677738        1.71013619821118
C            3.09304580545456        1.16768628575751        3.08076140394977
O            2.36862424282945        0.29445504640210        0.91828935691627
N           -0.18325355228291       -0.52559350100107        1.38721152255814
C           -0.59200488935607        0.56815754030005        2.11468940683007
O           -0.09185203729330        0.78944039608898        3.21015533896699
C           -1.64303291928246        1.43778020205306        1.45666675696294
O           -2.10002410700597        2.39817099199035        2.08765432727925
H           -4.01749676979038        3.96466131072771       -1.79517989796949
H           -4.88548080795199        4.34698966346747       -0.27920069771371
H           -5.30886751989492        2.88443937391402       -1.21649866466532
H            0.79415568540814       -3.02597159486329        1.05748293217137
H           -0.84651255521222       -3.43878067150848        0.53623929652263
H            0.54999646479773       -4.00587801879717       -0.39079442059837
H           -0.65684079837227       -1.29465881546977       -2.60477666904910
H           -1.73213466484443       -2.36533328591343       -1.69856225975775
H           -0.29299745027725       -3.03279397641994       -2.48146216762190
H            2.04067425548028       -1.56430159554791       -0.09538379009641
H            1.77024871708935       -1.96030377822005       -2.98536392928845
H            2.15798982080585       -3.25885041924594       -1.81428511375725
H            3.25684460556668       -1.86906445335578       -2.00451622815284
H            2.27781625372225        0.79205787034293        3.70451029936485
H            3.88962765609860        0.42708721422065        3.08622273442004
H            3.44941780290582        2.11304312835524        3.48259749544279
H            0.52324750207582       -1.09924594911712        1.81210116128733

          :  Hamiltonian                  GFN1-xTB          :
         :: total energy             -82.962697021919 Eh    ::
         :: gradient norm              0.000490745783 Eh/a0 ::
         :: HOMO-LUMO gap              0.671166166220 eV    ::
         :: SCC energy               -83.734498262958 Eh    ::
         :: -> Gsolv                  -0.103273956729 Eh    ::
         :: repulsion energy           0.803008241427 Eh    ::

    * Orbital Energies and Occupations

         #    Occupation            Energy/Eh            Energy/eV
      -------------------------------------------------------------
         1        2.0000           -0.8913719             -24.2555
       ...           ...                  ...                  ...
        55        2.0000           -0.5149536             -14.0126
        56        2.0000           -0.5055107             -13.7556
        57        2.0000           -0.5011261             -13.6363
        58        2.0000           -0.4999597             -13.6046
        59        2.0000           -0.4822111             -13.1216
        60        2.0000           -0.4791123             -13.0373
        61        2.0000           -0.4782843             -13.0148
        62        2.0000           -0.4747289             -12.9180
        63        2.0000           -0.4658088             -12.6753
        64        2.0000           -0.4555458             -12.3960
        65        2.0000           -0.4443098             -12.0903
        66        2.0000           -0.4026928             -10.9578
        67        2.0000           -0.3916764             -10.6581 (HOMO)
        68        0.0000           -0.3670115              -9.9869 (LUMO)
        69                         -0.2916867              -7.9372
        70                         -0.2774232              -7.5491
        71                         -0.2708371              -7.3699
        72                         -0.2433845              -6.6228
        73                         -0.2181261              -5.9355
        74                         -0.1632394              -4.4420
        75                         -0.1546891              -4.2093
        76                         -0.1414804              -3.8499
        77                         -0.1412734              -3.8442
        78                         -0.1347330              -3.6663
       ...                                ...                  ...
       134                          0.7457444              20.2927
      -------------------------------------------------------------
                  HL-Gap            0.0246649 Eh            0.6712 eV

Wiberg/Mayer (AO) data.
largest (>0.10) Wiberg bond orders for each atom

     #   Z sym  total        # sym  WBO       # sym  WBO       # sym  WBO
 ---------------------------------------------------------------------------
     1   6 C    3.889 --    27 H    0.987    26 H    0.980    28 H    0.980
                             2 O    0.915
     2   8 O    2.176 --     3 C    1.075     1 C    0.915     4 O    0.118
     3   6 C    3.851 --     4 O    1.601     2 O    1.075     5 C    1.074
     4   8 O    1.869 --     3 C    1.601     2 O    0.118
     5   6 C    3.924 --    24 C    1.233     6 N    1.216     3 C    1.074
                            25 O    0.111
     6   7 N    3.040 --     7 C    1.569     5 C    1.216
     7   6 C    3.936 --     6 N    1.569    21 N    1.096     8 C    0.970
     8   6 C    3.885 --    10 C    1.007     9 C    1.000     7 C    0.970
                            11 N    0.833
     9   6 C    3.985 --     8 C    1.000    31 H    0.979    29 H    0.977
                            30 H    0.976
    10   6 C    3.984 --     8 C    1.007    34 H    0.983    32 H    0.976
                            33 H    0.976
    11   7 N    3.593 --    12 C    0.908    35 H    0.885    13 C    0.834
                             8 C    0.833
    12   6 C    3.890 --    36 H    0.980    38 H    0.980    37 H    0.980
                            11 N    0.908
    13   6 C    3.879 --    14 O    1.737    15 C    1.095    11 N    0.834
    14   8 O    2.031 --    13 C    1.737
    15   6 C    3.882 --    16 N    1.528    13 C    1.095    20 O    1.028
    16   7 N    3.012 --    15 C    1.528    17 N    1.258
    17   7 N    2.989 --    18 C    1.546    16 N    1.258
    18   6 C    3.848 --    17 N    1.546    20 O    1.078    19 C    1.041
    19   6 C    3.978 --    18 C    1.041    41 H    0.979    40 H    0.966
                            39 H    0.939
    20   8 O    2.321 --    18 C    1.078    15 C    1.028
    21   7 N    3.418 --    22 C    1.148     7 C    1.096    42 H    0.890
                            23 O    0.133
    22   6 C    3.875 --    23 O    1.597    21 N    1.148    24 C    0.959
    23   8 O    1.897 --    22 C    1.597    21 N    0.133
    24   6 C    3.938 --    25 O    1.561     5 C    1.233    22 C    0.959
    25   8 O    1.847 --    24 C    1.561     5 C    0.111
    26   1 H    1.011 --     1 C    0.980
    27   1 H    1.014 --     1 C    0.987
    28   1 H    1.011 --     1 C    0.980
    29   1 H    0.994 --     9 C    0.977
    30   1 H    0.995 --     9 C    0.976
    31   1 H    0.996 --     9 C    0.979
    32   1 H    1.012 --    10 C    0.976
    33   1 H    1.004 --    10 C    0.976
    34   1 H    0.998 --    10 C    0.983
    35   1 H    0.936 --    11 N    0.885
    36   1 H    0.998 --    12 C    0.980
    37   1 H    0.993 --    12 C    0.980
    38   1 H    0.990 --    12 C    0.980
    39   1 H    1.009 --    19 C    0.939
    40   1 H    0.994 --    19 C    0.966
    41   1 H    0.996 --    19 C    0.979
    42   1 H    0.943 --    21 N    0.890
 ---------------------------------------------------------------------------

           -------------------------------------------------
          | TOTAL ENERGY              -82.962697021919 Eh   |
          | GRADIENT NORM               0.000490745783 Eh/α |
          | HOMO-LUMO GAP               0.671166166220 eV   |
           -------------------------------------------------

 * finished run on 2023/06/21 at 17:37:18.602
