   * xtb version 6.5.1 (579679a) compiled by 'ehlert@majestix' on 2022-07-11
          program call               : /lustre/hpc/kemi/ree/PhD/git/ReactivityQM/dep/xtb-6.5.1/bin/xtb --gfn 1 /lustre/hpc/kemi/ree/PhD/git/ReactivityQM/calculations/R01/reac02prodN03/conf06/R01_reac02prodN03_conf06_gfn1.xyz --opt --vfukui --chrg 1 --uhf 0 --alpb DMSO

   ID    Z sym.   atoms
    1    6 C      1, 3, 5, 7-10, 13, 15, 17
    2    8 O      2, 4, 14, 16
    3    7 N      6, 11, 12
    4    1 H      18-33

      * Solvation model:               ALPB
        Solvent                        DMSO
        Solvent mass                       7.8130E+01 g/mol
          :  Hamiltonian                  GFN1-xTB          :
 * total energy  :   -57.7989280 Eh     change       -0.5051959E-11 Eh
 * total energy  :   -57.8131142 Eh     change       -0.1418610E-01 Eh
 * total energy  :   -57.8177022 Eh     change       -0.4588023E-02 Eh
 * total energy  :   -57.8186695 Eh     change       -0.9673639E-03 Eh
 * total energy  :   -57.8196765 Eh     change       -0.1007012E-02 Eh
 * total energy  :   -57.8203150 Eh     change       -0.6384555E-03 Eh
 * total energy  :   -57.8207557 Eh     change       -0.4407114E-03 Eh
 * total energy  :   -57.8210433 Eh     change       -0.2876131E-03 Eh
 * total energy  :   -57.8211722 Eh     change       -0.1288338E-03 Eh
 * total energy  :   -57.8212408 Eh     change       -0.6860782E-04 Eh
 * total energy  :   -57.8216775 Eh     change       -0.3005680E-04 Eh
 * total energy  :   -57.8216967 Eh     change       -0.1921470E-04 Eh
 * total energy  :   -57.8217128 Eh     change       -0.1609954E-04 Eh
 * total energy  :   -57.8217235 Eh     change       -0.1067704E-04 Eh
 * total energy  :   -57.8217325 Eh     change       -0.9062338E-05 Eh
 * total energy  :   -57.8217374 Eh     change       -0.4909221E-05 Eh
 * total energy  :   -57.8217460 Eh     change       -0.8520232E-05 Eh
 * total energy  :   -57.8217501 Eh     change       -0.4169235E-05 Eh
 * total energy  :   -57.8217541 Eh     change       -0.3913920E-05 Eh
   *** GEOMETRY OPTIMIZATION CONVERGED AFTER 27 ITERATIONS ***

 final structure:
================
33
 xtb: 6.5.1 (579679a)
C            3.90921155836073        2.49944454388702        0.07962640883663
O            2.99425340919882        1.38000704154531        0.00225820143382
C            1.68775712409700        1.67810479271849       -0.05501122562531
O            1.25707863496967        2.79405515184179       -0.05587245887611
C            0.82910948982872        0.43893550884002       -0.10808040712190
N           -0.49612027484832        0.69376643333823       -0.17392884700408
C           -1.32589214985350       -0.31389561155830       -0.24068367383654
C           -2.81696906300768       -0.08074039821741       -0.28126064762547
C           -3.13770266656616        1.05444166025562       -1.26334169892692
C           -3.25969023733305        0.28837622267181        1.14236718258541
N           -3.45116677733758       -1.33293563142357       -0.67148895742877
N           -0.90760059976745       -1.59127272096072       -0.23353800760347
C            0.41423733734622       -1.99599964431533       -0.17219962305038
O            0.73506855231289       -3.16739195073619       -0.17188531520224
C            1.29592178929502       -0.84791880093395       -0.10359246976412
O            2.69292898373098       -1.13004956166549       -0.10276497105797
C            3.22697730464093       -1.96758828566778        0.97798117027733
H            3.90539236144003        3.03216414880846       -0.87222454403140
H            4.88856655580606        2.07604749283492        0.28367938263055
H            3.59514936547220        3.16377888361623        0.88580239314939
H           -2.61624904901992        1.96248570637519       -0.96219023970873
H           -4.21007660163696        1.23875374711964       -1.26834014178282
H           -2.81996501390171        0.78007050731737       -2.26817664714650
H           -3.05459004762804       -0.53795158426629        1.82122222893625
H           -2.72139572441083        1.17195161751835        1.48269674432269
H           -4.32818503209349        0.49696981844921        1.14762306405494
H           -3.47952796054996       -1.40400477350992       -1.67948263135605
H           -4.40231747249059       -1.36171758816269       -0.33134613005633
H           -1.63747057014395       -2.30154793945809       -0.29940239874483
H            3.17427962821076       -0.24326630396255       -0.13021095804481
H            2.78686943396810       -2.95576295800985        0.86040982915388
H            2.96956521003946       -1.52384867571397        1.93826094024881
H            4.30255150186895       -1.99346084857656        0.82309444836514

          :  Hamiltonian                  GFN1-xTB          :
         :: total energy             -57.821754052851 Eh    ::
         :: gradient norm              0.000825061354 Eh/a0 ::
         :: HOMO-LUMO gap              1.765608550841 eV    ::
         :: SCC energy               -58.397089567066 Eh    ::
         :: -> Gsolv                  -0.102099469501 Eh    ::
         :: repulsion energy           0.593925931966 Eh    ::

    * Orbital Energies and Occupations

         #    Occupation            Energy/Eh            Energy/eV
      -------------------------------------------------------------
         1        2.0000           -0.9275343             -25.2395
       ...           ...                  ...                  ...
        35        2.0000           -0.5408062             -14.7161
        36        2.0000           -0.5355336             -14.5726
        37        2.0000           -0.5284199             -14.3790
        38        2.0000           -0.5255484             -14.3009
        39        2.0000           -0.5239817             -14.2583
        40        2.0000           -0.5209373             -14.1754
        41        2.0000           -0.5176283             -14.0854
        42        2.0000           -0.5141330             -13.9903
        43        2.0000           -0.5013638             -13.6428
        44        2.0000           -0.4885735             -13.2948
        45        2.0000           -0.4833014             -13.1513
        46        2.0000           -0.4749459             -12.9239
        47        2.0000           -0.4329032             -11.7799 (HOMO)
        48                         -0.3680183             -10.0143 (LUMO)
        49                         -0.3150178              -8.5721
        50                         -0.2752644              -7.4903
        51                         -0.2045611              -5.5664
        52                         -0.1708744              -4.6497
        53                         -0.1684523              -4.5838
        54                         -0.1536831              -4.1819
        55                         -0.1349291              -3.6716
        56                         -0.1312169              -3.5706
        57                         -0.1158145              -3.1515
        58                         -0.1124665              -3.0604
       ...                                ...                  ...
       100                          0.7323891              19.9293
      -------------------------------------------------------------
                  HL-Gap            0.0648849 Eh            1.7656 eV

Wiberg/Mayer (AO) data.
largest (>0.10) Wiberg bond orders for each atom

     #   Z sym  total        # sym  WBO       # sym  WBO       # sym  WBO
 ---------------------------------------------------------------------------
     1   6 C    3.828 --    19 H    0.985    20 H    0.978    18 H    0.978
                             2 O    0.851
     2   8 O    2.232 --     3 C    1.084     1 C    0.851     4 O    0.137
     3   6 C    3.847 --     4 O    1.730     2 O    1.084     5 C    0.962
     4   8 O    1.988 --     3 C    1.730     2 O    0.137
     5   6 C    3.973 --    15 C    1.524     6 N    1.265     3 C    0.962
     6   7 N    3.023 --     7 C    1.473     5 C    1.265
     7   6 C    3.903 --     6 N    1.473    12 N    1.259     8 C    0.984
     8   6 C    3.962 --    11 N    0.992     7 C    0.984     9 C    0.978
                            10 C    0.969
     9   6 C    3.991 --    23 H    0.984    22 H    0.984    21 H    0.983
                             8 C    0.978
    10   6 C    3.990 --    24 H    0.985    25 H    0.985    26 H    0.981
                             8 C    0.969
    11   7 N    2.986 --     8 C    0.992    27 H    0.935    28 H    0.931
    12   7 N    3.504 --     7 C    1.259    13 C    1.101    29 H    0.848
                            14 O    0.125
    13   6 C    3.919 --    14 O    1.600    15 C    1.109    12 N    1.101
    14   8 O    1.924 --    13 C    1.600    12 N    0.125
    15   6 C    3.822 --     5 C    1.524    13 C    1.109    16 O    0.865
    16   8 O    2.437 --    15 C    0.865    17 C    0.795    30 H    0.683
    17   6 C    3.768 --    32 H    0.983    33 H    0.977    31 H    0.973
                            16 O    0.795
    18   1 H    1.000 --     1 C    0.978
    19   1 H    1.004 --     1 C    0.985
    20   1 H    1.001 --     1 C    0.978
    21   1 H    1.006 --     9 C    0.983
    22   1 H    1.000 --     9 C    0.984
    23   1 H    1.001 --     9 C    0.984
    24   1 H    1.000 --    10 C    0.985
    25   1 H    1.002 --    10 C    0.985
    26   1 H    0.997 --    10 C    0.981
    27   1 H    0.948 --    11 N    0.935
    28   1 H    0.945 --    11 N    0.931
    29   1 H    0.937 --    12 N    0.848
    30   1 H    0.801 --    16 O    0.683
    31   1 H    1.007 --    17 C    0.973
    32   1 H    0.993 --    17 C    0.983
    33   1 H    0.992 --    17 C    0.977
 ---------------------------------------------------------------------------

           -------------------------------------------------
          | TOTAL ENERGY              -57.821754052851 Eh   |
          | GRADIENT NORM               0.000825061354 Eh/α |
          | HOMO-LUMO GAP               1.765608550841 eV   |
           -------------------------------------------------

 * finished run on 2023/06/20 at 15:05:01.565
