   * xtb version 6.5.1 (579679a) compiled by 'ehlert@majestix' on 2022-07-11
          program call               : /lustre/hpc/kemi/ree/PhD/git/ReactivityQM/dep/xtb-6.5.1/bin/xtb --gfn 1 /lustre/hpc/kemi/ree/PhD/git/ReactivityQM/calculations/R02methylcation/reac01prodN07/conf10/R02methylcation_reac01prodN07_conf10_gfn1.xyz --opt --vfukui --chrg 0 --uhf 0 --alpb DMSO

   ID    Z sym.   atoms
    1    6 C      1, 3, 5, 7-10, 12, 14, 17-19, 22, 24
    2    8 O      2, 4, 13, 20, 23, 25
    3    7 N      6, 11, 15, 16, 21
    4    1 H      26-42

      * Solvation model:               ALPB
        Solvent                        DMSO
        Solvent mass                       7.8130E+01 g/mol
          :  Hamiltonian                  GFN1-xTB          :
 * total energy  :   -82.9487753 Eh     change       -0.7332801E-11 Eh
 * total energy  :   -82.9662799 Eh     change       -0.1750461E-01 Eh
 * total energy  :   -82.9741022 Eh     change       -0.7822333E-02 Eh
 * total energy  :   -82.9755839 Eh     change       -0.1481639E-02 Eh
 * total energy  :   -82.9763419 Eh     change       -0.7580785E-03 Eh
 * total energy  :   -82.9765349 Eh     change       -0.1930050E-03 Eh
 * total energy  :   -82.9766592 Eh     change       -0.1242330E-03 Eh
 * total energy  :   -82.9767398 Eh     change       -0.8066210E-04 Eh
 * total energy  :   -82.9768133 Eh     change       -0.7350546E-04 Eh
 * total energy  :   -82.9768899 Eh     change       -0.7650907E-04 Eh
 * total energy  :   -82.9775633 Eh     change       -0.2311484E-04 Eh
 * total energy  :   -82.9775825 Eh     change       -0.1914727E-04 Eh
 * total energy  :   -82.9775974 Eh     change       -0.1494317E-04 Eh
 * total energy  :   -82.9776126 Eh     change       -0.1515963E-04 Eh
 * total energy  :   -82.9776143 Eh     change       -0.1772263E-05 Eh
 * total energy  :   -82.9776210 Eh     change       -0.6655092E-05 Eh
 * total energy  :   -82.9776250 Eh     change       -0.4019627E-05 Eh
 * total energy  :   -82.9776300 Eh     change       -0.4947261E-05 Eh
 * total energy  :   -82.9776338 Eh     change       -0.3882437E-05 Eh
   *** GEOMETRY OPTIMIZATION CONVERGED AFTER 44 ITERATIONS ***

 final structure:
================
42
 xtb: 6.5.1 (579679a)
C            6.40591173539055        0.32037804439489       -2.77800947923960
O            5.47335246448398       -0.35985293856850       -1.94875608729463
C            4.48197221107181        0.40226070986124       -1.42598015700232
O            4.42216116000018        1.60198440076691       -1.66744653358018
C            3.53757381650476       -0.32047768697754       -0.58513809627499
N            2.54881690083903        0.49601585730076       -0.07106674514951
C            1.63761532013580        0.02592808442934        0.69649155058695
C            0.57703237274830        0.95929011663825        1.25378710852399
C            0.87839438490320        2.38942653718805        0.80293333914023
C            0.50210630781607        0.89544506763115        2.78206302840805
N           -0.74134730141546        0.61188927264782        0.66548704429602
C           -1.50753741928366       -0.42210567766669        1.01749905799746
O           -1.25756685329008       -1.30374187091646        1.81486310250562
C           -2.81715507949752       -0.39939939820148        0.27274586091416
N           -3.19263703777551        0.43472694082465       -0.65177011991946
N           -4.44389908582168        0.05440176474329       -0.97383185212613
C           -5.17686853349705        0.77868471939468       -1.98920317869852
C           -4.79676591055699       -0.98798347660478       -0.25002565433401
C           -6.06365490863074       -1.73749520966015       -0.25493016345398
O           -3.78821196366856       -1.29164321650445        0.53949986125842
N            1.59519218449163       -1.30729606250252        1.04355815134933
C            2.49518151556959       -2.23743120316961        0.58892331520702
O            2.37675070653623       -3.41415517883918        0.91942606669887
C            3.59502596420984       -1.71237183957260       -0.30947162585692
O            4.44493035880613       -2.51319661789666       -0.73631805837527
H            7.14835450641237       -0.41215843422683       -3.09298694240066
H            6.89410676158970        1.13101898454960       -2.22825298165889
H            5.90616816888428        0.74194803454704       -3.65553644433234
H            1.84573281385456        2.69804381723664        1.19717830223829
H            0.11037940304414        3.06654895912530        1.17007394477837
H            0.91618868580965        2.44167870005407       -0.28449787685979
H            1.44116588539368        1.25916193111687        3.19742445831696
H           -0.30992079196386        1.52788771548895        3.13573887274799
H            0.33348075864674       -0.11942667290933        3.13413915497893
H           -1.11639207463219        1.26301431232579       -0.00409391320640
H           -4.99868166866011        0.31079464659839       -2.95680918645742
H           -4.81624964259133        1.80429854116802       -1.99675747362886
H           -6.23579878636524        0.74289011246478       -1.74791375108205
H           -6.17291527727858       -2.27742418849978       -1.19726324888015
H           -6.90497818045061       -1.05038053515660       -0.16425243793157
H           -6.06933021647676       -2.44552972374130        0.57174083301181
H            0.84231634472470       -1.64564633889039        1.62499195477004

          :  Hamiltonian                  GFN1-xTB          :
         :: total energy             -82.977633844173 Eh    ::
         :: gradient norm              0.000450187173 Eh/a0 ::
         :: HOMO-LUMO gap              0.412412407973 eV    ::
         :: SCC energy               -83.765723844497 Eh    ::
         :: -> Gsolv                  -0.133742205053 Eh    ::
         :: repulsion energy           0.813121907022 Eh    ::

    * Orbital Energies and Occupations

         #    Occupation            Energy/Eh            Energy/eV
      -------------------------------------------------------------
         1        2.0000           -0.9346654             -25.4335
       ...           ...                  ...                  ...
        55        2.0000           -0.5053498             -13.7513
        56        2.0000           -0.5012937             -13.6409
        57        2.0000           -0.4974164             -13.5354
        58        2.0000           -0.4901435             -13.3375
        59        2.0000           -0.4829044             -13.1405
        60        2.0000           -0.4689032             -12.7595
        61        2.0000           -0.4675573             -12.7229
        62        2.0000           -0.4591401             -12.4938
        63        2.0000           -0.4431662             -12.0592
        64        2.0000           -0.4398529             -11.9690
        65        2.0000           -0.4212282             -11.4622
        66        2.0000           -0.3825081             -10.4086
        67        1.9993           -0.3706201             -10.0851 (HOMO)
        68        0.0007           -0.3554642              -9.6727 (LUMO)
        69                         -0.3421406              -9.3101
        70                         -0.2731860              -7.4338
        71                         -0.2465308              -6.7084
        72                         -0.2371736              -6.4538
        73                         -0.2001332              -5.4459
        74                         -0.1838779              -5.0036
        75                         -0.1714990              -4.6667
        76                         -0.1312149              -3.5705
        77                         -0.1251651              -3.4059
        78                         -0.1231761              -3.3518
       ...                                ...                  ...
       134                          0.7544203              20.5288
      -------------------------------------------------------------
                  HL-Gap            0.0151559 Eh            0.4124 eV

Wiberg/Mayer (AO) data.
largest (>0.10) Wiberg bond orders for each atom

     #   Z sym  total        # sym  WBO       # sym  WBO       # sym  WBO
 ---------------------------------------------------------------------------
     1   6 C    3.897 --    26 H    0.987    28 H    0.981    27 H    0.980
                             2 O    0.923
     2   8 O    2.163 --     3 C    1.052     1 C    0.923     4 O    0.111
     3   6 C    3.850 --     4 O    1.578     5 C    1.109     2 O    1.052
     4   8 O    1.852 --     3 C    1.578     2 O    0.111
     5   6 C    3.908 --    24 C    1.267     6 N    1.158     3 C    1.109
                            25 O    0.127
     6   7 N    3.033 --     7 C    1.628     5 C    1.158
     7   6 C    3.934 --     6 N    1.628    21 N    1.101     8 C    0.966
     8   6 C    3.913 --     9 C    1.002    10 C    0.991     7 C    0.966
                            11 N    0.887
     9   6 C    3.991 --     8 C    1.002    30 H    0.986    31 H    0.982
                            29 H    0.981
    10   6 C    3.989 --     8 C    0.991    33 H    0.985    32 H    0.984
                            34 H    0.979
    11   7 N    3.389 --    12 C    1.310    35 H    0.894     8 C    0.887
                            13 O    0.202
    12   6 C    3.925 --    13 O    1.589    11 N    1.310    14 C    0.953
    13   8 O    1.937 --    12 C    1.589    11 N    0.202
    14   6 C    3.833 --    15 N    1.603    20 O    1.065    12 C    0.953
    15   7 N    2.983 --    14 C    1.603    16 N    1.147
    16   7 N    3.631 --    18 C    1.424    15 N    1.147    17 C    0.911
    17   6 C    3.886 --    38 H    0.976    37 H    0.975    36 H    0.964
                            16 N    0.911
    18   6 C    3.843 --    16 N    1.424    20 O    1.155    19 C    1.040
    19   6 C    3.962 --    18 C    1.040    41 H    0.972    40 H    0.951
                            39 H    0.941
    20   8 O    2.387 --    18 C    1.155    14 C    1.065
    21   7 N    3.429 --    22 C    1.162     7 C    1.101    42 H    0.882
                            23 O    0.136
    22   6 C    3.879 --    23 O    1.581    21 N    1.162    24 C    0.966
    23   8 O    1.861 --    22 C    1.581    21 N    0.136
    24   6 C    3.941 --    25 O    1.526     5 C    1.267    22 C    0.966
    25   8 O    1.828 --    24 C    1.526     5 C    0.127
    26   1 H    1.015 --     1 C    0.987
    27   1 H    1.014 --     1 C    0.980
    28   1 H    1.013 --     1 C    0.981
    29   1 H    1.008 --     9 C    0.981
    30   1 H    1.000 --     9 C    0.986
    31   1 H    1.010 --     9 C    0.982
    32   1 H    1.001 --    10 C    0.984
    33   1 H    1.000 --    10 C    0.985
    34   1 H    1.008 --    10 C    0.979
    35   1 H    0.941 --    11 N    0.894
    36   1 H    0.989 --    17 C    0.964
    37   1 H    0.992 --    17 C    0.975
    38   1 H    0.990 --    17 C    0.976
    39   1 H    0.986 --    19 C    0.941
    40   1 H    0.987 --    19 C    0.951
    41   1 H    0.986 --    19 C    0.972
    42   1 H    0.951 --    21 N    0.882
 ---------------------------------------------------------------------------

           -------------------------------------------------
          | TOTAL ENERGY              -82.977633844173 Eh   |
          | GRADIENT NORM               0.000450187173 Eh/α |
          | HOMO-LUMO GAP               0.412412407973 eV   |
           -------------------------------------------------

 * finished run on 2023/06/21 at 17:38:06.610
