   * xtb version 6.5.1 (579679a) compiled by 'ehlert@majestix' on 2022-07-11
          program call               : /lustre/hpc/kemi/ree/PhD/git/ReactivityQM/dep/xtb-6.5.1/bin/xtb --gfn 1 /lustre/hpc/kemi/ree/PhD/git/ReactivityQM/calculations/R02/reac01prodE06/conf08/R02_reac01prodE06_conf08_gfn1.xyz --opt --vfukui --chrg -1 --uhf 0 --alpb DMSO

   ID    Z sym.   atoms
    1    6 C      1, 3, 5, 6, 8, 11-15, 17, 19, 22, 23
    2    8 O      2, 4, 7, 9, 18, 24
    3    7 N      10, 16, 20, 21, 25
    4    1 H      26-43

      * Solvation model:               ALPB
        Solvent                        DMSO
        Solvent mass                       7.8130E+01 g/mol
          :  Hamiltonian                  GFN1-xTB          :
 * total energy  :   -83.8628262 Eh     change       -0.2515321E-11 Eh
 * total energy  :   -83.8743405 Eh     change       -0.1151428E-01 Eh
 * total energy  :   -83.8790545 Eh     change       -0.4714069E-02 Eh
 * total energy  :   -83.8798212 Eh     change       -0.7666343E-03 Eh
 * total energy  :   -83.8804854 Eh     change       -0.6642102E-03 Eh
 * total energy  :   -83.8808684 Eh     change       -0.3829739E-03 Eh
 * total energy  :   -83.8812523 Eh     change       -0.3839071E-03 Eh
 * total energy  :   -83.8816368 Eh     change       -0.3845556E-03 Eh
 * total energy  :   -83.8819960 Eh     change       -0.3591929E-03 Eh
 * total energy  :   -83.8823228 Eh     change       -0.3268391E-03 Eh
 * total energy  :   -83.8843266 Eh     change       -0.3224635E-04 Eh
 * total energy  :   -83.8843514 Eh     change       -0.2474798E-04 Eh
 * total energy  :   -83.8843644 Eh     change       -0.1301258E-04 Eh
 * total energy  :   -83.8843753 Eh     change       -0.1087113E-04 Eh
 * total energy  :   -83.8843823 Eh     change       -0.7074900E-05 Eh
 * total energy  :   -83.8843900 Eh     change       -0.7659712E-05 Eh
 * total energy  :   -83.8843982 Eh     change       -0.8205281E-05 Eh
 * total energy  :   -83.8844047 Eh     change       -0.6492543E-05 Eh
 * total energy  :   -83.8844082 Eh     change       -0.3475146E-05 Eh
   *** GEOMETRY OPTIMIZATION CONVERGED AFTER 45 ITERATIONS ***

 final structure:
================
43
 xtb: 6.5.1 (579679a)
C           -3.08227332606384        4.11555783658691       -0.30883083521854
O           -3.14425423485993        2.69119937013654       -0.23742352706379
C           -2.02590016630524        2.07336463507811        0.19523484347649
O           -1.04094622525352        2.71018250554562        0.50959054722836
C           -2.11633602953507        0.58640825800157        0.24670710547163
C           -3.32040725074458       -0.12290615366164        0.30178518645778
O           -4.58640869467274        0.46943377820701        0.23240396573421
C           -3.30319929035358       -1.51876657421937        0.60401825354634
O           -4.28879806684805       -2.25663332968305        0.75957121176824
N           -2.02646989945055       -2.04814681456830        0.83809468602056
C           -0.86014302396380       -1.42529176733468        0.23040241779488
C           -0.73667476065052       -1.87109457382040       -1.24684138068166
C            0.41018297357542       -1.82295324896103        1.05311704285621
C            0.79897273412243       -3.29400769996768        0.88845634040478
C            0.17788544037845       -1.48573951839330        2.53216866078392
N            1.47656932610427       -0.95931646584357        0.53339162527788
C            2.74867289115365       -0.98305137391402        0.93860135107443
O            3.24783877892852       -1.79104796378646        1.71400501128351
C            3.57401547460931        0.09588331036914        0.32012684526712
N            4.81515190221529        0.37823039546464        0.57358038671102
N            5.14953685599845        1.43620143491837       -0.22269134485392
C            4.09192778142534        1.73128626688419       -0.91162743639593
C            3.94653303113785        2.79684517655440       -1.92779545707659
O            3.06041009608650        0.92464204228186       -0.61474622512398
N           -0.91726977861469        0.01695220531675        0.27356268659693
H           -4.04792709770309        4.45836352551316       -0.67385717556468
H           -2.29060630441247        4.42539935423130       -0.99565510231048
H           -2.88299236516520        4.53804227146393        0.67981711709405
H           -4.56217485857331        1.25562942023471       -0.32650410189094
H           -2.01686673263241       -3.05804502919623        0.79635652132851
H           -1.56416768830829       -1.45004136524483       -1.81551677727738
H           -0.77365885637420       -2.95540848997816       -1.32985697690008
H            0.19852324560147       -1.50817881805065       -1.66868541062571
H           -0.06027065035078       -3.93075997482412        1.09187673557754
H            1.15167369855763       -3.48955448312848       -0.12277611464462
H            1.59323636219604       -3.55705584195674        1.58608686807194
H           -0.65099332518921       -2.07973167317310        2.91564765564669
H            1.07043103822315       -1.70127883820559        3.11786961832079
H           -0.06956005564939       -0.42812598857416        2.62990604277276
H            1.13884914783652       -0.15285098452961        0.01259297406576
H            4.88641574109990        3.33313814478567       -2.02931342458879
H            3.16072022327415        3.49260766765953       -1.63519763142131
H            3.67075093915909        2.36061837181161       -2.88724977900158

          :  Hamiltonian                  GFN1-xTB          :
         :: total energy             -83.884408173649 Eh    ::
         :: gradient norm              0.000571296806 Eh/a0 ::
         :: HOMO-LUMO gap              0.731999549853 eV    ::
         :: SCC energy               -84.640316913958 Eh    ::
         :: -> Gsolv                  -0.110958832518 Eh    ::
         :: repulsion energy           0.783806722975 Eh    ::

    * Orbital Energies and Occupations

         #    Occupation            Energy/Eh            Energy/eV
      -------------------------------------------------------------
         1        2.0000           -0.8552072             -23.2714
       ...           ...                  ...                  ...
        56        2.0000           -0.4735069             -12.8848
        57        2.0000           -0.4706236             -12.8063
        58        2.0000           -0.4601693             -12.5218
        59        2.0000           -0.4500061             -12.2453
        60        2.0000           -0.4481515             -12.1948
        61        2.0000           -0.4431820             -12.0596
        62        2.0000           -0.4382287             -11.9248
        63        2.0000           -0.4299639             -11.6999
        64        2.0000           -0.4257003             -11.5839
        65        2.0000           -0.4042679             -11.0007
        66        2.0000           -0.3902790             -10.6200
        67        2.0000           -0.3800431             -10.3415
        68        2.0000           -0.3222963              -8.7701 (HOMO)
        69        0.0000           -0.2953958              -8.0381 (LUMO)
        70                         -0.2672644              -7.2726
        71                         -0.2485515              -6.7634
        72                         -0.1928207              -5.2469
        73                         -0.1846429              -5.0244
        74                         -0.1385619              -3.7705
        75                         -0.1248319              -3.3968
        76                         -0.1178367              -3.2065
        77                         -0.1138565              -3.0982
        78                         -0.1032340              -2.8091
        79                         -0.0951577              -2.5894
       ...                                ...                  ...
       136                          0.7378653              20.0783
      -------------------------------------------------------------
                  HL-Gap            0.0269005 Eh            0.7320 eV

Wiberg/Mayer (AO) data.
largest (>0.10) Wiberg bond orders for each atom

     #   Z sym  total        # sym  WBO       # sym  WBO       # sym  WBO
 ---------------------------------------------------------------------------
     1   6 C    3.883 --    26 H    0.987    28 H    0.981    27 H    0.980
                             2 O    0.906
     2   8 O    2.188 --     3 C    1.070     1 C    0.906     4 O    0.121
     3   6 C    3.818 --     4 O    1.652     2 O    1.070     5 C    1.003
     4   8 O    1.904 --     3 C    1.652     2 O    0.121
     5   6 C    3.970 --    25 N    1.413     6 C    1.337     3 C    1.003
     6   6 C    3.862 --     5 C    1.337     8 C    1.190     7 O    0.971
                            25 N    0.180
     7   8 O    1.942 --     6 C    0.971    29 H    0.852
     8   6 C    3.914 --     9 O    1.498     6 C    1.190    10 N    1.075
     9   8 O    1.798 --     8 C    1.498    10 N    0.103
    10   7 N    3.193 --     8 C    1.075    11 C    0.946    30 H    0.920
                             9 O    0.103
    11   6 C    3.946 --    25 N    1.003    12 C    0.972    13 C    0.947
                            10 N    0.946
    12   6 C    3.996 --    32 H    0.985    31 H    0.984    33 H    0.984
                            11 C    0.972
    13   6 C    3.925 --    14 C    1.000    15 C    0.992    11 C    0.947
                            16 N    0.918
    14   6 C    3.994 --    13 C    1.000    35 H    0.984    34 H    0.984
                            36 H    0.980
    15   6 C    3.994 --    13 C    0.992    38 H    0.985    37 H    0.984
                            39 H    0.983
    16   7 N    3.393 --    17 C    1.308    13 C    0.918    40 H    0.878
                            18 O    0.186
    17   6 C    3.925 --    18 O    1.552    16 N    1.308    19 C    0.982
    18   8 O    1.873 --    17 C    1.552    16 N    0.186
    19   6 C    3.867 --    20 N    1.626    24 O    1.050    17 C    0.982
    20   7 N    2.992 --    19 C    1.626    21 N    1.191
    21   7 N    2.979 --    22 C    1.617    20 N    1.191
    22   6 C    3.872 --    21 N    1.617    24 O    1.074    23 C    1.030
    23   6 C    3.988 --    22 C    1.030    41 H    0.983    43 H    0.964
                            42 H    0.964
    24   8 O    2.318 --    22 C    1.074    19 C    1.050
    25   7 N    2.946 --     5 C    1.413    11 C    1.003     6 C    0.180
    26   1 H    1.012 --     1 C    0.987
    27   1 H    1.011 --     1 C    0.980
    28   1 H    1.011 --     1 C    0.981
    29   1 H    0.894 --     7 O    0.852
    30   1 H    0.968 --    10 N    0.920
    31   1 H    1.007 --    12 C    0.984
    32   1 H    1.005 --    12 C    0.985
    33   1 H    1.009 --    12 C    0.984
    34   1 H    1.003 --    14 C    0.984
    35   1 H    1.006 --    14 C    0.984
    36   1 H    1.015 --    14 C    0.980
    37   1 H    1.015 --    15 C    0.984
    38   1 H    1.010 --    15 C    0.985
    39   1 H    1.017 --    15 C    0.983
    40   1 H    0.978 --    16 N    0.878
    41   1 H    1.000 --    23 C    0.983
    42   1 H    0.998 --    23 C    0.964
    43   1 H    0.998 --    23 C    0.964
 ---------------------------------------------------------------------------

           -------------------------------------------------
          | TOTAL ENERGY              -83.884408173649 Eh   |
          | GRADIENT NORM               0.000571296806 Eh/α |
          | HOMO-LUMO GAP               0.731999549853 eV   |
           -------------------------------------------------

 * finished run on 2023/06/20 at 15:00:48.841
