   * xtb version 6.5.1 (579679a) compiled by 'ehlert@majestix' on 2022-07-11
          program call               : /lustre/hpc/kemi/ree/PhD/git/ReactivityQM/dep/xtb-6.5.1/bin/xtb --gfn 1 /lustre/hpc/kemi/ree/PhD/git/ReactivityQM/calculations/R01/reac01prodE02/conf05/R01_reac01prodE02_conf05_gfn1.xyz --opt --vfukui --chrg -1 --uhf 0 --alpb DMSO

   ID    Z sym.   atoms
    1    6 C      1, 3, 5, 6, 9, 10
    2    8 O      2, 4, 11
    3    7 N      7, 8
    4    1 H      12-20

      * Solvation model:               ALPB
        Solvent                        DMSO
        Solvent mass                       7.8130E+01 g/mol
          :  Hamiltonian                  GFN1-xTB          :
 * total energy  :   -38.2753423 Eh     change       -0.1463718E-11 Eh
 * total energy  :   -38.2862683 Eh     change       -0.1092600E-01 Eh
 * total energy  :   -38.2895273 Eh     change       -0.3259044E-02 Eh
 * total energy  :   -38.2901020 Eh     change       -0.5746505E-03 Eh
 * total energy  :   -38.2904150 Eh     change       -0.3129972E-03 Eh
 * total energy  :   -38.2905049 Eh     change       -0.8992292E-04 Eh
 * total energy  :   -38.2905475 Eh     change       -0.4265056E-04 Eh
 * total energy  :   -38.2905760 Eh     change       -0.2848638E-04 Eh
 * total energy  :   -38.2906061 Eh     change       -0.3005790E-04 Eh
 * total energy  :   -38.2906515 Eh     change       -0.4539336E-04 Eh
 * total energy  :   -38.3031860 Eh     change       -0.1977751E-04 Eh
 * total energy  :   -38.3032170 Eh     change       -0.3104289E-04 Eh
 * total energy  :   -38.3032355 Eh     change       -0.1850586E-04 Eh
 * total energy  :   -38.3032433 Eh     change       -0.7783767E-05 Eh
 * total energy  :   -38.3032535 Eh     change       -0.1014886E-04 Eh
 * total energy  :   -38.3032590 Eh     change       -0.5554536E-05 Eh
 * total energy  :   -38.3032650 Eh     change       -0.6036788E-05 Eh
 * total energy  :   -38.3032710 Eh     change       -0.6000319E-05 Eh
 * total energy  :   -38.3032736 Eh     change       -0.2568302E-05 Eh
   *** GEOMETRY OPTIMIZATION CONVERGED AFTER 58 ITERATIONS ***

 final structure:
================
20
 xtb: 6.5.1 (579679a)
C           -2.15538496191701        1.94311899702252       -0.22245726752667
O           -1.90818361666776        1.14756950919057       -1.37481988244755
C           -1.02662565861216        0.04985859652198       -1.22946567492736
O           -1.64813105325947       -1.19262381269064       -0.99828641799262
C           -2.03965490519855       -1.50300841532998        0.33455623333310
C            0.26050428578928        0.28703140712990       -0.77716177330352
N            0.92277997241078        1.46165361984232       -0.79394648129283
N            2.23801305570501        1.16302125526008       -0.48047771673593
C            2.32008023161622       -0.10550123988135       -0.29742965472587
C            3.52965423402610       -0.89726918007717        0.05410160798832
O            1.12035509662341       -0.75162629009114       -0.46413600826553
H           -1.22684983217311        2.40241786717941        0.14755435178399
H           -2.60897025743707        1.36296933399959        0.59148690192899
H           -2.84945024986686        2.73478647341755       -0.51715835420406
H           -2.94703972454617       -0.95899660576509        0.62862133506718
H           -2.25012331735797       -2.57550894731365        0.37135589289254
H           -1.24102649903003       -1.27291708784070        1.05177506981281
H            4.38136975407488       -0.22829740877535        0.15816134349039
H            3.38069504152048       -1.43252593775659        0.99283873365472
H            3.74798740430009       -1.63415213404360       -0.72054323852972

          :  Hamiltonian                  GFN1-xTB          :
         :: total energy             -38.303273614416 Eh    ::
         :: gradient norm              0.000407020647 Eh/a0 ::
         :: HOMO-LUMO gap              2.791933821733 eV    ::
         :: SCC energy               -38.606087761387 Eh    ::
         :: -> Gsolv                  -0.101069781808 Eh    ::
         :: repulsion energy           0.311354932312 Eh    ::

    * Orbital Energies and Occupations

         #    Occupation            Energy/Eh            Energy/eV
      -------------------------------------------------------------
         1        2.0000           -0.7744241             -21.0732
       ...           ...                  ...                  ...
        19        2.0000           -0.5110292             -13.9058
        20        2.0000           -0.5069284             -13.7942
        21        2.0000           -0.4951810             -13.4746
        22        2.0000           -0.4763823             -12.9630
        23        2.0000           -0.4705873             -12.8053
        24        2.0000           -0.4563293             -12.4174
        25        2.0000           -0.4222156             -11.4891
        26        2.0000           -0.4188308             -11.3970
        27        2.0000           -0.4164702             -11.3327
        28        2.0000           -0.3976150             -10.8197
        29        2.0000           -0.3877768             -10.5519
        30        2.0000           -0.3729266             -10.1478
        31        2.0000           -0.2908856              -7.9154 (HOMO)
        32                         -0.1882840              -5.1235 (LUMO)
        33                         -0.1500274              -4.0825
        34                         -0.1167450              -3.1768
        35                         -0.1128992              -3.0721
        36                         -0.1008461              -2.7442
        37                         -0.0594740              -1.6184
        38                         -0.0501358              -1.3643
        39                         -0.0491393              -1.3371
        40                         -0.0434354              -1.1819
        41                         -0.0383662              -1.0440
        42                         -0.0216951              -0.5904
       ...                                ...                  ...
        62                          0.6450797              17.5535
      -------------------------------------------------------------
                  HL-Gap            0.1026017 Eh            2.7919 eV

Wiberg/Mayer (AO) data.
largest (>0.10) Wiberg bond orders for each atom

     #   Z sym  total        # sym  WBO       # sym  WBO       # sym  WBO
 ---------------------------------------------------------------------------
     1   6 C    3.936 --    14 H    0.986    13 H    0.980    12 H    0.979
                             2 O    0.947
     2   8 O    1.982 --     1 C    0.947     3 C    0.914
     3   6 C    3.590 --     6 C    1.424     4 O    0.924     2 O    0.914
                             7 N    0.155
     4   8 O    1.987 --     5 C    0.944     3 C    0.924
     5   6 C    3.938 --    16 H    0.985    17 H    0.982    15 H    0.980
                             4 O    0.944
     6   6 C    3.861 --     3 C    1.424     7 N    1.323    11 O    0.971
     7   7 N    2.833 --     6 C    1.323     8 N    1.143     3 C    0.155
                             9 C    0.105
     8   7 N    2.985 --     9 C    1.680     7 N    1.143
     9   6 C    3.888 --     8 N    1.680    10 C    1.018    11 O    1.002
                             7 N    0.105
    10   6 C    3.996 --     9 C    1.018    18 H    0.987    19 H    0.975
                            20 H    0.975
    11   8 O    2.191 --     9 C    1.002     6 C    0.971
    12   1 H    1.035 --     1 C    0.979
    13   1 H    1.020 --     1 C    0.980
    14   1 H    1.023 --     1 C    0.986
    15   1 H    1.020 --     5 C    0.980
    16   1 H    1.022 --     5 C    0.985
    17   1 H    1.019 --     5 C    0.982
    18   1 H    1.007 --    10 C    0.987
    19   1 H    1.006 --    10 C    0.975
    20   1 H    1.007 --    10 C    0.975
 ---------------------------------------------------------------------------

           -------------------------------------------------
          | TOTAL ENERGY              -38.303273614416 Eh   |
          | GRADIENT NORM               0.000407020647 Eh/α |
          | HOMO-LUMO GAP               2.791933821733 eV   |
           -------------------------------------------------

 * finished run on 2023/06/20 at 14:53:00.772
