   * xtb version 6.5.1 (579679a) compiled by 'ehlert@majestix' on 2022-07-11
          program call               : /lustre/hpc/kemi/ree/PhD/git/ReactivityQM/dep/xtb-6.5.1/bin/xtb --gfn 1 /lustre/hpc/kemi/ree/PhD/git/ReactivityQM/calculations/R02methylcation/reac01/conf18/R02methylcation_reac01_conf18_gfn1.xyz --opt --vfukui --chrg -1 --uhf 0 --alpb DMSO

   ID    Z sym.   atoms
    1    6 C      1, 3, 5, 7-10, 12, 14, 17, 18, 21, 23
    2    8 O      2, 4, 13, 19, 22, 24
    3    7 N      6, 11, 15, 16, 20
    4    1 H      25-38

      * Solvation model:               ALPB
        Solvent                        DMSO
        Solvent mass                       7.8130E+01 g/mol
          :  Hamiltonian                  GFN1-xTB          :
 * total energy  :   -79.6024664 Eh     change       -0.3545608E-10 Eh
 * total energy  :   -79.6147483 Eh     change       -0.1228194E-01 Eh
 * total energy  :   -79.6189788 Eh     change       -0.4230446E-02 Eh
 * total energy  :   -79.6198336 Eh     change       -0.8548084E-03 Eh
 * total energy  :   -79.6204837 Eh     change       -0.6501405E-03 Eh
 * total energy  :   -79.6207671 Eh     change       -0.2833500E-03 Eh
 * total energy  :   -79.6209339 Eh     change       -0.1668415E-03 Eh
 * total energy  :   -79.6210293 Eh     change       -0.9542759E-04 Eh
 * total energy  :   -79.6210935 Eh     change       -0.6410450E-04 Eh
 * total energy  :   -79.6211475 Eh     change       -0.5404158E-04 Eh
 * total energy  :   -79.6215861 Eh     change       -0.1025849E-04 Eh
 * total energy  :   -79.6215927 Eh     change       -0.6592816E-05 Eh
 * total energy  :   -79.6216007 Eh     change       -0.7992592E-05 Eh
 * total energy  :   -79.6216117 Eh     change       -0.1097563E-04 Eh
 * total energy  :   -79.6216201 Eh     change       -0.8426818E-05 Eh
 * total energy  :   -79.6216237 Eh     change       -0.3624445E-05 Eh
 * total energy  :   -79.6216304 Eh     change       -0.6675583E-05 Eh
 * total energy  :   -79.6216361 Eh     change       -0.5740481E-05 Eh
 * total energy  :   -79.6216409 Eh     change       -0.4738218E-05 Eh
   *** GEOMETRY OPTIMIZATION CONVERGED AFTER 35 ITERATIONS ***

 final structure:
================
38
 xtb: 6.5.1 (579679a)
C            5.52531889597936        2.21814105298445       -0.51038401504186
O            4.37769470132531        1.42278322510617       -0.24896404455349
C            4.47597582931919        0.10711525006412       -0.61401711567874
O            5.49777832405727       -0.31109285212498       -1.13556839137416
C            3.27529391082001       -0.64956686275860       -0.30145702731528
N            2.25650431013127        0.07534995069939        0.28860040835210
C            1.15935705799798       -0.49431974850861        0.61936969687624
C            0.04746733810800        0.28579872382447        1.28879229991397
C            0.31874435022852        1.78782805291629        1.16548228687081
C           -0.05431019946150       -0.13626622798485        2.76193332990110
N           -1.20283408144773       -0.05181552840547        0.59000707775550
C           -2.40986121709992        0.43648265361218        0.92953576966462
O           -2.64742807514561        1.17158595079888        1.87300725825316
C           -3.45590462196552       -0.04816094528375       -0.01299255083984
N           -3.25697187347268       -0.80599875814639       -1.04894158798246
N           -4.47345700110499       -1.00325272061370       -1.63182664521948
C           -5.33635203582891       -0.35155663767309       -0.91412194144964
C           -6.79618823920827       -0.24677609698827       -1.12954565758453
O           -4.75577625336936        0.27289922516057        0.12173868934301
N            0.94562349738292       -1.84517620484404        0.41850867617362
C            1.86366439086813       -2.68277495735966       -0.16435792420055
O            1.59619548900835       -3.87285172518963       -0.30796733191482
C            3.16705754997829       -2.03809572353414       -0.58370942773820
O            4.03388762805327       -2.74601030250388       -1.12519084519573
H            5.29503050043783        3.22957209495382       -0.17814923385943
H            5.75854034836267        2.22489691549554       -1.58027012149119
H            6.39405556008996        1.83844773060291        0.03770422554961
H            0.34510811775887        2.07623826905021        0.11531268488054
H            1.28446829596927        2.01473791190985        1.61543064263809
H           -0.45690749115064        2.35559192325023        1.67511160316471
H            0.90350391483091        0.03469967342435        3.25158414966867
H           -0.82041702708318        0.44341285997901        3.27289893053814
H           -0.30518470846250       -1.19341092646044        2.83175074162734
H           -1.14428624179240       -0.60668290681142       -0.25196790716422
H           -7.33016271942485       -0.63675897328902       -0.26284060884543
H           -7.07930190183260        0.79814589029512       -1.25761630232577
H           -7.07683657964454       -0.81133584421309       -2.01572270240286
H            0.08091125678540       -2.26182341144023        0.72038491100625

          :  Hamiltonian                  GFN1-xTB          :
         :: total energy             -79.621640867544 Eh    ::
         :: gradient norm              0.000675775151 Eh/a0 ::
         :: HOMO-LUMO gap              1.679475874026 eV    ::
         :: SCC energy               -80.348935868215 Eh    ::
         :: -> Gsolv                  -0.123870326420 Eh    ::
         :: repulsion energy           0.750066860391 Eh    ::

    * Orbital Energies and Occupations

         #    Occupation            Energy/Eh            Energy/eV
      -------------------------------------------------------------
         1        2.0000           -0.8600700             -23.4037
       ...           ...                  ...                  ...
        52        2.0000           -0.4847304             -13.1902
        53        2.0000           -0.4785107             -13.0209
        54        2.0000           -0.4654325             -12.6651
        55        2.0000           -0.4598775             -12.5139
        56        2.0000           -0.4564628             -12.4210
        57        2.0000           -0.4558226             -12.4036
        58        2.0000           -0.4475726             -12.1791
        59        2.0000           -0.4409993             -12.0002
        60        2.0000           -0.4402518             -11.9799
        61        2.0000           -0.4375366             -11.9060
        62        2.0000           -0.4180782             -11.3765
        63        2.0000           -0.3786186             -10.3027
        64        2.0000           -0.3667629              -9.9801 (HOMO)
        65                         -0.3050433              -8.3006 (LUMO)
        66                         -0.2711120              -7.3773
        67                         -0.2537086              -6.9038
        68                         -0.2409019              -6.5553
        69                         -0.1973123              -5.3691
        70                         -0.1933214              -5.2605
        71                         -0.1407644              -3.8304
        72                         -0.1223308              -3.3288
        73                         -0.1178270              -3.2062
        74                         -0.1137531              -3.0954
        75                         -0.1090763              -2.9681
       ...                                ...                  ...
       124                          0.7661615              20.8483
      -------------------------------------------------------------
                  HL-Gap            0.0617196 Eh            1.6795 eV

Wiberg/Mayer (AO) data.
largest (>0.10) Wiberg bond orders for each atom

     #   Z sym  total        # sym  WBO       # sym  WBO       # sym  WBO
 ---------------------------------------------------------------------------
     1   6 C    3.899 --    25 H    0.987    27 H    0.980    26 H    0.980
                             2 O    0.927
     2   8 O    2.137 --     3 C    1.026     1 C    0.927     4 O    0.109
     3   6 C    3.850 --     4 O    1.593     5 C    1.118     2 O    1.026
     4   8 O    1.869 --     3 C    1.593     2 O    0.109
     5   6 C    3.915 --    23 C    1.266     6 N    1.154     3 C    1.118
                            24 O    0.130
     6   7 N    3.030 --     7 C    1.637     5 C    1.154
     7   6 C    3.933 --     6 N    1.637    20 N    1.088     8 C    0.979
     8   6 C    3.930 --     9 C    0.993    10 C    0.983     7 C    0.979
                            11 N    0.911
     9   6 C    3.992 --     8 C    0.993    28 H    0.985    29 H    0.984
                            30 H    0.984
    10   6 C    3.990 --    31 H    0.986    33 H    0.985     8 C    0.983
                            32 H    0.980
    11   7 N    3.353 --    12 C    1.267     8 C    0.911    34 H    0.896
                            13 O    0.181
    12   6 C    3.919 --    13 O    1.587    11 N    1.267    14 C    0.984
    13   8 O    1.905 --    12 C    1.587    11 N    0.181
    14   6 C    3.873 --    15 N    1.614    19 O    1.064    12 C    0.984
    15   7 N    3.016 --    14 C    1.614    16 N    1.196
    16   7 N    2.981 --    17 C    1.609    15 N    1.196
    17   6 C    3.872 --    16 N    1.609    19 O    1.082    18 C    1.031
    18   6 C    3.987 --    17 C    1.031    37 H    0.983    36 H    0.964
                            35 H    0.964
    19   8 O    2.328 --    17 C    1.082    14 C    1.064
    20   7 N    3.422 --    21 C    1.157     7 C    1.088    38 H    0.898
                            22 O    0.135
    21   6 C    3.876 --    22 O    1.581    20 N    1.157    23 C    0.966
    22   8 O    1.859 --    21 C    1.581    20 N    0.135
    23   6 C    3.942 --    24 O    1.527     5 C    1.266    21 C    0.966
    24   8 O    1.831 --    23 C    1.527     5 C    0.130
    25   1 H    1.016 --     1 C    0.987
    26   1 H    1.014 --     1 C    0.980
    27   1 H    1.014 --     1 C    0.980
    28   1 H    1.008 --     9 C    0.985
    29   1 H    1.014 --     9 C    0.984
    30   1 H    1.009 --     9 C    0.984
    31   1 H    1.004 --    10 C    0.986
    32   1 H    1.010 --    10 C    0.980
    33   1 H    1.003 --    10 C    0.985
    34   1 H    0.956 --    11 N    0.896
    35   1 H    0.997 --    18 C    0.964
    36   1 H    0.997 --    18 C    0.964
    37   1 H    0.999 --    18 C    0.983
    38   1 H    0.945 --    20 N    0.898
 ---------------------------------------------------------------------------

           -------------------------------------------------
          | TOTAL ENERGY              -79.621640867544 Eh   |
          | GRADIENT NORM               0.000675775151 Eh/α |
          | HOMO-LUMO GAP               1.679475874026 eV   |
           -------------------------------------------------

 * finished run on 2023/06/21 at 17:04:02.380
