   * xtb version 6.5.1 (579679a) compiled by 'ehlert@majestix' on 2022-07-11
          program call               : /lustre/hpc/kemi/ree/PhD/git/ReactivityQM/dep/xtb-6.5.1/bin/xtb --gfn 1 /lustre/hpc/kemi/ree/PhD/git/ReactivityQM/calculations/R02oxygendeprot/reac01/conf19/R02oxygendeprot_reac01_conf19_gfn1.xyz --opt --vfukui --chrg -1 --uhf 0 --alpb DMSO

   ID    Z sym.   atoms
    1    6 C      1, 3, 5, 7-10, 12, 14, 17, 18, 21, 23
    2    8 O      2, 4, 13, 19, 22, 24
    3    7 N      6, 11, 15, 16, 20
    4    1 H      25-38

      * Solvation model:               ALPB
        Solvent                        DMSO
        Solvent mass                       7.8130E+01 g/mol
          :  Hamiltonian                  GFN1-xTB          :
 * total energy  :   -79.6067488 Eh     change       -0.3844036E-10 Eh
 * total energy  :   -79.6188709 Eh     change       -0.1212217E-01 Eh
 * total energy  :   -79.6232534 Eh     change       -0.4382435E-02 Eh
 * total energy  :   -79.6241004 Eh     change       -0.8470715E-03 Eh
 * total energy  :   -79.6249295 Eh     change       -0.8290762E-03 Eh
 * total energy  :   -79.6254787 Eh     change       -0.5491421E-03 Eh
 * total energy  :   -79.6259536 Eh     change       -0.4749451E-03 Eh
 * total energy  :   -79.6262530 Eh     change       -0.2994105E-03 Eh
 * total energy  :   -79.6263734 Eh     change       -0.1204324E-03 Eh
 * total energy  :   -79.6264290 Eh     change       -0.5553171E-04 Eh
 * total energy  :   -79.6272054 Eh     change       -0.2985677E-04 Eh
 * total energy  :   -79.6272162 Eh     change       -0.1081861E-04 Eh
 * total energy  :   -79.6272364 Eh     change       -0.2017748E-04 Eh
 * total energy  :   -79.6272423 Eh     change       -0.5906090E-05 Eh
 * total energy  :   -79.6272510 Eh     change       -0.8742892E-05 Eh
 * total energy  :   -79.6272566 Eh     change       -0.5565589E-05 Eh
 * total energy  :   -79.6272623 Eh     change       -0.5654914E-05 Eh
 * total energy  :   -79.6272684 Eh     change       -0.6115116E-05 Eh
 * total energy  :   -79.6272731 Eh     change       -0.4727468E-05 Eh
   *** GEOMETRY OPTIMIZATION CONVERGED AFTER 38 ITERATIONS ***

 final structure:
================
38
 xtb: 6.5.1 (579679a)
C           -6.54239088829994       -0.74406887074271        0.03843568365868
O           -5.27634658638022       -0.72837506136341       -0.60327307010408
C           -4.26014729995044       -0.17369580609709        0.10732458224295
O           -4.45910764922565        0.26744434823426        1.23426380839956
C           -2.97740643701013       -0.15319211177989       -0.57762062891757
N           -1.97903330879474        0.44009983938897        0.17653261437443
C           -0.79178065296521        0.54308208920109       -0.28646732032344
C            0.29860212795234        1.23298594993376        0.50729267285171
C            0.54016441816217        2.63254285256187       -0.06697147917322
C           -0.09182815847657        1.31412920164878        1.98536092468586
N            1.55249349196439        0.48115881298635        0.35779608603739
C            1.66406483128656       -0.82011667394088        0.68888146764292
O            0.74892975014197       -1.53154048650211        1.06973928365899
C            3.04600641365635       -1.34200333799259        0.51736042705688
N            3.46173412901042       -2.55399149753819        0.71702175300838
N            4.79375325118171       -2.56668864951620        0.42229773759694
C            5.10725567775406       -1.36236698450063        0.06102911507160
C            6.43168856091314       -0.85647209950785       -0.35931513321551
O            4.04724094238916       -0.53755211054138        0.09867277862554
N           -0.45102830320017        0.09029602016837       -1.54521829162649
C           -1.33234048255204       -0.52547656907942       -2.39428806098279
O           -0.95263288050562       -0.90336605434982       -3.50095819491504
C           -2.74541605030177       -0.68346824567425       -1.87398859440598
O           -3.58420714049210       -1.24771800331113       -2.60138536927948
H           -6.87789325496258        0.27411787245951        0.25907292839380
H           -6.49760262348990       -1.30892217254037        0.97500008565294
H           -7.24260684716485       -1.22127143084576       -0.64619959890628
H            0.82798106716220        2.56518660825216       -1.11465552102715
H            1.33356231493240        3.13339469667521        0.48434551046916
H           -0.37077899256091        3.22427401961470        0.01133664226288
H            0.69674182985912        1.80491709933712        2.55137664556877
H           -1.01405642107616        1.88631361766365        2.07973725241523
H           -0.25648495538958        0.31523032661337        2.38803744302439
H            2.38330299144688        0.99633510167554        0.12977768602324
H            7.16172032767386       -1.66085123774397       -0.31870445482421
H            6.74438667486562       -0.04448885364996        0.29632591572644
H            6.37484890524165       -0.46446855209685       -1.37463334804739
H            0.48861222722116        0.22858735290736       -1.87681297870361

          :  Hamiltonian                  GFN1-xTB          :
         :: total energy             -79.627273095886 Eh    ::
         :: gradient norm              0.000754895771 Eh/a0 ::
         :: HOMO-LUMO gap              1.627353954470 eV    ::
         :: SCC energy               -80.355336343235 Eh    ::
         :: -> Gsolv                  -0.142128194732 Eh    ::
         :: repulsion energy           0.751261307026 Eh    ::

    * Orbital Energies and Occupations

         #    Occupation            Energy/Eh            Energy/eV
      -------------------------------------------------------------
         1        2.0000           -0.8607448             -23.4221
       ...           ...                  ...                  ...
        52        2.0000           -0.4814357             -13.1005
        53        2.0000           -0.4749729             -12.9247
        54        2.0000           -0.4639540             -12.6248
        55        2.0000           -0.4593218             -12.4988
        56        2.0000           -0.4545795             -12.3697
        57        2.0000           -0.4540709             -12.3559
        58        2.0000           -0.4468092             -12.1583
        59        2.0000           -0.4417102             -12.0195
        60        2.0000           -0.4370109             -11.8917
        61        2.0000           -0.4347527             -11.8302
        62        2.0000           -0.4134568             -11.2507
        63        2.0000           -0.3771232             -10.2620
        64        2.0000           -0.3638584              -9.9011 (HOMO)
        65                         -0.3040542              -8.2737 (LUMO)
        66                         -0.2684525              -7.3050
        67                         -0.2525844              -6.8732
        68                         -0.2359471              -6.4204
        69                         -0.1954744              -5.3191
        70                         -0.1918587              -5.2207
        71                         -0.1395528              -3.7974
        72                         -0.1242696              -3.3815
        73                         -0.1214038              -3.3036
        74                         -0.1129859              -3.0745
        75                         -0.1071213              -2.9149
       ...                                ...                  ...
       124                          0.7549888              20.5443
      -------------------------------------------------------------
                  HL-Gap            0.0598042 Eh            1.6274 eV

Wiberg/Mayer (AO) data.
largest (>0.10) Wiberg bond orders for each atom

     #   Z sym  total        # sym  WBO       # sym  WBO       # sym  WBO
 ---------------------------------------------------------------------------
     1   6 C    3.900 --    27 H    0.987    25 H    0.980    26 H    0.980
                             2 O    0.926
     2   8 O    2.159 --     3 C    1.045     1 C    0.926     4 O    0.109
     3   6 C    3.850 --     4 O    1.573     5 C    1.117     2 O    1.045
     4   8 O    1.849 --     3 C    1.573     2 O    0.109
     5   6 C    3.916 --    23 C    1.274     6 N    1.149     3 C    1.117
                            24 O    0.130
     6   7 N    3.030 --     7 C    1.640     5 C    1.149
     7   6 C    3.933 --     6 N    1.640    20 N    1.091     8 C    0.973
     8   6 C    3.932 --    10 C    0.992     9 C    0.989     7 C    0.973
                            11 N    0.915
     9   6 C    3.991 --     8 C    0.989    28 H    0.984    30 H    0.984
                            29 H    0.984
    10   6 C    3.991 --     8 C    0.992    31 H    0.987    32 H    0.983
                            33 H    0.981
    11   7 N    3.354 --    12 C    1.264     8 C    0.915    34 H    0.895
                            13 O    0.179
    12   6 C    3.920 --    13 O    1.584    11 N    1.264    14 C    0.988
    13   8 O    1.887 --    12 C    1.584    11 N    0.179
    14   6 C    3.870 --    15 N    1.625    19 O    1.048    12 C    0.988
    15   7 N    2.997 --    14 C    1.625    16 N    1.194
    16   7 N    2.981 --    17 C    1.615    15 N    1.194
    17   6 C    3.870 --    16 N    1.615    19 O    1.072    18 C    1.031
    18   6 C    3.987 --    17 C    1.031    35 H    0.983    36 H    0.964
                            37 H    0.963
    19   8 O    2.315 --    17 C    1.072    14 C    1.048
    20   7 N    3.427 --    21 C    1.165     7 C    1.091    38 H    0.898
                            22 O    0.136
    21   6 C    3.879 --    22 O    1.574    20 N    1.165    23 C    0.968
    22   8 O    1.855 --    21 C    1.574    20 N    0.136
    23   6 C    3.943 --    24 O    1.517     5 C    1.274    21 C    0.968
    24   8 O    1.822 --    23 C    1.517     5 C    0.130
    25   1 H    1.014 --     1 C    0.980
    26   1 H    1.014 --     1 C    0.980
    27   1 H    1.016 --     1 C    0.987
    28   1 H    1.000 --     9 C    0.984
    29   1 H    0.998 --     9 C    0.984
    30   1 H    1.003 --     9 C    0.984
    31   1 H    1.003 --    10 C    0.987
    32   1 H    1.013 --    10 C    0.983
    33   1 H    1.014 --    10 C    0.981
    34   1 H    0.937 --    11 N    0.895
    35   1 H    0.999 --    18 C    0.983
    36   1 H    0.997 --    18 C    0.964
    37   1 H    0.997 --    18 C    0.963
    38   1 H    0.949 --    20 N    0.898
 ---------------------------------------------------------------------------

           -------------------------------------------------
          | TOTAL ENERGY              -79.627273095886 Eh   |
          | GRADIENT NORM               0.000754895771 Eh/α |
          | HOMO-LUMO GAP               1.627353954470 eV   |
           -------------------------------------------------

 * finished run on 2023/06/21 at 17:00:34.945
