   * xtb version 6.5.1 (579679a) compiled by 'ehlert@majestix' on 2022-07-11
          program call               : /lustre/hpc/kemi/ree/PhD/git/ReactivityQM/dep/xtb-6.5.1/bin/xtb --gfn 1 /lustre/hpc/kemi/ree/PhD/git/ReactivityQM/calculations/R02methylcation/reac01prodE14/conf06/R02methylcation_reac01prodE14_conf06_gfn1.xyz --opt --vfukui --chrg -2 --uhf 0 --alpb DMSO

   ID    Z sym.   atoms
    1    6 C      1, 3, 5, 7-10, 12, 14, 17, 18, 21, 23, 24
    2    8 O      2, 4, 13, 19, 22, 25
    3    7 N      6, 11, 15, 16, 20
    4    1 H      26-42

      * Solvation model:               ALPB
        Solvent                        DMSO
        Solvent mass                       7.8130E+01 g/mol
          :  Hamiltonian                  GFN1-xTB          :
 * total energy  :   -83.5872613 Eh     change       -0.1694730E-08 Eh
 * total energy  :   -83.6033597 Eh     change       -0.1609842E-01 Eh
 * total energy  :   -83.6103003 Eh     change       -0.6940591E-02 Eh
 * total energy  :   -83.6117135 Eh     change       -0.1413190E-02 Eh
 * total energy  :   -83.6124795 Eh     change       -0.7659797E-03 Eh
 * total energy  :   -83.6128132 Eh     change       -0.3336888E-03 Eh
 * total energy  :   -83.6130488 Eh     change       -0.2355985E-03 Eh
 * total energy  :   -83.6132162 Eh     change       -0.1674204E-03 Eh
 * total energy  :   -83.6133467 Eh     change       -0.1304679E-03 Eh
 * total energy  :   -83.6134771 Eh     change       -0.1303897E-03 Eh
 * total energy  :   -83.6147339 Eh     change       -0.8921066E-05 Eh
 * total energy  :   -83.6147452 Eh     change       -0.1121267E-04 Eh
 * total energy  :   -83.6147535 Eh     change       -0.8348190E-05 Eh
 * total energy  :   -83.6147601 Eh     change       -0.6598002E-05 Eh
 * total energy  :   -83.6147679 Eh     change       -0.7832190E-05 Eh
 * total energy  :   -83.6147782 Eh     change       -0.1025576E-04 Eh
 * total energy  :   -83.6147888 Eh     change       -0.1056944E-04 Eh
 * total energy  :   -83.6147956 Eh     change       -0.6822401E-05 Eh
 * total energy  :   -83.6148006 Eh     change       -0.4989595E-05 Eh
   *** GEOMETRY OPTIMIZATION CONVERGED AFTER 37 ITERATIONS ***

 final structure:
================
42
 xtb: 6.5.1 (579679a)
C           -3.19069820100919        0.58477128081626        3.84524994438397
O           -3.31285647202632        0.39125624937804        2.45449828474313
C           -2.09430731925577        0.22689866780843        1.76633234731620
O           -1.04006385827893        0.28348007055530        2.43979404099244
C           -2.20179567220924       -0.01913844041996        0.39085419742724
N           -0.97747989140719       -0.07987160187473       -0.24191520952561
C           -0.85563032112396       -0.33989233101599       -1.49106918957842
C            0.51333863080943       -0.32410784217733       -2.14992772346396
C            0.87296862332802       -1.70044276522317       -2.73275587476710
C            0.57327481097712        0.75227143301865       -3.24574411342165
N            1.45007825979501        0.00791889915808       -1.07674639928632
C            2.77395738982249        0.11965466274016       -1.20819273260504
O            3.40913400039440        0.00011773344953       -2.25226979333735
C            3.42290495236164        0.42312653943668        0.09671358766995
N            2.81853289794833        0.62868597421006        1.22909504136756
N            3.79026758514641        0.86692400499891        2.15794264764336
C            4.92315237371552        0.79127804684760        1.53504088525465
C            6.27761938726042        0.96558942620653        2.10516008974020
O            4.76466327772670        0.51592991238882        0.22998047796253
N           -1.95649518143924       -0.67233430482496       -2.30200128862966
C           -3.20355275665319       -0.82972101353864       -1.75255250889688
O           -4.04075411420732       -1.49878109639729       -2.37131276384949
C           -3.49822701169564        0.03809492293361       -0.47924630911270
C           -4.68446552624735       -0.67970100438131        0.25688354508818
O           -3.81193450095134        1.27005731884949       -0.91173752001904
H           -2.70492762606017       -0.27239630291799        4.33006418220178
H           -2.60778919848217        1.48549417802251        4.08037480782733
H           -4.19743406166561        0.69807027759436        4.25198760693937
H            0.17120102801802       -1.96441632838502       -3.52141666775622
H            1.87549087435206       -1.68305034057219       -3.15665619663474
H            0.83115021326110       -2.45949851484534       -1.95256686258611
H           -0.19101925069913        0.55046242392492       -3.99421774739434
H            0.39481628799163        1.73699256772191       -2.81361828188619
H            1.54758868368374        0.74962047411578       -3.73132882050062
H            1.01557916289258        0.11022229021273       -0.15246289207423
H            6.20251382711241        1.15572664549076        3.17266030384226
H            6.78405691230268        1.80051080150601        1.62237751947765
H            6.87227531044856        0.06867039002337        1.93652820583126
H           -1.78213831156476       -1.16795699076226       -3.15979093505751
H           -4.34464456443209       -1.56529121501590        0.79575414865426
H           -5.15396622403265        0.01274432045713        0.95310954089008
H           -5.43438242590389       -0.97796941951188       -0.47791657486604

          :  Hamiltonian                  GFN1-xTB          :
         :: total energy             -83.614800568340 Eh    ::
         :: gradient norm              0.000626604204 Eh/a0 ::
         :: HOMO-LUMO gap              0.197281816371 eV    ::
         :: SCC energy               -84.349574666427 Eh    ::
         :: -> Gsolv                  -0.303097990581 Eh    ::
         :: repulsion energy           0.760666554228 Eh    ::

    * Orbital Energies and Occupations

         #    Occupation            Energy/Eh            Energy/eV
      -------------------------------------------------------------
         1        2.0000           -0.8479646             -23.0743
       ...           ...                  ...                  ...
        56        2.0000           -0.4427052             -12.0466
        57        2.0000           -0.4365025             -11.8778
        58        2.0000           -0.4315726             -11.7437
        59        2.0000           -0.4247884             -11.5591
        60        2.0000           -0.4202320             -11.4351
        61        2.0000           -0.4150284             -11.2935
        62        2.0000           -0.3996181             -10.8742
        63        2.0000           -0.3925712             -10.6824
        64        2.0000           -0.3832480             -10.4287
        65        2.0000           -0.3725071             -10.1364
        66        2.0000           -0.3066906              -8.3455
        67        1.9961           -0.2992666              -8.1435
        68        1.9588           -0.2970147              -8.0822 (HOMO)
        69        0.0451           -0.2897647              -7.8849 (LUMO)
        70                         -0.2435029              -6.6261
        71                         -0.2125607              -5.7841
        72                         -0.1776982              -4.8354
        73                         -0.1719311              -4.6785
        74                         -0.1378665              -3.7515
        75                         -0.1137819              -3.0962
        76                         -0.1103748              -3.0035
        77                         -0.1048273              -2.8525
        78                         -0.1016107              -2.7650
        79                         -0.0749515              -2.0395
       ...                                ...                  ...
       134                          0.7266538              19.7733
      -------------------------------------------------------------
                  HL-Gap            0.0072500 Eh            0.1973 eV

Wiberg/Mayer (AO) data.
largest (>0.10) Wiberg bond orders for each atom

     #   Z sym  total        # sym  WBO       # sym  WBO       # sym  WBO
 ---------------------------------------------------------------------------
     1   6 C    3.923 --    28 H    0.987    26 H    0.980    27 H    0.980
                             2 O    0.955
     2   8 O    2.080 --     1 C    0.955     3 C    0.928
     3   6 C    3.850 --     4 O    1.438     5 C    1.344     2 O    0.928
     4   8 O    1.742 --     3 C    1.438     5 C    0.111
     5   6 C    3.834 --     3 C    1.344     6 N    1.175    23 C    0.919
                             4 O    0.111
     6   7 N    3.086 --     7 C    1.616     5 C    1.175
     7   6 C    3.901 --     6 N    1.616    20 N    1.013     8 C    0.974
     8   6 C    3.929 --     9 C    0.984    10 C    0.983     7 C    0.974
                            11 N    0.923
     9   6 C    3.990 --    31 H    0.987     8 C    0.984    29 H    0.984
                            30 H    0.982
    10   6 C    3.991 --    33 H    0.986    32 H    0.986     8 C    0.983
                            34 H    0.983
    11   7 N    3.380 --    12 C    1.301     8 C    0.923    35 H    0.868
                            13 O    0.185
    12   6 C    3.912 --    13 O    1.543    11 N    1.301    14 C    0.989
    13   8 O    1.859 --    12 C    1.543    11 N    0.185
    14   6 C    3.847 --    15 N    1.605    19 O    1.050    12 C    0.989
    15   7 N    2.987 --    14 C    1.605    16 N    1.189
    16   7 N    2.981 --    17 C    1.619    15 N    1.189
    17   6 C    3.870 --    16 N    1.619    19 O    1.077    18 C    1.029
    18   6 C    3.989 --    17 C    1.029    36 H    0.984    38 H    0.966
                            37 H    0.965
    19   8 O    2.307 --    17 C    1.077    14 C    1.050
    20   7 N    3.347 --    21 C    1.167     7 C    1.013    39 H    0.913
                            22 O    0.115
    21   6 C    3.814 --    22 O    1.562    20 N    1.167    23 C    0.881
    22   8 O    1.832 --    21 C    1.562    20 N    0.115
    23   6 C    3.964 --    25 O    1.123    24 C    0.945     5 C    0.919
                            21 C    0.881
    24   6 C    3.988 --    40 H    0.991    41 H    0.987    42 H    0.985
                            23 C    0.945
    25   8 O    1.424 --    23 C    1.123
    26   1 H    1.022 --     1 C    0.980
    27   1 H    1.023 --     1 C    0.980
    28   1 H    1.020 --     1 C    0.987
    29   1 H    1.005 --     9 C    0.984
    30   1 H    1.012 --     9 C    0.982
    31   1 H    1.008 --     9 C    0.987
    32   1 H    1.006 --    10 C    0.986
    33   1 H    1.008 --    10 C    0.986
    34   1 H    1.012 --    10 C    0.983
    35   1 H    0.992 --    11 N    0.868
    36   1 H    1.000 --    18 C    0.984
    37   1 H    0.998 --    18 C    0.965
    38   1 H    0.998 --    18 C    0.966
    39   1 H    0.968 --    20 N    0.913
    40   1 H    1.018 --    24 C    0.991
    41   1 H    1.034 --    24 C    0.987
    42   1 H    1.026 --    24 C    0.985
 ---------------------------------------------------------------------------

           -------------------------------------------------
          | TOTAL ENERGY              -83.614800568340 Eh   |
          | GRADIENT NORM               0.000626604204 Eh/α |
          | HOMO-LUMO GAP               0.197281816371 eV   |
           -------------------------------------------------

 * finished run on 2023/06/21 at 17:28:31.531
