   * xtb version 6.5.1 (579679a) compiled by 'ehlert@majestix' on 2022-07-11
          program call               : /lustre/hpc/kemi/ree/PhD/git/ReactivityQM/dep/xtb-6.5.1/bin/xtb --gfn 1 /lustre/hpc/kemi/ree/PhD/git/ReactivityQM/calculations/R02methylcation/reac01prodE08/conf20/R02methylcation_reac01prodE08_conf20_gfn1.xyz --opt --vfukui --chrg -2 --uhf 0 --alpb DMSO

   ID    Z sym.   atoms
    1    6 C      1, 3, 5, 7-10, 12, 14, 15, 18, 19, 22, 24
    2    8 O      2, 4, 13, 20, 23, 25
    3    7 N      6, 11, 16, 17, 21
    4    1 H      26-42

      * Solvation model:               ALPB
        Solvent                        DMSO
        Solvent mass                       7.8130E+01 g/mol
          :  Hamiltonian                  GFN1-xTB          :
 * total energy  :   -83.6215856 Eh     change       -0.2316369E-11 Eh
 * total energy  :   -83.6366639 Eh     change       -0.1507830E-01 Eh
 * total energy  :   -83.6424495 Eh     change       -0.5785584E-02 Eh
 * total energy  :   -83.6435488 Eh     change       -0.1099292E-02 Eh
 * total energy  :   -83.6443142 Eh     change       -0.7654034E-03 Eh
 * total energy  :   -83.6446138 Eh     change       -0.2996231E-03 Eh
 * total energy  :   -83.6448199 Eh     change       -0.2060163E-03 Eh
 * total energy  :   -83.6449867 Eh     change       -0.1668529E-03 Eh
 * total energy  :   -83.6451432 Eh     change       -0.1565387E-03 Eh
 * total energy  :   -83.6453124 Eh     change       -0.1691820E-03 Eh
 * total energy  :   -83.6715395 Eh     change       -0.8134025E-05 Eh
 * total energy  :   -83.6715483 Eh     change       -0.8814107E-05 Eh
 * total energy  :   -83.6715574 Eh     change       -0.9054633E-05 Eh
 * total energy  :   -83.6715662 Eh     change       -0.8867803E-05 Eh
 * total energy  :   -83.6715748 Eh     change       -0.8507634E-05 Eh
 * total energy  :   -83.6715838 Eh     change       -0.9022205E-05 Eh
 * total energy  :   -83.6715945 Eh     change       -0.1068550E-04 Eh
 * total energy  :   -83.6716060 Eh     change       -0.1153501E-04 Eh
 * total energy  :   -83.6716090 Eh     change       -0.3006716E-05 Eh
   *** GEOMETRY OPTIMIZATION CONVERGED AFTER 44 ITERATIONS ***

 final structure:
================
42
 xtb: 6.5.1 (579679a)
C           -6.93481263714736       -0.19282288860109       -0.80330579144261
O           -5.79241754600028       -0.23397489156343        0.03423291418506
C           -4.61415526118654        0.12404241393770       -0.55525435750983
O           -4.59433013630325        0.43118215445962       -1.74530251997912
C           -3.46309414169265        0.11409224444277        0.32569257970538
N           -2.29682805112397        0.51522375664827       -0.30911393384638
C           -1.18966481115800        0.59858865443223        0.33784042165323
C            0.07423034534230        1.08086357399729       -0.36362559610113
C           -0.25093636507604        1.28396115995679       -1.85362700810702
C            0.50120637889837        2.43641897410627        0.23513938300769
N            1.14600874740761        0.08418075079757       -0.32319919426564
C            1.81823519754527       -0.13247647287839        0.76690919664689
O            1.68494682266333        0.32803580111938        1.93173841282622
C            2.97036025000740       -1.18135769339268        0.55446500719045
C            2.99797394328183       -2.19760789914905        1.69699753307923
N            2.85997624449858       -1.86748411992242       -0.74516659797710
N            4.04219140178138       -1.53668208520362       -1.47663602312018
C            4.75515901911074       -0.80413234308277       -0.72146206915590
C            6.09137746826104       -0.25092575964316       -1.07087050273891
O            4.24786376105634       -0.51440707146713        0.49457002783689
N           -1.12033203066797        0.29068765103413        1.67800436485094
C           -2.17715241471889       -0.13742751872969        2.42187857009026
O           -2.02937370035960       -0.40757694694915        3.61815750184082
C           -3.50015549372824       -0.24264896858045        1.69766987460657
O           -4.50486651190205       -0.62391361937505        2.33720538154364
H           -7.09584741598172        0.81722408804605       -1.19479802379598
H           -6.82724582813097       -0.88136719515849       -1.64811815832296
H           -7.79007555752653       -0.48936817763817       -0.19694237823826
H           -1.04637295136063        2.01833787002550       -1.98169365300782
H            0.64090669976590        1.62784949288984       -2.37593356225899
H           -0.57139953457709        0.33930496817061       -2.29409457716305
H            0.66736579542272        2.36208057713612        1.30842782710445
H           -0.27599715466461        3.17983644733526        0.05374594740758
H            1.42313362935888        2.77317763265315       -0.23824413403495
H            2.08433131777996       -1.43023422884789       -1.27168909968934
H            3.86733530684010       -2.84561336145132        1.60056493605462
H            3.04264622981740       -1.67073366242278        2.64939695398295
H            2.09510510083173       -2.80501478701979        1.66113999171474
H            6.36374943854596       -0.55403363068701       -2.07867241800898
H            6.84173496633056       -0.61336138699418       -0.36893319150993
H            6.07263532742909        0.83689782785082       -1.01084093039830
H           -0.21341584869903        0.37117866972118        2.14025889536218

          :  Hamiltonian                  GFN1-xTB          :
         :: total energy             -83.671608999483 Eh    ::
         :: gradient norm              0.000213729728 Eh/a0 ::
         :: HOMO-LUMO gap              2.481358243405 eV    ::
         :: SCC energy               -84.409081488287 Eh    ::
         :: -> Gsolv                  -0.263198836127 Eh    ::
         :: repulsion energy           0.763807308455 Eh    ::

    * Orbital Energies and Occupations

         #    Occupation            Energy/Eh            Energy/eV
      -------------------------------------------------------------
         1        2.0000           -0.7902643             -21.5042
       ...           ...                  ...                  ...
        56        2.0000           -0.4449217             -12.1069
        57        2.0000           -0.4408532             -11.9962
        58        2.0000           -0.4336981             -11.8015
        59        2.0000           -0.4233943             -11.5211
        60        2.0000           -0.4224504             -11.4955
        61        2.0000           -0.4135893             -11.2543
        62        2.0000           -0.3935040             -10.7078
        63        2.0000           -0.3927903             -10.6884
        64        2.0000           -0.3655152              -9.9462
        65        2.0000           -0.3584939              -9.7551
        66        2.0000           -0.3496794              -9.5153
        67        2.0000           -0.3496123              -9.5134
        68        2.0000           -0.3432460              -9.3402 (HOMO)
        69                         -0.2520578              -6.8588 (LUMO)
        70                         -0.2145679              -5.8387
        71                         -0.2116168              -5.7584
        72                         -0.1790058              -4.8710
        73                         -0.1678340              -4.5670
        74                         -0.1254358              -3.4133
        75                         -0.1166503              -3.1742
        76                         -0.0970540              -2.6410
        77                         -0.0912909              -2.4842
        78                         -0.0884102              -2.4058
        79                         -0.0848871              -2.3099
       ...                                ...                  ...
       134                          0.7619535              20.7338
      -------------------------------------------------------------
                  HL-Gap            0.0911882 Eh            2.4814 eV

Wiberg/Mayer (AO) data.
largest (>0.10) Wiberg bond orders for each atom

     #   Z sym  total        # sym  WBO       # sym  WBO       # sym  WBO
 ---------------------------------------------------------------------------
     1   6 C    3.905 --    28 H    0.987    27 H    0.980    26 H    0.980
                             2 O    0.932
     2   8 O    2.148 --     3 C    1.029     1 C    0.932     4 O    0.104
     3   6 C    3.847 --     4 O    1.560     5 C    1.135     2 O    1.029
     4   8 O    1.839 --     3 C    1.560     2 O    0.104
     5   6 C    3.919 --    24 C    1.280     6 N    1.142     3 C    1.135
                            25 O    0.128
     6   7 N    3.019 --     7 C    1.625     5 C    1.142
     7   6 C    3.926 --     6 N    1.625    21 N    1.109     8 C    0.968
     8   6 C    3.973 --     9 C    0.996    10 C    0.976    11 N    0.970
                             7 C    0.968
     9   6 C    3.997 --     8 C    0.996    30 H    0.988    29 H    0.987
                            31 H    0.985
    10   6 C    3.994 --    33 H    0.988    34 H    0.986    32 H    0.980
                             8 C    0.976
    11   7 N    2.934 --    12 C    1.558     8 C    0.970    13 O    0.211
    12   6 C    3.936 --    11 N    1.558    13 O    1.402    14 C    0.889
    13   8 O    1.807 --    12 C    1.402    11 N    0.211
    14   6 C    3.840 --    15 C    0.992    16 N    0.962    12 C    0.889
                            20 O    0.880
    15   6 C    3.996 --    14 C    0.992    36 H    0.987    38 H    0.986
                            37 H    0.983
    16   7 N    3.027 --    17 N    1.004    14 C    0.962    35 H    0.906
    17   7 N    2.968 --    18 C    1.748    16 N    1.004    20 O    0.125
    18   6 C    3.904 --    17 N    1.748    20 O    1.052    19 C    1.017
    19   6 C    3.994 --    18 C    1.017    39 H    0.986    40 H    0.971
                            41 H    0.971
    20   8 O    2.144 --    18 C    1.052    14 C    0.880    17 N    0.125
    21   7 N    3.450 --    22 C    1.196     7 C    1.109    42 H    0.857
                            23 O    0.138
    22   6 C    3.889 --    23 O    1.547    21 N    1.196    24 C    0.974
    23   8 O    1.828 --    22 C    1.547    21 N    0.138
    24   6 C    3.944 --    25 O    1.498     5 C    1.280    22 C    0.974
    25   8 O    1.801 --    24 C    1.498     5 C    0.128
    26   1 H    1.016 --     1 C    0.980
    27   1 H    1.016 --     1 C    0.980
    28   1 H    1.017 --     1 C    0.987
    29   1 H    1.017 --     9 C    0.987
    30   1 H    1.014 --     9 C    0.988
    31   1 H    1.022 --     9 C    0.985
    32   1 H    1.022 --    10 C    0.980
    33   1 H    1.008 --    10 C    0.988
    34   1 H    1.007 --    10 C    0.986
    35   1 H    1.014 --    16 N    0.906
    36   1 H    1.011 --    15 C    0.987
    37   1 H    1.018 --    15 C    0.983
    38   1 H    1.011 --    15 C    0.986
    39   1 H    1.004 --    19 C    0.986
    40   1 H    1.003 --    19 C    0.971
    41   1 H    1.002 --    19 C    0.971
    42   1 H    0.957 --    21 N    0.857
 ---------------------------------------------------------------------------

           -------------------------------------------------
          | TOTAL ENERGY              -83.671608999483 Eh   |
          | GRADIENT NORM               0.000213729728 Eh/α |
          | HOMO-LUMO GAP               2.481358243405 eV   |
           -------------------------------------------------

 * finished run on 2023/06/21 at 17:18:53.819
