   * xtb version 6.5.1 (579679a) compiled by 'ehlert@majestix' on 2022-07-11
          program call               : /lustre/hpc/kemi/ree/PhD/git/ReactivityQM/dep/xtb-6.5.1/bin/xtb --gfn 1 /lustre/hpc/kemi/ree/PhD/git/ReactivityQM/calculations/R02methylcation/reac01prodN06/conf13/R02methylcation_reac01prodN06_conf13_gfn1.xyz --opt --vfukui --chrg 0 --uhf 0 --alpb DMSO

   ID    Z sym.   atoms
    1    6 C      1, 3, 5, 7-10, 12, 14, 16, 17, 20, 22, 24
    2    8 O      2, 4, 13, 15, 23, 25
    3    7 N      6, 11, 18, 19, 21
    4    1 H      26-42

      * Solvation model:               ALPB
        Solvent                        DMSO
        Solvent mass                       7.8130E+01 g/mol
          :  Hamiltonian                  GFN1-xTB          :
 * total energy  :   -82.9559263 Eh     change       -0.2032152E-11 Eh
 * total energy  :   -82.9708380 Eh     change       -0.1491176E-01 Eh
 * total energy  :   -82.9779449 Eh     change       -0.7106865E-02 Eh
 * total energy  :   -82.9791175 Eh     change       -0.1172669E-02 Eh
 * total energy  :   -82.9800228 Eh     change       -0.9052139E-03 Eh
 * total energy  :   -82.9804554 Eh     change       -0.4326760E-03 Eh
 * total energy  :   -82.9808438 Eh     change       -0.3883387E-03 Eh
 * total energy  :   -82.9811660 Eh     change       -0.3221834E-03 Eh
 * total energy  :   -82.9813621 Eh     change       -0.1961518E-03 Eh
 * total energy  :   -82.9814607 Eh     change       -0.9856767E-04 Eh
 * total energy  :   -82.9828386 Eh     change       -0.7061892E-05 Eh
 * total energy  :   -82.9828460 Eh     change       -0.7377808E-05 Eh
 * total energy  :   -82.9828531 Eh     change       -0.7086250E-05 Eh
 * total energy  :   -82.9828597 Eh     change       -0.6641904E-05 Eh
 * total energy  :   -82.9828665 Eh     change       -0.6774549E-05 Eh
 * total energy  :   -82.9828738 Eh     change       -0.7263173E-05 Eh
 * total energy  :   -82.9828802 Eh     change       -0.6422390E-05 Eh
 * total energy  :   -82.9828855 Eh     change       -0.5318723E-05 Eh
 * total energy  :   -82.9828883 Eh     change       -0.2803475E-05 Eh
   *** GEOMETRY OPTIMIZATION CONVERGED AFTER 66 ITERATIONS ***

 final structure:
================
42
 xtb: 6.5.1 (579679a)
C            6.73186111985267        0.19017764409561        1.21384533763726
O            5.53872415571138        0.83737843163537        0.78867099060473
C            4.52929419757954        0.02283328498188        0.40522109081685
O            4.65619052236932       -1.19394362005193        0.43778553744013
C            3.32441398065367        0.71535668348262       -0.04252692256425
N            2.33353978234186       -0.15040701496860       -0.45199761894857
C            1.21534563994559        0.28921027784737       -0.89983139079453
C            0.15877023533777       -0.69585906511748       -1.36790518903561
C           -0.26412740872317       -0.43774786490927       -2.81683518290809
C            0.69413889355620       -2.12084740724049       -1.22270658140961
N           -1.01821976921127       -0.60140356695040       -0.46821118093317
C           -1.94147346002324        0.35696320871224       -0.49613052228972
O           -1.98366302379338        1.35133051257736       -1.20545765956309
C           -3.04085852239307        0.14030406512181        0.48980244557932
O           -3.14069682519705       -0.88320920819657        1.32918839203688
C           -4.29098149688684       -0.69704928660480        2.00340778727717
C           -4.72903207398815       -1.66231984545138        3.02566896847949
N           -4.89291183130793        0.38879546828344        1.61571204264210
N           -4.09887732046460        0.90735223006698        0.66136470241346
C           -4.47000791138903        2.12836981519631       -0.02297039104777
N            0.94422802304679        1.63643276592458       -0.98155846447460
C            1.82275850720391        2.61334985010512       -0.58275004687730
O            1.50229306720503        3.79448295332528       -0.66722123005111
C            3.15929672814178        2.12766449049583       -0.06282142732295
O            3.99461379533331        2.96933576836929        0.30571370172238
H            7.14555018135533       -0.42410153440068        0.40814347473303
H            6.53619092006458       -0.44944024747484        2.07981421761468
H            7.44035979618568        0.97246594394609        1.48394240864315
H            0.58152617172475       -0.64010461610405       -3.47311851127209
H           -0.58301232463731        0.59102094420270       -2.96476027187075
H           -1.08483455183112       -1.10114575108438       -3.08267065320511
H            1.56547665263682       -2.24708993769645       -1.86414034991541
H            0.99331615501364       -2.30864282581469       -0.19233753604843
H           -0.07047227840660       -2.83783650493655       -1.51325888120203
H           -1.14855121487307       -1.35722220388798        0.18447491795177
H           -3.96739880900603       -1.75082623240527        3.80123877983273
H           -4.85532984942804       -2.64490919039082        2.56955494789784
H           -5.66906927423782       -1.33501283884823        3.46323139344734
H           -5.44813641442143        2.43256700640096        0.33886259153533
H           -4.49198157094156        1.93423428520707       -1.09435890527465
H           -3.72178475619612        2.89239098845422        0.18625222161454
H            0.04353216209568        1.94283814410572       -1.31832403290630

          :  Hamiltonian                  GFN1-xTB          :
         :: total energy             -82.982888313283 Eh    ::
         :: gradient norm              0.000221830562 Eh/a0 ::
         :: HOMO-LUMO gap              0.205296499744 eV    ::
         :: SCC energy               -83.769477253033 Eh    ::
         :: -> Gsolv                  -0.110498662495 Eh    ::
         :: repulsion energy           0.811932979228 Eh    ::

    * Orbital Energies and Occupations

         #    Occupation            Energy/Eh            Energy/eV
      -------------------------------------------------------------
         1        2.0000           -0.9278225             -25.2473
       ...           ...                  ...                  ...
        55        2.0000           -0.5086055             -13.8399
        56        2.0000           -0.5040772             -13.7166
        57        2.0000           -0.5006914             -13.6245
        58        2.0000           -0.4922659             -13.3952
        59        2.0000           -0.4866506             -13.2424
        60        2.0000           -0.4731545             -12.8752
        61        2.0000           -0.4699426             -12.7878
        62        2.0000           -0.4637300             -12.6187
        63        2.0000           -0.4477307             -12.1834
        64        2.0000           -0.4434643             -12.0673
        65        2.0000           -0.4255768             -11.5805
        66        2.0000           -0.3869830             -10.5303
        67        1.9630           -0.3748058             -10.1990 (HOMO)
        68        0.0370           -0.3672613              -9.9937 (LUMO)
        69                         -0.3158781              -8.5955
        70                         -0.2769641              -7.5366
        71                         -0.2513353              -6.8392
        72                         -0.2441530              -6.6437
        73                         -0.2038390              -5.5467
        74                         -0.1637934              -4.4570
        75                         -0.1632703              -4.4428
        76                         -0.1315449              -3.5795
        77                         -0.1256715              -3.4197
        78                         -0.1239169              -3.3720
       ...                                ...                  ...
       134                          0.7531055              20.4930
      -------------------------------------------------------------
                  HL-Gap            0.0075445 Eh            0.2053 eV

Wiberg/Mayer (AO) data.
largest (>0.10) Wiberg bond orders for each atom

     #   Z sym  total        # sym  WBO       # sym  WBO       # sym  WBO
 ---------------------------------------------------------------------------
     1   6 C    3.895 --    28 H    0.987    27 H    0.980    26 H    0.980
                             2 O    0.921
     2   8 O    2.166 --     3 C    1.060     1 C    0.921     4 O    0.113
     3   6 C    3.848 --     4 O    1.586     5 C    1.097     2 O    1.060
     4   8 O    1.854 --     3 C    1.586     2 O    0.113
     5   6 C    3.877 --    24 C    1.255     6 N    1.171     3 C    1.097
                            25 O    0.118
     6   7 N    3.029 --     7 C    1.613     5 C    1.171
     7   6 C    3.919 --     6 N    1.613    21 N    1.108     8 C    0.965
     8   6 C    3.910 --    10 C    1.002     9 C    0.990     7 C    0.965
                            11 N    0.886
     9   6 C    3.987 --     8 C    0.990    31 H    0.984    29 H    0.983
                            30 H    0.979
    10   6 C    3.990 --     8 C    1.002    34 H    0.986    33 H    0.981
                            32 H    0.981
    11   7 N    3.397 --    12 C    1.320    35 H    0.890     8 C    0.886
                            13 O    0.197
    12   6 C    3.918 --    13 O    1.545    11 N    1.320    14 C    0.975
    13   8 O    1.916 --    12 C    1.545    11 N    0.197
    14   6 C    3.800 --    19 N    1.422    15 O    1.113    12 C    0.975
    15   8 O    2.350 --    14 C    1.113    16 C    1.065
    16   6 C    3.838 --    18 N    1.581    15 O    1.065    17 C    1.042
    17   6 C    3.972 --    16 C    1.042    38 H    0.978    36 H    0.952
                            37 H    0.950
    18   7 N    2.962 --    16 C    1.581    19 N    1.152
    19   7 N    3.615 --    14 C    1.422    18 N    1.152    20 C    0.911
    20   6 C    3.883 --    39 H    0.981    40 H    0.964    41 H    0.963
                            19 N    0.911
    21   7 N    3.427 --    22 C    1.157     7 C    1.108    42 H    0.880
                            23 O    0.134
    22   6 C    3.875 --    23 O    1.588    21 N    1.157    24 C    0.964
    23   8 O    1.862 --    22 C    1.588    21 N    0.134
    24   6 C    3.932 --    25 O    1.535     5 C    1.255    22 C    0.964
    25   8 O    1.818 --    24 C    1.535     5 C    0.118
    26   1 H    1.013 --     1 C    0.980
    27   1 H    1.013 --     1 C    0.980
    28   1 H    1.015 --     1 C    0.987
    29   1 H    1.001 --     9 C    0.983
    30   1 H    1.008 --     9 C    0.979
    31   1 H    0.999 --     9 C    0.984
    32   1 H    1.008 --    10 C    0.981
    33   1 H    1.009 --    10 C    0.981
    34   1 H    0.999 --    10 C    0.986
    35   1 H    0.929 --    11 N    0.890
    36   1 H    0.989 --    17 C    0.952
    37   1 H    0.989 --    17 C    0.950
    38   1 H    0.991 --    17 C    0.978
    39   1 H    0.996 --    20 C    0.981
    40   1 H    0.999 --    20 C    0.964
    41   1 H    0.997 --    20 C    0.963
    42   1 H    0.948 --    21 N    0.880
 ---------------------------------------------------------------------------

           -------------------------------------------------
          | TOTAL ENERGY              -82.982888313283 Eh   |
          | GRADIENT NORM               0.000221830562 Eh/α |
          | HOMO-LUMO GAP               0.205296499744 eV   |
           -------------------------------------------------

 * finished run on 2023/06/21 at 17:36:40.696
