                         Program Version 5.0.1 -  RELEASE  -
|  1> # ORCA input file
|  2> ! SP r2SCAN-3c CPCM
|  3>
|  4> %maxcore 1875.0
|  5> %pal nprocs 4 end
|  6> %cpcm smd true SMDsolvent "DMSO" end
|  7>
|  8> *xyz -1 1
|  9> C      -4.734654   -1.206859    0.847946
| 10> N      -3.349132   -1.335048    0.399552
| 11> C      -2.547060   -0.251342    0.141997
| 12> C      -3.050797    1.184823    0.255557
| 13> C      -3.833678    1.545209   -1.016190
| 14> C      -1.845815    2.132545    0.383057
| 15> N      -3.917489    1.345897    1.421000
| 16> N      -1.323919   -0.385615   -0.261930
| 17> C      -0.774941   -1.631266   -0.428410
| 18> C       0.612394   -1.714409   -0.880917
| 19> O       1.196902   -2.810280   -1.039635
| 20> N       1.200396   -0.529341   -1.146667
| 21> C       2.608058   -0.390196   -1.418868
| 22> C       3.468572   -0.066011   -0.119603
| 23> C       3.253370   -1.224990    0.883071
| 24> C       4.912591   -0.006471   -0.547658
| 25> C       5.651394    1.143739   -0.514635
| 26> C       5.096916    2.322002   -0.015481
| 27> F       5.867090    3.463104    0.020157
| 28> C       3.797519    2.362804    0.492798
| 29> C       3.018098    1.241003    0.478890
| 30> C      -1.518232   -2.768889   -0.159285
| 31> O      -0.997468   -4.009447   -0.307246
| 32> C      -2.875417   -2.662239    0.296338
| 33> O      -3.616893   -3.608756    0.582258
| 34> H      -5.250278   -2.147657    0.650496
| 35> H      -4.764876   -0.995897    1.917031
| 36> H      -5.236049   -0.405692    0.314951
| 37> H      -4.737387    0.945480   -1.110138
| 38> H      -4.119677    2.595564   -0.984142
| 39> H      -3.209795    1.378386   -1.893899
| 40> H      -1.235025    1.851672    1.240083
| 41> H      -1.230049    2.089265   -0.514298
| 42> H      -2.201446    3.152060    0.521050
| 43> H      -3.352915    1.362032    2.260795
| 44> H      -4.387880    2.237145    1.359008
| 45> H       0.674834    0.303930   -0.919381
| 46> H       2.974050   -1.319622   -1.866875
| 47> H       2.752100    0.428941   -2.127941
| 48> H       3.471674   -2.186130    0.415866
| 49> H       2.225030   -1.233184    1.244774
| 50> H       3.918416   -1.088081    1.735855
| 51> H       5.350708   -0.927778   -0.918392
| 52> H       6.682293    1.144622   -0.855448
| 53> H       3.420742    3.288607    0.915880
| 54> H       2.013078    1.269798    0.887916
| 55> H      -0.055354   -3.883428   -0.619284
| 56> **                         ****END OF INPUT****

CARTESIAN COORDINATES (ANGSTROEM)
---------------------------------
  C     -4.734654   -1.206859    0.847946
  N     -3.349132   -1.335048    0.399552
  C     -2.547060   -0.251342    0.141997
  C     -3.050797    1.184823    0.255557
  C     -3.833678    1.545209   -1.016190
  C     -1.845815    2.132545    0.383057
  N     -3.917489    1.345897    1.421000
  N     -1.323919   -0.385615   -0.261930
  C     -0.774941   -1.631266   -0.428410
  C      0.612394   -1.714409   -0.880917
  O      1.196902   -2.810280   -1.039635
  N      1.200396   -0.529341   -1.146667
  C      2.608058   -0.390196   -1.418868
  C      3.468572   -0.066011   -0.119603
  C      3.253370   -1.224990    0.883071
  C      4.912591   -0.006471   -0.547658
  C      5.651394    1.143739   -0.514635
  C      5.096916    2.322002   -0.015481
  F      5.867090    3.463104    0.020157
  C      3.797519    2.362804    0.492798
  C      3.018098    1.241003    0.478890
  C     -1.518232   -2.768889   -0.159285
  O     -0.997468   -4.009447   -0.307246
  C     -2.875417   -2.662239    0.296338
  O     -3.616893   -3.608756    0.582258
  H     -5.250278   -2.147657    0.650496
  H     -4.764876   -0.995897    1.917031
  H     -5.236049   -0.405692    0.314951
  H     -4.737387    0.945480   -1.110138
  H     -4.119677    2.595564   -0.984142
  H     -3.209795    1.378386   -1.893899
  H     -1.235025    1.851672    1.240083
  H     -1.230049    2.089265   -0.514298
  H     -2.201446    3.152060    0.521050
  H     -3.352915    1.362032    2.260795
  H     -4.387880    2.237145    1.359008
  H      0.674834    0.303930   -0.919381
  H      2.974050   -1.319622   -1.866875
  H      2.752100    0.428941   -2.127941
  H      3.471674   -2.186130    0.415866
  H      2.225030   -1.233184    1.244774
  H      3.918416   -1.088081    1.735855
  H      5.350708   -0.927778   -0.918392
  H      6.682293    1.144622   -0.855448
  H      3.420742    3.288607    0.915880
  H      2.013078    1.269798    0.887916
  H     -0.055354   -3.883428   -0.619284

 Total Charge           Charge          ....   -1
 Multiplicity           Mult            ....    1
 Number of Electrons    NEL             ....  186
 Basis Dimension        Dim             ....  625

ORBITAL ENERGIES
----------------

  NO   OCC          E(Eh)            E(eV)
   0   2.0000     -24.460368      -665.6005
   1   2.0000     -18.967366      -516.1283
   2   2.0000     -18.918631      -514.8021
   3   2.0000     -18.912676      -514.6401
   4   2.0000     -14.222192      -387.0055
   5   2.0000     -14.176546      -385.7634
   6   2.0000     -14.151367      -385.0783
   7   2.0000     -14.127544      -384.4300
   8   2.0000     -10.128137      -275.6006
   9   2.0000     -10.122369      -275.4437
  10   2.0000     -10.108342      -275.0620
  11   2.0000     -10.097268      -274.7606
  12   2.0000     -10.076578      -274.1976
  13   2.0000     -10.068846      -273.9872
  14   2.0000     -10.048366      -273.4299
  15   2.0000     -10.046031      -273.3664
  16   2.0000     -10.042494      -273.2701
  17   2.0000     -10.030829      -272.9527
  18   2.0000     -10.016835      -272.5719
  19   2.0000     -10.007967      -272.3306
  20   2.0000     -10.007841      -272.3272
  21   2.0000     -10.007105      -272.3072
  22   2.0000      -9.996194      -272.0103
  23   2.0000      -9.988284      -271.7950
  24   2.0000      -9.987875      -271.7839
  25   2.0000      -1.142099       -31.0781
  26   2.0000      -1.025065       -27.8934
  27   2.0000      -0.998645       -27.1745
  28   2.0000      -0.987634       -26.8749
  29   2.0000      -0.947490       -25.7825
  30   2.0000      -0.887894       -24.1608
  31   2.0000      -0.866382       -23.5755
  32   2.0000      -0.857289       -23.3280
  33   2.0000      -0.787930       -21.4407
  34   2.0000      -0.751667       -20.4539
  35   2.0000      -0.720949       -19.6180
  36   2.0000      -0.708362       -19.2755
  37   2.0000      -0.692606       -18.8468
  38   2.0000      -0.686325       -18.6759
  39   2.0000      -0.651016       -17.7150
  40   2.0000      -0.649477       -17.6732
  41   2.0000      -0.620597       -16.8873
  42   2.0000      -0.616124       -16.7656
  43   2.0000      -0.603606       -16.4249
  44   2.0000      -0.555702       -15.1214
  45   2.0000      -0.546582       -14.8733
  46   2.0000      -0.539289       -14.6748
  47   2.0000      -0.527961       -14.3665
  48   2.0000      -0.516348       -14.0505
  49   2.0000      -0.499638       -13.5958
  50   2.0000      -0.478355       -13.0167
  51   2.0000      -0.471668       -12.8347
  52   2.0000      -0.459103       -12.4928
  53   2.0000      -0.447003       -12.1636
  54   2.0000      -0.433680       -11.8010
  55   2.0000      -0.431481       -11.7412
  56   2.0000      -0.429135       -11.6774
  57   2.0000      -0.416722       -11.3396
  58   2.0000      -0.406875       -11.0716
  59   2.0000      -0.406178       -11.0527
  60   2.0000      -0.401159       -10.9161
  61   2.0000      -0.394802       -10.7431
  62   2.0000      -0.390679       -10.6309
  63   2.0000      -0.381254       -10.3744
  64   2.0000      -0.380070       -10.3422
  65   2.0000      -0.367883       -10.0106
  66   2.0000      -0.365303        -9.9404
  67   2.0000      -0.363936        -9.9032
  68   2.0000      -0.358464        -9.7543
  69   2.0000      -0.353356        -9.6153
  70   2.0000      -0.351712        -9.5706
  71   2.0000      -0.347830        -9.4649
  72   2.0000      -0.345337        -9.3971
  73   2.0000      -0.341440        -9.2911
  74   2.0000      -0.336584        -9.1589
  75   2.0000      -0.330771        -9.0007
  76   2.0000      -0.323167        -8.7938
  77   2.0000      -0.320906        -8.7323
  78   2.0000      -0.310755        -8.4561
  79   2.0000      -0.308342        -8.3904
  80   2.0000      -0.305627        -8.3165
  81   2.0000      -0.289361        -7.8739
  82   2.0000      -0.264286        -7.1916
  83   2.0000      -0.262861        -7.1528
  84   2.0000      -0.255131        -6.9425
  85   2.0000      -0.250995        -6.8299
  86   2.0000      -0.230324        -6.2674
  87   2.0000      -0.223215        -6.0740
  88   2.0000      -0.217603        -5.9213
  89   2.0000      -0.214230        -5.8295
  90   2.0000      -0.202501        -5.5103
  91   2.0000      -0.191988        -5.2242
  92   2.0000      -0.092754        -2.5240
  93   0.0000      -0.076825        -2.0905
  94   0.0000      -0.026928        -0.7327
  95   0.0000      -0.007117        -0.1937
  96   0.0000       0.030201         0.8218
  97   0.0000       0.052404         1.4260

MULLIKEN ATOMIC CHARGES
-----------------------
   0 C :   -0.426160
   1 N :    0.234412
   2 C :    0.105321
   3 C :    0.153737
   4 C :   -0.540515
   5 C :   -0.581107
   6 N :   -0.647606
   7 N :   -0.157250
   8 C :    0.096643
   9 C :    0.028849
  10 O :   -0.537785
  11 N :   -0.080132
  12 C :   -0.447810
  13 C :    0.609736
  14 C :   -0.635568
  15 C :   -0.578356
  16 C :   -0.271417
  17 C :    0.197198
  18 F :   -0.296848
  19 C :   -0.283890
  20 C :   -0.607292
  21 C :    0.028714
  22 O :   -0.380002
  23 C :    0.049861
  24 O :   -0.449505
  25 H :    0.185161
  26 H :    0.185986
  27 H :    0.178555
  28 H :    0.172159
  29 H :    0.178947
  30 H :    0.185312
  31 H :    0.175996
  32 H :    0.175384
  33 H :    0.170121
  34 H :    0.285572
  35 H :    0.290537
  36 H :    0.303838
  37 H :    0.196870
  38 H :    0.175628
  39 H :    0.170202
  40 H :    0.159062
  41 H :    0.158189
  42 H :    0.172992
  43 H :    0.169539
  44 H :    0.168936
  45 H :    0.171602
  46 H :    0.386183
Sum of atomic charges:   -1.0000000

LOEWDIN ATOMIC CHARGES
----------------------
   0 C :   -0.087691
   1 N :   -0.639778
   2 C :    0.361857
   3 C :    0.064470
   4 C :   -0.355589
   5 C :   -0.367231
   6 N :   -0.700027
   7 N :   -0.611237
   8 C :    0.189194
   9 C :    0.353108
  10 O :   -0.560703
  11 N :   -0.618120
  12 C :   -0.023083
  13 C :   -0.135213
  14 C :   -0.413368
  15 C :   -0.308740
  16 C :   -0.200975
  17 C :    0.039521
  18 F :   -0.376123
  19 C :   -0.199258
  20 C :   -0.308718
  21 C :    0.255722
  22 O :   -0.484772
  23 C :    0.370930
  24 O :   -0.500723
  25 H :    0.201151
  26 H :    0.192981
  27 H :    0.194179
  28 H :    0.166359
  29 H :    0.168802
  30 H :    0.171049
  31 H :    0.168024
  32 H :    0.168192
  33 H :    0.161414
  34 H :    0.252338
  35 H :    0.253506
  36 H :    0.295843
  37 H :    0.200081
  38 H :    0.188592
  39 H :    0.162013
  40 H :    0.162216
  41 H :    0.153992
  42 H :    0.164490
  43 H :    0.177567
  44 H :    0.177507
  45 H :    0.163842
  46 H :    0.312409

  Mayer bond orders larger than 0.100000
B(  0-C ,  1-N ) :   0.9051 B(  0-C , 25-H ) :   0.9403 B(  0-C , 26-H ) :   0.9366
B(  0-C , 27-H ) :   0.9351 B(  1-N ,  2-C ) :   1.2593 B(  1-N , 23-C ) :   1.0159
B(  2-C ,  3-C ) :   0.8813 B(  2-C ,  7-N ) :   1.6400 B(  3-C ,  4-C ) :   0.9450
B(  3-C ,  5-C ) :   0.9647 B(  3-C ,  6-N ) :   0.8246 B(  3-C ,  7-N ) :  -0.1130
B(  4-C , 28-H ) :   0.9505 B(  4-C , 29-H ) :   0.9608 B(  4-C , 30-H ) :   0.9751
B(  5-C , 31-H ) :   0.9668 B(  5-C , 32-H ) :   0.9760 B(  5-C , 33-H ) :   0.9685
B(  6-N , 34-H ) :   0.9098 B(  6-N , 35-H ) :   0.9124 B(  7-N ,  8-C ) :   1.0141
B(  8-C ,  9-C ) :   0.9832 B(  8-C , 21-C ) :   1.2019 B(  9-C , 10-O ) :   1.6646
B(  9-C , 11-N ) :   1.2571 B( 10-O , 46-H ) :   0.1259 B( 11-N , 12-C ) :   0.8830
B( 11-N , 36-H ) :   0.8806 B( 12-C , 13-C ) :   0.6928 B( 12-C , 37-H ) :   0.9752
B( 12-C , 38-H ) :   0.9830 B( 13-C , 14-C ) :   0.8224 B( 13-C , 15-C ) :   0.9228
B( 13-C , 20-C ) :   0.9626 B( 14-C , 39-H ) :   0.9791 B( 14-C , 40-H ) :   0.9751
B( 14-C , 41-H ) :   0.9826 B( 15-C , 16-C ) :   1.4918 B( 15-C , 20-C ) :   0.1482
B( 15-C , 42-H ) :   0.9579 B( 16-C , 17-C ) :   1.3220 B( 16-C , 43-H ) :   0.9436
B( 17-C , 18-F ) :   0.8346 B( 17-C , 19-C ) :   1.3124 B( 19-C , 20-C ) :   1.5024
B( 19-C , 44-H ) :   0.9456 B( 20-C , 45-H ) :   0.9565 B( 21-C , 22-O ) :   1.1335
B( 21-C , 23-C ) :   1.0688 B( 22-O , 46-H ) :   0.7230 B( 23-C , 24-O ) :   1.9109

Dispersion correction           -0.022350490
FINAL SINGLE POINT ENERGY     -1205.469250983702

DIPOLE MOMENT
-------------
                                X             Y             Z
Electronic contribution:      9.95396      -7.97707      -2.54924
Nuclear contribution   :    -16.07282       9.98909       2.67228
                        -----------------------------------------
Total Dipole Moment    :     -6.11886       2.01202       0.12304
                        -----------------------------------------
Magnitude (a.u.)       :      6.44235
Magnitude (Debye)      :     16.37514

Rotational constants in cm-1:     0.012614     0.003721     0.003038
Rotational constants in MHz :   378.148495   111.540727    91.089501

                             ****ORCA TERMINATED NORMALLY****
TOTAL RUN TIME: 0 days 0 hours 2 minutes 57 seconds 268 msec
