   * xtb version 6.5.1 (579679a) compiled by 'ehlert@majestix' on 2022-07-11
          program call               : /lustre/hpc/kemi/ree/PhD/git/ReactivityQM/dep/xtb-6.5.1/bin/xtb --gfn 1 /lustre/hpc/kemi/ree/PhD/git/ReactivityQM/calculations/RaltegravirCLI/reac02prodE06/conf16/RaltegravirCLI_reac02prodE06_conf16_gfn1.xyz --opt --vfukui --chrg -1 --uhf 0 --alpb DMSO

   ID    Z sym.   atoms
    1    6 C      1, 3-6, 9, 10, 13-18, 20-22, 24
    2    7 N      2, 7, 8, 12
    3    8 O      11, 23, 25
    4    9 F      19
    5    1 H      26-47

      * Solvation model:               ALPB
        Solvent                        DMSO
        Solvent mass                       7.8130E+01 g/mol
          :  Hamiltonian                  GFN1-xTB          :
 * total energy  :   -80.1831730 Eh     change       -0.4007461E-10 Eh
 * total energy  :   -80.1895498 Eh     change       -0.6376778E-02 Eh
 * total energy  :   -80.1914335 Eh     change       -0.1883683E-02 Eh
 * total energy  :   -80.1917825 Eh     change       -0.3490559E-03 Eh
 * total energy  :   -80.1921232 Eh     change       -0.3406988E-03 Eh
 * total energy  :   -80.1922844 Eh     change       -0.1612181E-03 Eh
 * total energy  :   -80.1924262 Eh     change       -0.1417487E-03 Eh
 * total energy  :   -80.1924974 Eh     change       -0.7117289E-04 Eh
 * total energy  :   -80.1925534 Eh     change       -0.5605191E-04 Eh
 * total energy  :   -80.1926023 Eh     change       -0.4891937E-04 Eh
 * total energy  :   -80.1929209 Eh     change       -0.1085289E-04 Eh
 * total energy  :   -80.1929318 Eh     change       -0.1091009E-04 Eh
 * total energy  :   -80.1929430 Eh     change       -0.1117610E-04 Eh
 * total energy  :   -80.1929539 Eh     change       -0.1091773E-04 Eh
 * total energy  :   -80.1929627 Eh     change       -0.8806627E-05 Eh
 * total energy  :   -80.1929693 Eh     change       -0.6586293E-05 Eh
 * total energy  :   -80.1929747 Eh     change       -0.5424797E-05 Eh
 * total energy  :   -80.1929801 Eh     change       -0.5433369E-05 Eh
 * total energy  :   -80.1929849 Eh     change       -0.4791869E-05 Eh
   *** GEOMETRY OPTIMIZATION CONVERGED AFTER 31 ITERATIONS ***

 final structure:
================
47
 xtb: 6.5.1 (579679a)
C           -4.73465439811762       -1.20685935062705        0.84794582441115
N           -3.34913161500420       -1.33504824844719        0.39955181551961
C           -2.54705973245860       -0.25134190353200        0.14199715283216
C           -3.05079700795902        1.18482328920396        0.25555740591031
C           -3.83367789929545        1.54520889969610       -1.01619041550030
C           -1.84581494321472        2.13254513629270        0.38305718382432
N           -3.91748883846950        1.34589689945220        1.42100031866544
N           -1.32391874237436       -0.38561534647356       -0.26192972911498
C           -0.77494070996840       -1.63126558210285       -0.42840995308036
C            0.61239375334353       -1.71440851939631       -0.88091731133665
O            1.19690226045320       -2.81028031310884       -1.03963518869030
N            1.20039564313605       -0.52934126949435       -1.14666716697224
C            2.60805782284722       -0.39019570691242       -1.41886774508317
C            3.46857179083979       -0.06601143891714       -0.11960342254229
C            3.25336986821865       -1.22498950570831        0.88307072488577
C            4.91259073215249       -0.00647079997487       -0.54765795267287
C            5.65139407665283        1.14373861136750       -0.51463474215266
C            5.09691552740173        2.32200152636623       -0.01548068792538
F            5.86709034703029        3.46310428299658        0.02015736217545
C            3.79751892857526        2.36280449013177        0.49279758913291
C            3.01809788455677        1.24100310487133        0.47889012354347
C           -1.51823154931415       -2.76888905354731       -0.15928504622450
O           -0.99746840758353       -4.00944671364395       -0.30724631231509
C           -2.87541712982930       -2.66223909512689        0.29633750501057
O           -3.61689337035501       -3.60875613304629        0.58225825531934
H           -5.25027763686087       -2.14765748072980        0.65049582652289
H           -4.76487586075806       -0.99589702573449        1.91703087129140
H           -5.23604855918068       -0.40569186117940        0.31495068612131
H           -4.73738669489896        0.94548035846113       -1.11013761339508
H           -4.11967729509466        2.59556380191914       -0.98414169444724
H           -3.20979468419179        1.37838639265470       -1.89389916087765
H           -1.23502456776568        1.85167201491361        1.24008325910516
H           -1.23004857286175        2.08926491605745       -0.51429765699939
H           -2.20144581258919        3.15206047756581        0.52104962783051
H           -3.35291469287491        1.36203226198001        2.26079505549341
H           -4.38787958922000        2.23714457594490        1.35900809702440
H            0.67483431637180        0.30392960428163       -0.91938075957661
H            2.97404995298109       -1.31962172507437       -1.86687510566911
H            2.75209999927913        0.42894144221090       -2.12794143375427
H            3.47167366296783       -2.18612957712098        0.41586583903474
H            2.22503028686269       -1.23318434668301        1.24477361217819
H            3.91841609802981       -1.08808054678719        1.73585489736427
H            5.35070802724380       -0.92777750479880       -0.91839224413178
H            6.68229274291114        1.14462200856055       -0.85544846729962
H            3.42074231269282        3.28860749003387        0.91588023471218
H            2.01307760602784        1.26979840789371        0.88791575889850
H           -0.05535433033769       -3.88342794468719       -0.61928421704036

          :  Hamiltonian                  GFN1-xTB          :
         :: total energy             -80.192984921263 Eh    ::
         :: gradient norm              0.000364720036 Eh/a0 ::
         :: HOMO-LUMO gap              0.284274211701 eV    ::
         :: SCC energy               -81.044277101025 Eh    ::
         :: -> Gsolv                  -0.095490031750 Eh    ::
         :: repulsion energy           0.882696615146 Eh    ::

    * Orbital Energies and Occupations

         #    Occupation            Energy/Eh            Energy/eV
      -------------------------------------------------------------
         1        2.0000           -0.8010535             -21.7978
       ...           ...                  ...                  ...
        56        2.0000           -0.4570217             -12.4362
        57        2.0000           -0.4438602             -12.0781
        58        2.0000           -0.4414424             -12.0123
        59        2.0000           -0.4393479             -11.9553
        60        2.0000           -0.4313245             -11.7369
        61        2.0000           -0.4279630             -11.6455
        62        2.0000           -0.4165298             -11.3344
        63        2.0000           -0.4082528             -11.1091
        64        2.0000           -0.4048982             -11.0178
        65        2.0000           -0.4028818             -10.9630
        66        2.0000           -0.3957981             -10.7702
        67        2.0000           -0.3910292             -10.6404
        68        1.9918           -0.2987178              -8.1285 (HOMO)
        69        0.0082           -0.2882709              -7.8443 (LUMO)
        70                         -0.2510002              -6.8301
        71                         -0.2106039              -5.7308
        72                         -0.2011454              -5.4734
        73                         -0.1280971              -3.4857
        74                         -0.1247285              -3.3940
        75                         -0.1194785              -3.2512
        76                         -0.1164596              -3.1690
        77                         -0.1121363              -3.0514
        78                         -0.0968973              -2.6367
        79                         -0.0876771              -2.3858
       ...                                ...                  ...
       144                          0.7040443              19.1580
      -------------------------------------------------------------
                  HL-Gap            0.0104469 Eh            0.2843 eV

Wiberg/Mayer (AO) data.
largest (>0.10) Wiberg bond orders for each atom

     #   Z sym  total        # sym  WBO       # sym  WBO       # sym  WBO
 ---------------------------------------------------------------------------
     1   6 C    3.937 --    28 H    0.979    27 H    0.978    26 H    0.976
                             2 N    0.941
     2   7 N    3.428 --     3 C    1.172    24 C    1.060     1 C    0.941
                            25 O    0.115
     3   6 C    3.915 --     8 N    1.566     2 N    1.172     4 C    0.975
     4   6 C    3.966 --     6 C    0.990     5 C    0.984     7 N    0.982
                             3 C    0.975
     5   6 C    3.994 --    31 H    0.986     4 C    0.984    30 H    0.983
                            29 H    0.979
     6   6 C    3.995 --     4 C    0.990    34 H    0.986    32 H    0.985
                            33 H    0.983
     7   7 N    2.977 --     4 C    0.982    35 H    0.943    36 H    0.942
     8   7 N    3.039 --     3 C    1.566     9 C    1.172
     9   6 C    3.909 --    22 C    1.394     8 N    1.172    10 C    1.076
    10   6 C    3.894 --    11 O    1.437    12 N    1.248     9 C    1.076
    11   8 O    1.850 --    10 C    1.437    12 N    0.144
    12   7 N    3.371 --    10 C    1.248    13 C    0.966    37 H    0.905
                            11 O    0.144
    13   6 C    3.924 --    39 H    0.980    38 H    0.976    12 N    0.966
                            14 C    0.895
    14   6 C    3.980 --    21 C    1.025    16 C    1.023    15 C    0.976
                            13 C    0.895
    15   6 C    3.990 --    42 H    0.988    41 H    0.985    40 H    0.985
                            14 C    0.976
    16   6 C    3.861 --    17 C    1.589    14 C    1.023    43 H    0.976
    17   6 C    3.993 --    16 C    1.589    18 C    1.318    44 H    0.971
    18   6 C    3.655 --    17 C    1.318    20 C    1.310    19 F    0.860
    19   9 F    0.950 --    18 C    0.860
    20   6 C    3.994 --    21 C    1.598    18 C    1.310    45 H    0.971
    21   6 C    3.888 --    20 C    1.598    14 C    1.025    46 H    0.974
    22   6 C    3.841 --     9 C    1.394    24 C    1.149    23 O    1.077
    23   8 O    2.015 --    22 C    1.077    47 H    0.764
    24   6 C    3.862 --    25 O    1.514    22 C    1.149     2 N    1.060
    25   8 O    1.808 --    24 C    1.514     2 N    0.115
    26   1 H    1.015 --     1 C    0.976
    27   1 H    1.019 --     1 C    0.978
    28   1 H    1.024 --     1 C    0.979
    29   1 H    1.006 --     5 C    0.979
    30   1 H    1.001 --     5 C    0.983
    31   1 H    1.005 --     5 C    0.986
    32   1 H    1.009 --     6 C    0.985
    33   1 H    1.016 --     6 C    0.983
    34   1 H    1.004 --     6 C    0.986
    35   1 H    0.959 --     7 N    0.943
    36   1 H    0.957 --     7 N    0.942
    37   1 H    0.975 --    12 N    0.905
    38   1 H    1.017 --    13 C    0.976
    39   1 H    1.024 --    13 C    0.980
    40   1 H    1.014 --    15 C    0.985
    41   1 H    1.009 --    15 C    0.985
    42   1 H    1.020 --    15 C    0.988
    43   1 H    1.002 --    16 C    0.976
    44   1 H    1.005 --    17 C    0.971
    45   1 H    1.005 --    20 C    0.971
    46   1 H    1.004 --    21 C    0.974
    47   1 H    0.874 --    23 O    0.764
 ---------------------------------------------------------------------------

           -------------------------------------------------
          | TOTAL ENERGY              -80.192984921263 Eh   |
          | GRADIENT NORM               0.000364720036 Eh/α |
          | HOMO-LUMO GAP               0.284274211701 eV   |
           -------------------------------------------------

 * finished run on 2023/06/20 at 15:03:43.598
