   * xtb version 6.5.1 (579679a) compiled by 'ehlert@majestix' on 2022-07-11
          program call               : /lustre/hpc/kemi/ree/PhD/git/ReactivityQM/dep/xtb-6.5.1/bin/xtb --gfn 1 /lustre/hpc/kemi/ree/PhD/git/ReactivityQM/calculations/R02oxygendeprot/reac01prodE01/conf13/R02oxygendeprot_reac01prodE01_conf13_gfn1.xyz --opt --vfukui --chrg -2 --uhf 0 --alpb DMSO

   ID    Z sym.   atoms
    1    6 C      1, 3, 5, 7-10, 12, 13, 15, 18, 19, 22, 24
    2    8 O      2, 4, 14, 20, 23, 25
    3    7 N      6, 11, 16, 17, 21
    4    1 H      26-42

      * Solvation model:               ALPB
        Solvent                        DMSO
        Solvent mass                       7.8130E+01 g/mol
          :  Hamiltonian                  GFN1-xTB          :
 * total energy  :   -83.6331178 Eh     change       -0.2579270E-10 Eh
 * total energy  :   -83.6447987 Eh     change       -0.1168089E-01 Eh
 * total energy  :   -83.6493580 Eh     change       -0.4559330E-02 Eh
 * total energy  :   -83.6503777 Eh     change       -0.1019675E-02 Eh
 * total energy  :   -83.6510673 Eh     change       -0.6895967E-03 Eh
 * total energy  :   -83.6513938 Eh     change       -0.3264872E-03 Eh
 * total energy  :   -83.6515996 Eh     change       -0.2058321E-03 Eh
 * total energy  :   -83.6516787 Eh     change       -0.7910433E-04 Eh
 * total energy  :   -83.6517100 Eh     change       -0.3127637E-04 Eh
 * total energy  :   -83.6517368 Eh     change       -0.2685493E-04 Eh
 * total energy  :   -83.6524494 Eh     change       -0.1154203E-04 Eh
 * total energy  :   -83.6524602 Eh     change       -0.1077990E-04 Eh
 * total energy  :   -83.6524697 Eh     change       -0.9521891E-05 Eh
 * total energy  :   -83.6524771 Eh     change       -0.7402597E-05 Eh
 * total energy  :   -83.6524832 Eh     change       -0.6123407E-05 Eh
 * total energy  :   -83.6524889 Eh     change       -0.5723595E-05 Eh
 * total energy  :   -83.6524947 Eh     change       -0.5721500E-05 Eh
 * total energy  :   -83.6524997 Eh     change       -0.5006314E-05 Eh
 * total energy  :   -83.6525036 Eh     change       -0.3910903E-05 Eh
   *** GEOMETRY OPTIMIZATION CONVERGED AFTER 41 ITERATIONS ***

 final structure:
================
42
 xtb: 6.5.1 (579679a)
C            6.46366327512214       -0.77255918376517        2.03950524966339
O            5.54575021031710        0.11812881833720        1.42767269452786
C            4.31408118574205       -0.39843028892695        1.15581487050008
O            4.06647255433718       -1.57091223852237        1.42525248600420
C            3.37896236118309        0.53368193666312        0.55385093200452
N            2.13892713813437       -0.03742413220613        0.30856300691634
C            1.19102801131885        0.66185878271153       -0.20047039718537
C           -0.16172938267817        0.02150061487549       -0.51169431669908
C            0.06862003739885       -0.92084546269898       -1.70444825844592
C           -0.57745929403818       -0.80109813609393        0.72311633314873
N           -1.11173858050099        1.10585211374545       -0.78750866829049
C           -2.28119056985614        0.83600268741622       -1.75935697410783
C           -3.13944677099505        2.14541921575227       -1.65890283367737
O           -1.93551289546580        0.51851636832906       -2.96532989821106
C           -3.12721508050424       -0.27094775925687       -1.03573799620710
N           -3.25408071339505       -1.51652257161368       -1.37340120941140
N           -4.07966571791474       -2.10949133524965       -0.43721784448224
C           -4.39991440043792       -1.18254788704110        0.40030579063353
C           -5.26925836897305       -1.30542499727007        1.59561617780122
O           -3.83877966268099        0.00264069099667        0.08739404530201
N            1.36856186420351        1.98209195995956       -0.53808921846404
C            2.52988795028634        2.67275365803256       -0.35657398671473
O            2.59939218060985        3.86301753331926       -0.67409687984535
C            3.67436641363376        1.88555708989383        0.24128835628173
O            4.76845735512650        2.46319462178251        0.41599259238173
H            6.07913116677762       -1.12865850536374        3.00083874838103
H            6.65607203083751       -1.63858371218453        1.39767938733632
H            7.38990210532426       -0.22147513755316        2.19811316949724
H           -0.83069243456451       -1.48976915747527       -1.93660176760597
H            0.86891374785173       -1.61763415198498       -1.44827626885772
H            0.36247180775836       -0.35571306149627       -2.58837629626536
H            0.24479040256995       -1.45469395982554        1.01764322720081
H           -0.80846101782281       -0.13826664725596        1.55626793027578
H           -1.45206626546525       -1.41149406157385        0.50875435113888
H           -1.52593469885464        1.39295733633230        0.09454942471140
H           -2.55633717588039        2.97122525614150       -2.06230667427481
H           -4.03509121055374        2.01559908277031       -2.26412565855420
H           -3.42689316701041        2.36924064563788       -0.63393527714290
H           -6.08865921086111       -0.58969878979545        1.54113314511169
H           -4.69897278055696       -1.09698331432864        2.50076917564072
H           -5.67291748103660       -2.31348771536453        1.64977159522750
H            0.56256308151617        2.47915679415730       -0.90344026525325

          :  Hamiltonian                  GFN1-xTB          :
         :: total energy             -83.652503572318 Eh    ::
         :: gradient norm              0.000268603321 Eh/a0 ::
         :: HOMO-LUMO gap              2.159500400136 eV    ::
         :: SCC energy               -84.385992846105 Eh    ::
         :: -> Gsolv                  -0.270428649674 Eh    ::
         :: repulsion energy           0.760547011098 Eh    ::

    * Orbital Energies and Occupations

         #    Occupation            Energy/Eh            Energy/eV
      -------------------------------------------------------------
         1        2.0000           -0.8165309             -22.2189
       ...           ...                  ...                  ...
        56        2.0000           -0.4399971             -11.9729
        57        2.0000           -0.4370766             -11.8935
        58        2.0000           -0.4319758             -11.7547
        59        2.0000           -0.4262675             -11.5993
        60        2.0000           -0.4215480             -11.4709
        61        2.0000           -0.4111585             -11.1882
        62        2.0000           -0.4077955             -11.0967
        63        2.0000           -0.3988831             -10.8542
        64        2.0000           -0.3705457             -10.0831
        65        2.0000           -0.3626670              -9.8687
        66        2.0000           -0.3501781              -9.5288
        67        2.0000           -0.3419289              -9.3044
        68        2.0000           -0.3370687              -9.1721 (HOMO)
        69                         -0.2577085              -7.0126 (LUMO)
        70                         -0.2241487              -6.0994
        71                         -0.2176454              -5.9224
        72                         -0.2081986              -5.6654
        73                         -0.1846017              -5.0233
        74                         -0.1267475              -3.4490
        75                         -0.1181386              -3.2147
        76                         -0.0955121              -2.5990
        77                         -0.0910524              -2.4777
        78                         -0.0828741              -2.2551
        79                         -0.0795297              -2.1641
       ...                                ...                  ...
       134                          0.7581645              20.6307
      -------------------------------------------------------------
                  HL-Gap            0.0793602 Eh            2.1595 eV

Wiberg/Mayer (AO) data.
largest (>0.10) Wiberg bond orders for each atom

     #   Z sym  total        # sym  WBO       # sym  WBO       # sym  WBO
 ---------------------------------------------------------------------------
     1   6 C    3.904 --    28 H    0.987    27 H    0.980    26 H    0.980
                             2 O    0.931
     2   8 O    2.151 --     3 C    1.034     1 C    0.931     4 O    0.106
     3   6 C    3.849 --     4 O    1.565     5 C    1.129     2 O    1.034
     4   8 O    1.843 --     3 C    1.565     2 O    0.106
     5   6 C    3.919 --    24 C    1.280     6 N    1.143     3 C    1.129
                            25 O    0.130
     6   7 N    3.022 --     7 C    1.627     5 C    1.143
     7   6 C    3.925 --     6 N    1.627    21 N    1.109     8 C    0.968
     8   6 C    3.969 --     9 C    0.984    10 C    0.984    11 N    0.978
                             7 C    0.968
     9   6 C    3.995 --    30 H    0.987     8 C    0.984    31 H    0.983
                            29 H    0.980
    10   6 C    3.995 --    33 H    0.985    34 H    0.984     8 C    0.984
                            32 H    0.983
    11   7 N    3.021 --     8 C    0.978    35 H    0.952    12 C    0.834
    12   6 C    3.936 --    14 O    1.236    13 C    0.933    15 C    0.879
                            11 N    0.834
    13   6 C    3.992 --    38 H    0.989    37 H    0.988    36 H    0.987
                            12 C    0.933
    14   8 O    1.524 --    12 C    1.236
    15   6 C    3.802 --    16 N    1.647    20 O    1.038    12 C    0.879
    16   7 N    2.977 --    15 C    1.647    17 N    1.147
    17   7 N    2.976 --    18 C    1.656    16 N    1.147
    18   6 C    3.887 --    17 N    1.656    20 O    1.061    19 C    1.024
    19   6 C    3.993 --    18 C    1.024    41 H    0.985    39 H    0.971
                            40 H    0.969
    20   8 O    2.290 --    18 C    1.061    15 C    1.038
    21   7 N    3.447 --    22 C    1.183     7 C    1.109    42 H    0.882
                            23 O    0.136
    22   6 C    3.885 --    23 O    1.553    21 N    1.183    24 C    0.974
    23   8 O    1.834 --    22 C    1.553    21 N    0.136
    24   6 C    3.945 --    25 O    1.500     5 C    1.280    22 C    0.974
    25   8 O    1.805 --    24 C    1.500     5 C    0.130
    26   1 H    1.015 --     1 C    0.980
    27   1 H    1.016 --     1 C    0.980
    28   1 H    1.017 --     1 C    0.987
    29   1 H    1.036 --     9 C    0.980
    30   1 H    1.015 --     9 C    0.987
    31   1 H    1.031 --     9 C    0.983
    32   1 H    1.020 --    10 C    0.983
    33   1 H    1.008 --    10 C    0.985
    34   1 H    1.011 --    10 C    0.984
    35   1 H    0.980 --    11 N    0.952
    36   1 H    1.018 --    13 C    0.987
    37   1 H    1.017 --    13 C    0.988
    38   1 H    1.010 --    13 C    0.989
    39   1 H    1.002 --    19 C    0.971
    40   1 H    1.002 --    19 C    0.969
    41   1 H    1.003 --    19 C    0.985
    42   1 H    0.973 --    21 N    0.882
 ---------------------------------------------------------------------------

           -------------------------------------------------
          | TOTAL ENERGY              -83.652503572318 Eh   |
          | GRADIENT NORM               0.000268603321 Eh/α |
          | HOMO-LUMO GAP               2.159500400136 eV   |
           -------------------------------------------------

 * finished run on 2023/06/21 at 17:00:59.271
