   * xtb version 6.5.1 (579679a) compiled by 'ehlert@majestix' on 2022-07-11
          program call               : /lustre/hpc/kemi/ree/PhD/git/ReactivityQM/dep/xtb-6.5.1/bin/xtb --gfn 1 /lustre/hpc/kemi/ree/PhD/git/ReactivityQM/calculations/R01/reac02prodN07/conf01/R01_reac02prodN07_conf01_gfn1.xyz --opt --vfukui --chrg 1 --uhf 0 --alpb DMSO

   ID    Z sym.   atoms
    1    6 C      1, 3, 5, 6, 8, 11-15
    2    8 O      2, 4, 7, 9
    3    7 N      10, 16, 17
    4    1 H      18-33

      * Solvation model:               ALPB
        Solvent                        DMSO
        Solvent mass                       7.8130E+01 g/mol
          :  Hamiltonian                  GFN1-xTB          :
 * total energy  :   -57.7880973 Eh     change       -0.8128609E-11 Eh
 * total energy  :   -57.8030267 Eh     change       -0.1492935E-01 Eh
 * total energy  :   -57.8086157 Eh     change       -0.5589022E-02 Eh
 * total energy  :   -57.8099176 Eh     change       -0.1301963E-02 Eh
 * total energy  :   -57.8112531 Eh     change       -0.1335488E-02 Eh
 * total energy  :   -57.8122323 Eh     change       -0.9791289E-03 Eh
 * total energy  :   -57.8134670 Eh     change       -0.1234704E-02 Eh
 * total energy  :   -57.8147655 Eh     change       -0.1298512E-02 Eh
 * total energy  :   -57.8158849 Eh     change       -0.1119372E-02 Eh
 * total energy  :   -57.8169368 Eh     change       -0.1051992E-02 Eh
 * total energy  :   -57.8728449 Eh     change       -0.8378220E-05 Eh
 * total energy  :   -57.8728542 Eh     change       -0.9278058E-05 Eh
 * total energy  :   -57.8728714 Eh     change       -0.1721881E-04 Eh
 * total energy  :   -57.8728892 Eh     change       -0.1786262E-04 Eh
 * total energy  :   -57.8729051 Eh     change       -0.1588714E-04 Eh
 * total energy  :   -57.8729184 Eh     change       -0.1329291E-04 Eh
 * total energy  :   -57.8729264 Eh     change       -0.7969004E-05 Eh
 * total energy  :   -57.8729317 Eh     change       -0.5271114E-05 Eh
 * total energy  :   -57.8729357 Eh     change       -0.4086946E-05 Eh
   *** GEOMETRY OPTIMIZATION CONVERGED AFTER 105 ITERATIONS ***

 final structure:
================
33
 xtb: 6.5.1 (579679a)
C            3.29919802071401        1.10734270163186       -2.28639966015909
O            2.96241420941799        0.22629168288021       -1.20880560949307
C            1.69437099298563        0.20604527659770       -0.82813333626383
O            0.83405163578118        0.88865775755331       -1.35224741517297
C            1.41878986561612       -0.72911326524115        0.29697149719003
C            2.32827010247352       -1.57066658486545        0.87735335166972
O            3.61197718056504       -1.66517966173142        0.51976474061574
C            1.91818484872019       -2.45834179834825        1.96583829329263
O            2.68626558135085       -3.23441089658447        2.51273341074588
N            0.59554403675200       -2.34249356855302        2.31324279747710
C           -0.26296882200070       -1.47803716953921        1.69641030589777
C           -1.67240148118987       -1.46037077000607        2.18102277872404
C           -2.51165936805682        1.58200142055218       -1.41348278365417
C           -1.84965962456656        1.36395191394139       -2.71422396054613
C           -1.70809605652062        1.85027749421594       -0.21105688192688
N           -3.79922307834636        1.50955329140000       -1.32618887331916
N            0.11235628626312       -0.70346988205693        0.73504370452236
H            2.74259666356838        0.82818331030871       -3.18342216880435
H            4.36946097472897        1.00050895451025       -2.45311951940524
H            3.05524894243961        2.13684137450074       -2.01585225622204
H            4.04626248282026       -2.33583261289905        1.08125592818942
H            0.25945913652589       -2.93407778129495        3.05676190535462
H           -2.10275996475824       -2.46060003304827        2.13656056098693
H           -1.71139565810908       -1.12059359802017        3.21609595322630
H           -2.25946023813831       -0.78638975610671        1.56262126315231
H           -1.29796851274842        2.26493459134857       -2.98981782042161
H           -1.10800547405755        0.56924267062545       -2.60930500079231
H           -2.56012473969071        1.11328564896983       -3.49851606683455
H           -2.31795261657742        2.17491898572252        0.62832875920838
H           -1.18860288347171        0.91956195401542        0.06062949255331
H           -0.92605034211384        2.57782744322195       -0.42630658498770
H           -4.37737967271821        1.29798274868437       -2.12228027709804
H           -4.28074342765369        1.66217015765365       -0.45556152769161

          :  Hamiltonian                  GFN1-xTB          :
         :: total energy             -57.872935745438 Eh    ::
         :: gradient norm              0.000602563134 Eh/a0 ::
         :: HOMO-LUMO gap              2.426325650119 eV    ::
         :: SCC energy               -58.488421397792 Eh    ::
         :: -> Gsolv                  -0.111315653430 Eh    ::
         :: repulsion energy           0.632669840257 Eh    ::

    * Orbital Energies and Occupations

         #    Occupation            Energy/Eh            Energy/eV
      -------------------------------------------------------------
         1        2.0000           -0.8653605             -23.5477
       ...           ...                  ...                  ...
        35        2.0000           -0.5480137             -14.9122
        36        2.0000           -0.5454938             -14.8436
        37        2.0000           -0.5415741             -14.7370
        38        2.0000           -0.5375635             -14.6278
        39        2.0000           -0.5348765             -14.5547
        40        2.0000           -0.5262324             -14.3195
        41        2.0000           -0.5205908             -14.1660
        42        2.0000           -0.5052170             -13.7477
        43        2.0000           -0.4963078             -13.5052
        44        2.0000           -0.4949210             -13.4675
        45        2.0000           -0.4698655             -12.7857
        46        2.0000           -0.4595957             -12.5062
        47        2.0000           -0.4382494             -11.9254 (HOMO)
        48                         -0.3490836              -9.4990 (LUMO)
        49                         -0.3323317              -9.0432
        50                         -0.2889130              -7.8617
        51                         -0.2497464              -6.7959
        52                         -0.1712833              -4.6609
        53                         -0.1663815              -4.5275
        54                         -0.1614165              -4.3924
        55                         -0.1531281              -4.1668
        56                         -0.1441485              -3.9225
        57                         -0.1425308              -3.8785
        58                         -0.1166974              -3.1755
       ...                                ...                  ...
       100                          0.7142092              19.4346
      -------------------------------------------------------------
                  HL-Gap            0.0891658 Eh            2.4263 eV

Wiberg/Mayer (AO) data.
largest (>0.10) Wiberg bond orders for each atom

     #   Z sym  total        # sym  WBO       # sym  WBO       # sym  WBO
 ---------------------------------------------------------------------------
     1   6 C    3.866 --    19 H    0.985    18 H    0.979    20 H    0.979
                             2 O    0.891
     2   8 O    2.220 --     3 C    1.137     1 C    0.891     4 O    0.131
     3   6 C    3.848 --     4 O    1.615     2 O    1.137     5 C    1.008
     4   8 O    1.928 --     3 C    1.615     2 O    0.131
     5   6 C    3.963 --     6 C    1.506    17 N    1.166     3 C    1.008
     6   6 C    3.920 --     5 C    1.506     7 O    1.113     8 C    1.057
     7   8 O    2.090 --     6 C    1.113    21 H    0.804
     8   6 C    3.911 --     9 O    1.582    10 N    1.142     6 C    1.057
     9   8 O    1.906 --     8 C    1.582    10 N    0.135
    10   7 N    3.463 --    11 C    1.165     8 C    1.142    22 H    0.878
                             9 O    0.135
    11   6 C    3.928 --    17 N    1.582    10 N    1.165    12 C    1.027
    12   6 C    3.988 --    11 C    1.027    25 H    0.983    23 H    0.966
                            24 H    0.962
    13   6 C    3.854 --    16 N    1.614    15 C    1.079    14 C    1.069
    14   6 C    3.982 --    13 C    1.069    28 H    0.980    26 H    0.939
                            27 H    0.935
    15   6 C    3.980 --    13 C    1.079    29 H    0.977    31 H    0.950
                            30 H    0.900
    16   7 N    3.499 --    13 C    1.614    33 H    0.877    32 H    0.876
    17   7 N    3.060 --    11 C    1.582     5 C    1.166
    18   1 H    1.006 --     1 C    0.979
    19   1 H    1.009 --     1 C    0.985
    20   1 H    1.006 --     1 C    0.979
    21   1 H    0.843 --     7 O    0.804
    22   1 H    0.915 --    10 N    0.878
    23   1 H    0.995 --    12 C    0.966
    24   1 H    0.995 --    12 C    0.962
    25   1 H    1.004 --    12 C    0.983
    26   1 H    0.993 --    14 C    0.939
    27   1 H    1.005 --    14 C    0.935
    28   1 H    0.992 --    14 C    0.980
    29   1 H    0.993 --    15 C    0.977
    30   1 H    1.032 --    15 C    0.900
    31   1 H    1.001 --    15 C    0.950
    32   1 H    0.906 --    16 N    0.876
    33   1 H    0.908 --    16 N    0.877
 ---------------------------------------------------------------------------

           -------------------------------------------------
          | TOTAL ENERGY              -57.872935745438 Eh   |
          | GRADIENT NORM               0.000602563134 Eh/α |
          | HOMO-LUMO GAP               2.426325650119 eV   |
           -------------------------------------------------

 * finished run on 2023/06/20 at 15:08:05.709
