   * xtb version 6.5.1 (579679a) compiled by 'ehlert@majestix' on 2022-07-11
          program call               : /lustre/hpc/kemi/ree/PhD/git/ReactivityQM/dep/xtb-6.5.1/bin/xtb --gfn 1 /lustre/hpc/kemi/ree/PhD/git/ReactivityQM/calculations/R02deprot/reac01prodN16/conf09/R02deprot_reac01prodN16_conf09_gfn1.xyz --opt --vfukui --chrg 0 --uhf 0 --alpb DMSO

   ID    Z sym.   atoms
    1    6 C      1, 3, 5, 7-10, 12, 14, 17, 18, 21, 23, 24
    2    8 O      2, 4, 13, 19, 22, 25
    3    7 N      6, 11, 15, 16, 20
    4    1 H      26-42

      * Solvation model:               ALPB
        Solvent                        DMSO
        Solvent mass                       7.8130E+01 g/mol
          :  Hamiltonian                  GFN1-xTB          :
 * total energy  :   -82.9450156 Eh     change       -0.1797673E-10 Eh
 * total energy  :   -82.9571251 Eh     change       -0.1210949E-01 Eh
 * total energy  :   -82.9621346 Eh     change       -0.5009433E-02 Eh
 * total energy  :   -82.9635274 Eh     change       -0.1392844E-02 Eh
 * total energy  :   -82.9646049 Eh     change       -0.1077493E-02 Eh
 * total energy  :   -82.9653251 Eh     change       -0.7202430E-03 Eh
 * total energy  :   -82.9657835 Eh     change       -0.4584088E-03 Eh
 * total energy  :   -82.9661165 Eh     change       -0.3329206E-03 Eh
 * total energy  :   -82.9663739 Eh     change       -0.2573935E-03 Eh
 * total energy  :   -82.9665986 Eh     change       -0.2247664E-03 Eh
 * total energy  :   -82.9711613 Eh     change       -0.2633648E-04 Eh
 * total energy  :   -82.9711869 Eh     change       -0.2563316E-04 Eh
 * total energy  :   -82.9712081 Eh     change       -0.2112704E-04 Eh
 * total energy  :   -82.9712253 Eh     change       -0.1724344E-04 Eh
 * total energy  :   -82.9712405 Eh     change       -0.1519581E-04 Eh
 * total energy  :   -82.9712567 Eh     change       -0.1624636E-04 Eh
 * total energy  :   -82.9712755 Eh     change       -0.1872525E-04 Eh
 * total energy  :   -82.9712910 Eh     change       -0.1554066E-04 Eh
 * total energy  :   -82.9712957 Eh     change       -0.4716947E-05 Eh
   *** GEOMETRY OPTIMIZATION CONVERGED AFTER 68 ITERATIONS ***

 final structure:
================
42
 xtb: 6.5.1 (579679a)
C            5.58427395326317        2.13305613023091        1.24103408008560
O            4.35666022222360        1.41536229060706        1.04973793309995
C            4.28842668718924        0.61326433869805        0.00398369205950
O            5.16832735729795        0.44395297061149       -0.80020904083195
C            2.93988610286323       -0.06922484065562       -0.08309866846651
N            1.88638319794451        0.63864118037945        0.05288539379822
C            0.64510549082196        0.00375922309705       -0.09995446088548
C           -0.51482467504453        0.95278945298236       -0.23132963740364
C           -0.48475909947027        1.95490395439129        0.93258890410146
C           -0.38979046549227        1.67626910504289       -1.58271018160489
N           -1.73923092503203        0.16497605999740       -0.19282301433444
C           -2.97223047864371        0.70534953004151       -0.23981098381968
O           -3.21987721542502        1.89174155423105       -0.37045289519009
C           -4.01760570672093       -0.34145266401388       -0.10062071107549
N           -3.81501824458160       -1.61965552663646        0.01154009803911
N           -5.04004014329445       -2.20157184791426        0.14176194383068
C           -5.91224305226596       -1.24014323197229        0.10303927463491
C           -7.38313117463754       -1.34990936174687        0.21649523312878
O           -5.32855255382312       -0.04243872812324       -0.04968511670724
N            0.46515866211384       -1.26320167977125       -0.09392023083727
C            1.57107924641078       -2.11310753071777        0.03143164539795
O            1.49295186523972       -3.22870623225018        0.47502997915391
C            2.88739932072857       -1.52896722844911       -0.47082954420653
C            2.90575557182274       -1.57960131981254       -2.01990183061759
O            3.96747583938743       -2.24129859407557        0.05678392252865
H            6.40611363951920        1.42917000778065        1.38594692014312
H            5.78775837333580        2.75774655191486        0.36936882997084
H            5.44587896124870        2.74658548551097        2.12821816480293
H           -1.27138045748986        2.69532522280956        0.80287812116065
H           -0.63458613189328        1.43297557715567        1.87641075951211
H            0.48037898504529        2.45776755235981        0.94993816902089
H           -1.19311125915593        2.40354185099228       -1.68385812481160
H           -0.45305780142809        0.95574118135263       -2.39637573824980
H            0.56887456269325        2.18947748261813       -1.63051448073711
H           -1.63716334164195       -0.83815755876297       -0.09104568042186
H           -7.86085706271636       -0.86698434399833       -0.63530849730952
H           -7.67016996224923       -2.39781330595524        0.25361982179995
H           -7.72374704592105       -0.84853475673330        1.12267535180079
H            2.85815341385932       -2.62058500257593       -2.33165682950355
H            3.83683112908057       -1.13966227501762       -2.37169114348395
H            2.05962334850854       -1.03227292432199       -2.42797808752625
H            3.65888086632420       -3.09910774929994        0.39033265995993

          :  Hamiltonian                  GFN1-xTB          :
         :: total energy             -82.971295723909 Eh    ::
         :: gradient norm              0.000229339543 Eh/a0 ::
         :: HOMO-LUMO gap              1.824938865137 eV    ::
         :: SCC energy               -83.747728559949 Eh    ::
         :: -> Gsolv                  -0.047993573839 Eh    ::
         :: repulsion energy           0.802257525934 Eh    ::

    * Orbital Energies and Occupations

         #    Occupation            Energy/Eh            Energy/eV
      -------------------------------------------------------------
         1        2.0000           -0.8647553             -23.5312
       ...           ...                  ...                  ...
        55        2.0000           -0.5094157             -13.8619
        56        2.0000           -0.5072579             -13.8032
        57        2.0000           -0.5068311             -13.7916
        58        2.0000           -0.5014355             -13.6448
        59        2.0000           -0.4970372             -13.5251
        60        2.0000           -0.4910797             -13.3630
        61        2.0000           -0.4837611             -13.1638
        62        2.0000           -0.4671984             -12.7131
        63        2.0000           -0.4628107             -12.5937
        64        2.0000           -0.4621395             -12.5755
        65        2.0000           -0.4534720             -12.3396
        66        2.0000           -0.4490395             -12.2190
        67        2.0000           -0.4382700             -11.9259 (HOMO)
        68                         -0.3712047             -10.1010 (LUMO)
        69                         -0.3116552              -8.4806
        70                         -0.3093983              -8.4192
        71                         -0.2582779              -7.0281
        72                         -0.2579582              -7.0194
        73                         -0.2423712              -6.5953
        74                         -0.1997040              -5.4342
        75                         -0.1450301              -3.9465
        76                         -0.1431248              -3.8946
        77                         -0.1353144              -3.6821
        78                         -0.1246500              -3.3919
       ...                                ...                  ...
       134                          0.7206535              19.6100
      -------------------------------------------------------------
                  HL-Gap            0.0670653 Eh            1.8249 eV

Wiberg/Mayer (AO) data.
largest (>0.10) Wiberg bond orders for each atom

     #   Z sym  total        # sym  WBO       # sym  WBO       # sym  WBO
 ---------------------------------------------------------------------------
     1   6 C    3.857 --    28 H    0.985    27 H    0.979    26 H    0.978
                             2 O    0.882
     2   8 O    2.226 --     3 C    1.150     1 C    0.882     4 O    0.147
     3   6 C    3.851 --     4 O    1.689     2 O    1.150     5 C    0.940
     4   8 O    1.962 --     3 C    1.689     2 O    0.147
     5   6 C    3.932 --     6 N    1.762    23 C    0.964     3 C    0.940
     6   7 N    3.047 --     5 C    1.762     7 C    1.064
     7   6 C    3.923 --    20 N    1.686     6 N    1.064     8 C    0.998
     8   6 C    3.939 --     7 C    0.998     9 C    0.971    10 C    0.962
                            11 N    0.937
     9   6 C    3.985 --    30 H    0.986    31 H    0.983    29 H    0.978
                             8 C    0.971
    10   6 C    3.984 --    33 H    0.985    34 H    0.985    32 H    0.977
                             8 C    0.962
    11   7 N    3.350 --    12 C    1.256     8 C    0.937    35 H    0.880
                            13 O    0.178
    12   6 C    3.918 --    13 O    1.590    11 N    1.256    14 C    0.989
    13   8 O    1.908 --    12 C    1.590    11 N    0.178
    14   6 C    3.875 --    15 N    1.611    19 O    1.064    12 C    0.989
    15   7 N    3.015 --    14 C    1.611    16 N    1.200
    16   7 N    2.980 --    17 C    1.605    15 N    1.200
    17   6 C    3.871 --    16 N    1.605    19 O    1.083    18 C    1.031
    18   6 C    3.986 --    17 C    1.031    37 H    0.982    36 H    0.965
                            38 H    0.961
    19   8 O    2.330 --    17 C    1.083    14 C    1.064
    20   7 N    3.080 --     7 C    1.686    21 C    1.062
    21   6 C    3.865 --    22 O    1.742    20 N    1.062    23 C    0.937
    22   8 O    1.994 --    21 C    1.742
    23   6 C    3.932 --    25 O    0.982     5 C    0.964    21 C    0.937
                            24 C    0.914
    24   6 C    3.981 --    41 H    0.986    40 H    0.979    39 H    0.978
                            23 C    0.914
    25   8 O    1.901 --    23 C    0.982    42 H    0.827
    26   1 H    1.003 --     1 C    0.978
    27   1 H    1.004 --     1 C    0.979
    28   1 H    1.008 --     1 C    0.985
    29   1 H    1.008 --     9 C    0.978
    30   1 H    1.000 --     9 C    0.986
    31   1 H    1.010 --     9 C    0.983
    32   1 H    1.007 --    10 C    0.977
    33   1 H    1.001 --    10 C    0.985
    34   1 H    1.003 --    10 C    0.985
    35   1 H    0.963 --    11 N    0.880
    36   1 H    0.997 --    18 C    0.965
    37   1 H    0.998 --    18 C    0.982
    38   1 H    0.997 --    18 C    0.961
    39   1 H    0.999 --    24 C    0.978
    40   1 H    1.008 --    24 C    0.979
    41   1 H    0.999 --    24 C    0.986
    42   1 H    0.859 --    25 O    0.827
 ---------------------------------------------------------------------------

           -------------------------------------------------
          | TOTAL ENERGY              -82.971295723909 Eh   |
          | GRADIENT NORM               0.000229339543 Eh/α |
          | HOMO-LUMO GAP               1.824938865137 eV   |
           -------------------------------------------------

 * finished run on 2023/06/20 at 18:26:56.248
