                         Program Version 5.0.1 -  RELEASE  -
|  1> # ORCA input file
|  2> ! SP r2SCAN-3c CPCM
|  3>
|  4> %maxcore 1875.0
|  5> %pal nprocs 4 end
|  6> %cpcm smd true SMDsolvent "DMSO" end
|  7>
|  8> *xyz 0 1
|  9> C      -2.229453    0.292667    0.135135
| 10> C      -0.859322   -0.255263    0.072021
| 11> N      -0.503268   -1.486157   -0.164331
| 12> N       0.846632   -1.517184   -0.133972
| 13> C       1.247380   -0.302373    0.119239
| 14> C       2.633471    0.151420    0.251728
| 15> O       3.582851   -0.570239    0.148130
| 16> Cl      2.789833    1.838685    0.579483
| 17> O       0.200974    0.537955    0.258730
| 18> H      -2.340356    0.915795    1.021309
| 19> H      -2.418552    0.915674   -0.739939
| 20> H      -2.950190   -0.520980    0.158653
| 21> **                         ****END OF INPUT****

CARTESIAN COORDINATES (ANGSTROEM)
---------------------------------
  C     -2.229453    0.292667    0.135135
  C     -0.859322   -0.255263    0.072021
  N     -0.503268   -1.486157   -0.164331
  N      0.846632   -1.517184   -0.133972
  C      1.247380   -0.302373    0.119239
  C      2.633471    0.151420    0.251728
  O      3.582851   -0.570239    0.148130
  Cl     2.789833    1.838685    0.579483
  O      0.200974    0.537955    0.258730
  H     -2.340356    0.915795    1.021309
  H     -2.418552    0.915674   -0.739939
  H     -2.950190   -0.520980    0.158653

 Total Charge           Charge          ....    0
 Multiplicity           Mult            ....    1
 Number of Electrons    NEL             ....   74
 Basis Dimension        Dim             ....  214

ORBITAL ENERGIES
----------------

  NO   OCC          E(Eh)            E(eV)
   0   2.0000    -101.247975     -2755.0975
   1   2.0000     -19.077118      -519.1148
   2   2.0000     -18.992554      -516.8137
   3   2.0000     -14.223105      -387.0304
   4   2.0000     -14.209397      -386.6574
   5   2.0000     -10.207742      -277.7668
   6   2.0000     -10.161780      -276.5161
   7   2.0000     -10.160226      -276.4738
   8   2.0000     -10.049341      -273.4565
   9   2.0000      -9.404877      -255.9197
  10   2.0000      -7.151069      -194.5905
  11   2.0000      -7.141792      -194.3380
  12   2.0000      -7.139847      -194.2851
  13   2.0000      -1.168861       -31.8063
  14   2.0000      -1.070513       -29.1301
  15   2.0000      -0.990953       -26.9652
  16   2.0000      -0.861590       -23.4451
  17   2.0000      -0.834335       -22.7034
  18   2.0000      -0.723979       -19.7005
  19   2.0000      -0.684480       -18.6257
  20   2.0000      -0.614922       -16.7329
  21   2.0000      -0.583950       -15.8901
  22   2.0000      -0.509879       -13.8745
  23   2.0000      -0.507297       -13.8042
  24   2.0000      -0.463689       -12.6176
  25   2.0000      -0.453963       -12.3530
  26   2.0000      -0.434535       -11.8243
  27   2.0000      -0.412546       -11.2259
  28   2.0000      -0.393088       -10.6965
  29   2.0000      -0.386112       -10.5067
  30   2.0000      -0.357299        -9.7226
  31   2.0000      -0.336988        -9.1699
  32   2.0000      -0.322485        -8.7753
  33   2.0000      -0.316211        -8.6045
  34   2.0000      -0.289208        -7.8698
  35   2.0000      -0.276144        -7.5142
  36   2.0000      -0.273172        -7.4334
  37   0.0000      -0.129035        -3.5112
  38   0.0000      -0.034056        -0.9267
  39   0.0000      -0.001127        -0.0307
  40   0.0000       0.017534         0.4771
  41   0.0000       0.060473         1.6455

MULLIKEN ATOMIC CHARGES
-----------------------
   0 C :   -0.631478
   1 C :    0.387654
   2 N :   -0.227041
   3 N :   -0.172008
   4 C :    0.333525
   5 C :    0.075729
   6 O :   -0.287302
   7 Cl:   -0.068115
   8 O :   -0.033595
   9 H :    0.202859
  10 H :    0.211553
  11 H :    0.208221
Sum of atomic charges:   -0.0000000

LOEWDIN ATOMIC CHARGES
----------------------
   0 C :   -0.312749
   1 C :    0.395063
   2 N :   -0.337802
   3 N :   -0.309890
   4 C :    0.359035
   5 C :    0.163681
   6 O :   -0.387206
   7 Cl:    0.235166
   8 O :   -0.391347
   9 H :    0.194011
  10 H :    0.198178
  11 H :    0.193862

  Mayer bond orders larger than 0.100000
B(  0-C ,  1-C ) :   0.8554 B(  0-C ,  9-H ) :   0.9483 B(  0-C , 10-H ) :   0.9267
B(  0-C , 11-H ) :   0.9801 B(  1-C ,  2-N ) :   1.5682 B(  1-C ,  8-O ) :   1.1146
B(  2-N ,  3-N ) :   1.2964 B(  3-N ,  4-C ) :   1.5988 B(  4-C ,  5-C ) :   0.9250
B(  4-C ,  8-O ) :   1.0911 B(  5-C ,  6-O ) :   1.9671 B(  5-C ,  7-Cl) :   1.0808

Dispersion correction           -0.003870515
FINAL SINGLE POINT ENERGY      -874.273102855699

DIPOLE MOMENT
-------------
                                X             Y             Z
Electronic contribution:     10.59928       3.24374       0.94514
Nuclear contribution   :    -12.63306      -1.48837      -0.67305
                        -----------------------------------------
Total Dipole Moment    :     -2.03378       1.75538       0.27209
                        -----------------------------------------
Magnitude (a.u.)       :      2.70030
Magnitude (Debye)      :      6.86363

Rotational constants in cm-1:     0.102041     0.031235     0.024022
Rotational constants in MHz :  3059.108330   936.401621   720.148178

                             ****ORCA TERMINATED NORMALLY****
TOTAL RUN TIME: 0 days 0 hours 0 minutes 27 seconds 211 msec
