   * xtb version 6.5.1 (579679a) compiled by 'ehlert@majestix' on 2022-07-11
          program call               : /lustre/hpc/kemi/ree/PhD/git/ReactivityQM/dep/xtb-6.5.1/bin/xtb --gfn 1 /lustre/hpc/kemi/ree/PhD/git/ReactivityQM/calculations/RaltegravirCLI/reac01/conf02/RaltegravirCLI_reac01_conf02_gfn1.xyz --opt --vfukui --chrg 0 --uhf 0 --alpb DMSO

   ID    Z sym.   atoms
    1    6 C      1, 2, 5, 6
    2    7 N      3, 4
    3    8 O      7, 9
    4   17 Cl     8
    5    1 H      10-12

      * Solvation model:               ALPB
        Solvent                        DMSO
        Solvent mass                       7.8130E+01 g/mol
          :  Hamiltonian                  GFN1-xTB          :
 * total energy  :   -30.0921198 Eh     change       -0.1271871E-11 Eh
 * total energy  :   -30.0950128 Eh     change       -0.2892967E-02 Eh
 * total energy  :   -30.0962664 Eh     change       -0.1253563E-02 Eh
 * total energy  :   -30.0964523 Eh     change       -0.1859260E-03 Eh
 * total energy  :   -30.0965138 Eh     change       -0.6151305E-04 Eh
 * total energy  :   -30.0965293 Eh     change       -0.1553729E-04 Eh
 * total energy  :   -30.0965392 Eh     change       -0.9807085E-05 Eh
 * total energy  :   -30.0965430 Eh     change       -0.3849227E-05 Eh
   *** GEOMETRY OPTIMIZATION CONVERGED AFTER 8 ITERATIONS ***

 final structure:
================
12
 xtb: 6.5.1 (579679a)
C           -2.22945302773201        0.29266708007728        0.13513490485808
C           -0.85932206512044       -0.25526273678642        0.07202053294588
N           -0.50326751150811       -1.48615695591738       -0.16433084807637
N            0.84663188629622       -1.51718420746270       -0.13397231428424
C            1.24737970389262       -0.30237348445513        0.11923892350482
C            2.63347064725784        0.15141998110011        0.25172821097512
O            3.58285143626564       -0.57023906830418        0.14812963916954
Cl           2.78983298977250        1.83868504293735        0.57948349440528
O            0.20097350003373        0.53795512349540        0.25873038528348
H           -2.34035569357263        0.91579475909508        1.02130888585219
H           -2.41855231690722        0.91567418277710       -0.73993909463903
H           -2.95018954867815       -0.52097971655650        0.15865328000524

          :  Hamiltonian                  GFN1-xTB          :
         :: total energy             -30.096543001783 Eh    ::
         :: gradient norm              0.000775706849 Eh/a0 ::
         :: HOMO-LUMO gap              3.241214128232 eV    ::
         :: SCC energy               -30.331580281682 Eh    ::
         :: -> Gsolv                  -0.018889026895 Eh    ::
         :: repulsion energy           0.240142502744 Eh    ::

    * Orbital Energies and Occupations

         #    Occupation            Energy/Eh            Energy/eV
      -------------------------------------------------------------
         1        2.0000           -0.9451272             -25.7182
       ...           ...                  ...                  ...
        12        2.0000           -0.6194628             -16.8564
        13        2.0000           -0.5993073             -16.3080
        14        2.0000           -0.5905911             -16.0708
        15        2.0000           -0.5529627             -15.0469
        16        2.0000           -0.5521990             -15.0261
        17        2.0000           -0.5405930             -14.7103
        18        2.0000           -0.5193913             -14.1334
        19        2.0000           -0.4975813             -13.5399
        20        2.0000           -0.4943419             -13.4517
        21        2.0000           -0.4884872             -13.2924
        22        2.0000           -0.4832955             -13.1511
        23        2.0000           -0.4677786             -12.7289
        24        2.0000           -0.4636868             -12.6176 (HOMO)
        25                         -0.3445744              -9.3763 (LUMO)
        26                         -0.2689632              -7.3189
        27                         -0.2308134              -6.2808
        28                         -0.2087515              -5.6804
        29                         -0.1468370              -3.9956
        30                         -0.0789016              -2.1470
        31                         -0.0780229              -2.1231
        32                         -0.0717053              -1.9512
        33                         -0.0715810              -1.9478
        34                         -0.0683214              -1.8591
        35                         -0.0366906              -0.9984
       ...                                ...                  ...
        47                          0.7399193              20.1342
      -------------------------------------------------------------
                  HL-Gap            0.1191124 Eh            3.2412 eV

Wiberg/Mayer (AO) data.
largest (>0.10) Wiberg bond orders for each atom

     #   Z sym  total        # sym  WBO       # sym  WBO       # sym  WBO
 ---------------------------------------------------------------------------
     1   6 C    3.983 --     2 C    1.035    12 H    0.980    10 H    0.965
                            11 H    0.955
     2   6 C    3.865 --     3 N    1.569     9 O    1.094     1 C    1.035
     3   7 N    2.986 --     2 C    1.569     4 N    1.236
     4   7 N    3.010 --     5 C    1.577     3 N    1.236
     5   6 C    3.880 --     4 N    1.577     9 O    1.050     6 C    1.039
     6   6 C    3.890 --     7 O    1.759     5 C    1.039     8 Cl   1.021
     7   8 O    2.029 --     6 C    1.759     8 Cl   0.153
     8  17 Cl   1.232 --     6 C    1.021     7 O    0.153
     9   8 O    2.327 --     2 C    1.094     5 C    1.050
    10   1 H    0.995 --     1 C    0.965
    11   1 H    0.994 --     1 C    0.955
    12   1 H    0.997 --     1 C    0.980
 ---------------------------------------------------------------------------

           -------------------------------------------------
          | TOTAL ENERGY              -30.096543001783 Eh   |
          | GRADIENT NORM               0.000775706849 Eh/α |
          | HOMO-LUMO GAP               3.241214128232 eV   |
           -------------------------------------------------

 * finished run on 2023/06/20 at 14:51:34.778
