   * xtb version 6.5.1 (579679a) compiled by 'ehlert@majestix' on 2022-07-11
          program call               : /lustre/hpc/kemi/ree/PhD/git/ReactivityQM/dep/xtb-6.5.1/bin/xtb --gfn 1 /lustre/hpc/kemi/ree/PhD/git/ReactivityQM/calculations/R02/reac01prodN01/conf18/R02_reac01prodN01_conf18_gfn1.xyz --opt --vfukui --chrg 1 --uhf 0 --alpb DMSO

   ID    Z sym.   atoms
    1    6 C      1, 3, 5, 7-10, 12, 14, 17, 18, 20, 22, 24
    2    8 O      2, 4, 13, 19, 23, 25
    3    7 N      6, 11, 15, 16, 21
    4    1 H      26-43

      * Solvation model:               ALPB
        Solvent                        DMSO
        Solvent mass                       7.8130E+01 g/mol
          :  Hamiltonian                  GFN1-xTB          :
 * total energy  :   -83.0820639 Eh     change       -0.3538503E-11 Eh
 * total energy  :   -83.1000342 Eh     change       -0.1797031E-01 Eh
 * total energy  :   -83.1086620 Eh     change       -0.8627757E-02 Eh
 * total energy  :   -83.1114774 Eh     change       -0.2815397E-02 Eh
 * total energy  :   -83.1133086 Eh     change       -0.1831211E-02 Eh
 * total energy  :   -83.1142436 Eh     change       -0.9350411E-03 Eh
 * total energy  :   -83.1149305 Eh     change       -0.6868641E-03 Eh
 * total energy  :   -83.1154928 Eh     change       -0.5623418E-03 Eh
 * total energy  :   -83.1158844 Eh     change       -0.3915302E-03 Eh
 * total energy  :   -83.1161293 Eh     change       -0.2449230E-03 Eh
 * total energy  :   -83.1177154 Eh     change       -0.1001085E-03 Eh
 * total energy  :   -83.1178330 Eh     change       -0.1176238E-03 Eh
 * total energy  :   -83.1178636 Eh     change       -0.3064085E-04 Eh
 * total energy  :   -83.1179156 Eh     change       -0.5192221E-04 Eh
 * total energy  :   -83.1179452 Eh     change       -0.2966133E-04 Eh
 * total energy  :   -83.1179730 Eh     change       -0.2779095E-04 Eh
 * total energy  :   -83.1179834 Eh     change       -0.1036645E-04 Eh
 * total energy  :   -83.1179977 Eh     change       -0.1436848E-04 Eh
 * total energy  :   -83.1180015 Eh     change       -0.3778551E-05 Eh
   *** GEOMETRY OPTIMIZATION CONVERGED AFTER 34 ITERATIONS ***

 final structure:
================
43
 xtb: 6.5.1 (579679a)
C           -5.58672188290196        0.02924797489256        3.18992603362437
O           -4.50100459491093       -0.12907282740789        2.27150217917568
C           -4.71577452505869        0.27937188271418        1.01978184131202
O           -5.76040357804096        0.76209355705251        0.65064340057953
C           -3.52133034233197        0.06546756378854        0.15049417679684
N           -2.41911980767658       -0.48516739934506        0.76058999753768
C           -1.34689547862548       -0.70613992318082        0.08224272875643
C           -0.15902954619734       -1.35327016787142        0.77671337618137
C            0.19200643960227       -2.69011372501663        0.11443470605139
C           -0.48744046145894       -1.56503443033964        2.25518521330309
N            1.00422754399014       -0.43931901379971        0.73249860100634
C            1.75695980737855       -0.19247783352324       -0.33943959099264
O            1.57587029551598       -0.58572390536668       -1.47946540886944
C            2.91740914421751        0.68554437343345       -0.00325378520262
N            3.22000100930020        1.24280904301473        1.10722166043553
N            4.37414195349378        1.95623568012397        0.94214759178420
C            4.77162132937457        1.83126479008428       -0.26664383960619
C            5.95960916519151        2.40077061151329       -0.92036676171503
O            3.87346592691175        1.01428025356391       -0.96398705042319
C            3.89230937043042        0.58937429285096       -2.36737034197782
N           -1.25372763575159       -0.42107679240980       -1.24838972037062
C           -2.27872945600342        0.14723321053985       -1.96383278761166
O           -2.18707446587152        0.42515131252565       -3.14962275011991
C           -3.49072896703568        0.38662425512431       -1.17981749936298
O           -4.51552063671250        0.92203363335057       -1.84641752536715
H           -5.25420215981036       -0.38929415340385        4.13755411088970
H           -6.46833660610942       -0.50521114899966        2.82688502765581
H           -5.82765921719777        1.08875522479445        3.30735395692978
H            0.39444576677114       -2.56790281918274       -0.94637114316897
H           -0.64626283271665       -3.37523890929512        0.23528473439433
H            1.07195073802067       -3.11349970974373        0.59507477996128
H           -1.34197383851332       -2.23416923539030        2.34411071812318
H           -0.73972653726436       -0.61583058208061        2.72554380398668
H            0.36643524750265       -2.00662957547130        2.76478793830987
H            1.30149236424242       -0.04455026451149        1.61283782352091
H            6.60625562683363        1.60546536089497       -1.29277414050219
H            6.50359525705863        2.99926371656529       -0.19162673576011
H            5.66869592386553        3.02783363296064       -1.76374804046480
H            4.79879801277476        0.99695194449304       -2.80310426532462
H            3.89257366726112       -0.49810905429230       -2.37489378940802
H            2.99815657948414        0.98995545822325       -2.83974688753695
H           -0.38569453691272       -0.59228239414338       -1.74200323173522
H           -4.25266106214088        1.06438709226609       -2.77402710480177

          :  Hamiltonian                  GFN1-xTB          :
         :: total energy             -83.118001517366 Eh    ::
         :: gradient norm              0.000653517384 Eh/a0 ::
         :: HOMO-LUMO gap              1.863209214759 eV    ::
         :: SCC energy               -83.921685072462 Eh    ::
         :: -> Gsolv                  -0.129649754485 Eh    ::
         :: repulsion energy           0.830141571989 Eh    ::

    * Orbital Energies and Occupations

         #    Occupation            Energy/Eh            Energy/eV
      -------------------------------------------------------------
         1        2.0000           -0.9707380             -26.4151
       ...           ...                  ...                  ...
        55        2.0000           -0.5239633             -14.2578
        56        2.0000           -0.5205338             -14.1644
        57        2.0000           -0.5178138             -14.0904
        58        2.0000           -0.5170575             -14.0698
        59        2.0000           -0.5122772             -13.9398
        60        2.0000           -0.5006843             -13.6243
        61        2.0000           -0.4990373             -13.5795
        62        2.0000           -0.4926942             -13.4069
        63        2.0000           -0.4910877             -13.3632
        64        2.0000           -0.4881844             -13.2842
        65        2.0000           -0.4656449             -12.6708
        66        2.0000           -0.4551238             -12.3845
        67        2.0000           -0.4383773             -11.9289 (HOMO)
        68                         -0.3699056             -10.0656 (LUMO)
        69                         -0.3290319              -8.9534
        70                         -0.3169150              -8.6237
        71                         -0.2935158              -7.9870
        72                         -0.2514482              -6.8423
        73                         -0.2444715              -6.6524
        74                         -0.1909072              -5.1948
        75                         -0.1765912              -4.8053
        76                         -0.1642528              -4.4695
        77                         -0.1431855              -3.8963
        78                         -0.1405713              -3.8251
       ...                                ...                  ...
       136                          0.7388234              20.1044
      -------------------------------------------------------------
                  HL-Gap            0.0684717 Eh            1.8632 eV

Wiberg/Mayer (AO) data.
largest (>0.10) Wiberg bond orders for each atom

     #   Z sym  total        # sym  WBO       # sym  WBO       # sym  WBO
 ---------------------------------------------------------------------------
     1   6 C    3.871 --    26 H    0.986    28 H    0.979    27 H    0.979
                             2 O    0.897
     2   8 O    2.199 --     3 C    1.111     1 C    0.897     4 O    0.135
     3   6 C    3.853 --     4 O    1.662     2 O    1.111     5 C    0.999
     4   8 O    1.927 --     3 C    1.662     2 O    0.135
     5   6 C    3.961 --    24 C    1.503     6 N    1.172     3 C    0.999
     6   7 N    3.029 --     7 C    1.599     5 C    1.172
     7   6 C    3.936 --     6 N    1.599    21 N    1.175     8 C    0.969
     8   6 C    3.916 --    10 C    1.001     9 C    0.984     7 C    0.969
                            11 N    0.896
     9   6 C    3.985 --     8 C    0.984    30 H    0.983    31 H    0.982
                            29 H    0.978
    10   6 C    3.988 --     8 C    1.001    34 H    0.984    33 H    0.982
                            32 H    0.981
    11   7 N    3.391 --    12 C    1.316     8 C    0.896    35 H    0.887
                            13 O    0.192
    12   6 C    3.927 --    13 O    1.562    11 N    1.316    14 C    0.974
    13   8 O    1.947 --    12 C    1.562    11 N    0.192
    14   6 C    3.805 --    15 N    1.702    12 C    0.974    19 O    0.889
    15   7 N    3.045 --    14 C    1.702    16 N    1.149
    16   7 N    3.023 --    17 C    1.693    15 N    1.149
    17   6 C    3.801 --    16 N    1.693    18 C    1.044    19 O    0.878
    18   6 C    3.968 --    17 C    1.044    37 H    0.969    38 H    0.950
                            36 H    0.949
    19   8 O    2.656 --    14 C    0.889    17 C    0.878    20 C    0.742
    20   6 C    3.718 --    39 H    0.974    41 H    0.967    40 H    0.967
                            19 O    0.742
    21   7 N    3.471 --     7 C    1.175    22 C    1.142    42 H    0.856
                            23 O    0.135
    22   6 C    3.911 --    23 O    1.581    21 N    1.142    24 C    1.058
    23   8 O    1.906 --    22 C    1.581    21 N    0.135
    24   6 C    3.920 --     5 C    1.503    25 O    1.117    22 C    1.058
    25   8 O    2.095 --    24 C    1.117    43 H    0.806
    26   1 H    1.011 --     1 C    0.986
    27   1 H    1.007 --     1 C    0.979
    28   1 H    1.007 --     1 C    0.979
    29   1 H    1.004 --     9 C    0.978
    30   1 H    0.998 --     9 C    0.983
    31   1 H    0.997 --     9 C    0.982
    32   1 H    1.005 --    10 C    0.981
    33   1 H    1.004 --    10 C    0.982
    34   1 H    0.997 --    10 C    0.984
    35   1 H    0.934 --    11 N    0.887
    36   1 H    0.987 --    18 C    0.949
    37   1 H    0.989 --    18 C    0.969
    38   1 H    0.987 --    18 C    0.950
    39   1 H    0.990 --    20 C    0.974
    40   1 H    0.998 --    20 C    0.967
    41   1 H    0.998 --    20 C    0.967
    42   1 H    0.928 --    21 N    0.856
    43   1 H    0.844 --    25 O    0.806
 ---------------------------------------------------------------------------

           -------------------------------------------------
          | TOTAL ENERGY              -83.118001517366 Eh   |
          | GRADIENT NORM               0.000653517384 Eh/α |
          | HOMO-LUMO GAP               1.863209214759 eV   |
           -------------------------------------------------

 * finished run on 2023/06/20 at 15:18:23.969
