   * xtb version 6.5.1 (579679a) compiled by 'ehlert@majestix' on 2022-07-11
          program call               : /lustre/hpc/kemi/ree/PhD/git/ReactivityQM/dep/xtb-6.5.1/bin/xtb --gfn 1 /lustre/hpc/kemi/ree/PhD/git/ReactivityQM/calculations/R03/reac02prodE03/conf17/R03_reac02prodE03_conf17_gfn1.xyz --opt --vfukui --chrg -1 --uhf 0 --alpb DMSO

   ID    Z sym.   atoms
    1    6 C      1, 3, 5, 6, 8-11, 13, 15, 18, 19, 22, 23, 25
    2    8 O      2, 4, 14, 20, 24, 26
    3    7 N      7, 12, 16, 17, 21
    4    1 H      27-46

      * Solvation model:               ALPB
        Solvent                        DMSO
        Solvent mass                       7.8130E+01 g/mol
          :  Hamiltonian                  GFN1-xTB          :
 * total energy  :   -86.9916234 Eh     change       -0.1256382E-09 Eh
 * total energy  :   -87.0073265 Eh     change       -0.1570307E-01 Eh
 * total energy  :   -87.0137258 Eh     change       -0.6399256E-02 Eh
 * total energy  :   -87.0152168 Eh     change       -0.1491023E-02 Eh
 * total energy  :   -87.0159756 Eh     change       -0.7587815E-03 Eh
 * total energy  :   -87.0163117 Eh     change       -0.3361178E-03 Eh
 * total energy  :   -87.0166019 Eh     change       -0.2902202E-03 Eh
 * total energy  :   -87.0168752 Eh     change       -0.2733054E-03 Eh
 * total energy  :   -87.0171370 Eh     change       -0.2618436E-03 Eh
 * total energy  :   -87.0173862 Eh     change       -0.2491442E-03 Eh
 * total energy  :   -87.0227139 Eh     change       -0.2319266E-04 Eh
 * total energy  :   -87.0227345 Eh     change       -0.2053885E-04 Eh
 * total energy  :   -87.0227513 Eh     change       -0.1680413E-04 Eh
 * total energy  :   -87.0227694 Eh     change       -0.1812383E-04 Eh
 * total energy  :   -87.0227786 Eh     change       -0.9162005E-05 Eh
 * total energy  :   -87.0228031 Eh     change       -0.2453675E-04 Eh
 * total energy  :   -87.0228114 Eh     change       -0.8297297E-05 Eh
 * total energy  :   -87.0228251 Eh     change       -0.1371309E-04 Eh
 * total energy  :   -87.0228282 Eh     change       -0.3112598E-05 Eh
   *** GEOMETRY OPTIMIZATION CONVERGED AFTER 100 ITERATIONS ***

 final structure:
================
46
 xtb: 6.5.1 (579679a)
C           -5.85805309760132        1.30804837244860       -0.77199827755921
O           -4.64264915676348        1.96354004485957       -1.11822125757958
C           -3.52942811045780        1.15678793677135       -1.31328017480936
O           -3.33708625828278        0.75574295532026       -2.64072679192363
C           -3.63173413087531       -0.60162848631702       -2.94089668395042
C           -2.66376182041440        0.79725326893246       -0.31428929766943
N           -1.54898896257014        0.03405189088626       -0.69254880714992
C           -0.63970123703203       -0.30679482293518        0.15473023645164
C            0.51317546878335       -1.13767489480954       -0.41971989119225
C            0.35861271867781       -1.24685795999481       -1.94415680918554
C            0.52948469316676       -2.54964905688211        0.18245454729866
N            1.76497207058613       -0.41787901349249       -0.14116414346597
C            2.99546987619638       -0.89534853130269       -0.42768922999290
O            3.25404713962990       -2.02444837789566       -0.81873400385181
C            4.02594375618845        0.14213071095011       -0.18231725363418
N            3.79810230927339        1.37212527085521        0.18236279326329
N            5.01374963013341        1.98402413257069        0.28135880849796
C            5.90320123529797        1.09272747311909       -0.02882665368726
C            7.37307975573666        1.26135704438113       -0.06445216943350
O            5.34650042858034       -0.09102195323693       -0.33382589598046
N           -0.66553837453198        0.04892581425050        1.47218745819493
C            0.29331877362724       -0.37055745119793        2.48631686448152
C           -1.80263689529451        0.76402300543588        1.99722264605590
O           -1.84717457856245        1.00829800818050        3.23288351142852
C           -2.75608163921348        1.13389485801423        1.06923395068557
O           -3.87824568646822        1.82046497096327        1.55538180610051
H           -5.73201832132508        0.69169449313081        0.12604112741420
H           -6.22088435160832        0.67564556966573       -1.59128463872956
H           -6.59671417551768        2.08650821542034       -0.57062341308823
H           -3.45518387043412       -0.74052494340588       -4.00969265414625
H           -4.67617862166592       -0.84985469163910       -2.71509009256209
H           -2.97751754275235       -1.27965231445919       -2.37789682077245
H           -0.56615565972900       -1.77020035925933       -2.18041010918152
H            0.32493257196612       -0.25475992938642       -2.39255869787952
H            1.19741047506397       -1.80148148041114       -2.36112199243717
H           -0.48316089822888       -2.95154281284604        0.17101600785465
H            1.17026236487440       -3.20394697329615       -0.40610964071690
H            0.89537545772007       -2.54665384259886        1.20586432261909
H            1.69331337017727        0.57277512397621        0.04789569775406
H            7.62683162927399        2.29582272662853        0.15296699676667
H            7.75775520796095        0.98824272035025       -1.04652141098352
H            7.84098397537134        0.61048065070666        0.67411945929416
H            0.35185306650979        0.41271420745162        3.24512787609245
H            1.28066351391951       -0.51889768079400        2.05938412129048
H           -0.04082114794776       -1.29278807075434        2.96884787513993
H           -3.75932195145398        1.87488518164837        2.51738870487927

          :  Hamiltonian                  GFN1-xTB          :
         :: total energy             -87.022828225055 Eh    ::
         :: gradient norm              0.000619785387 Eh/a0 ::
         :: HOMO-LUMO gap              0.169529070363 eV    ::
         :: SCC energy               -87.816468872442 Eh    ::
         :: -> Gsolv                  -0.113392077191 Eh    ::
         :: repulsion energy           0.822983051060 Eh    ::

    * Orbital Energies and Occupations

         #    Occupation            Energy/Eh            Energy/eV
      -------------------------------------------------------------
         1        2.0000           -0.8537736             -23.2324
       ...           ...                  ...                  ...
        59        2.0000           -0.4715683             -12.8320
        60        2.0000           -0.4693745             -12.7723
        61        2.0000           -0.4530444             -12.3280
        62        2.0000           -0.4499098             -12.2427
        63        2.0000           -0.4416905             -12.0190
        64        2.0000           -0.4340393             -11.8108
        65        2.0000           -0.4317356             -11.7481
        66        2.0000           -0.4308035             -11.7228
        67        2.0000           -0.4205462             -11.4436
        68        2.0000           -0.3961643             -10.7802
        69        2.0000           -0.3913328             -10.6487
        70        2.0000           -0.3723732             -10.1328
        71        1.9274           -0.3066599              -8.3446 (HOMO)
        72        0.0726           -0.3004298              -8.1751 (LUMO)
        73                         -0.2492320              -6.7819
        74                         -0.2328461              -6.3361
        75                         -0.1959179              -5.3312
        76                         -0.1873116              -5.0970
        77                         -0.1394108              -3.7936
        78                         -0.1240399              -3.3753
        79                         -0.1195623              -3.2535
        80                         -0.1140204              -3.1027
        81                         -0.1071063              -2.9145
        82                         -0.1005549              -2.7362
       ...                                ...                  ...
       144                          0.7260213              19.7560
      -------------------------------------------------------------
                  HL-Gap            0.0062301 Eh            0.1695 eV

Wiberg/Mayer (AO) data.
largest (>0.10) Wiberg bond orders for each atom

     #   Z sym  total        # sym  WBO       # sym  WBO       # sym  WBO
 ---------------------------------------------------------------------------
     1   6 C    3.915 --    29 H    0.985    28 H    0.981    27 H    0.981
                             2 O    0.930
     2   8 O    2.012 --     3 C    0.954     1 C    0.930
     3   6 C    3.724 --     6 C    1.514     2 O    0.954     4 O    0.936
     4   8 O    2.002 --     5 C    0.937     3 C    0.936
     5   6 C    3.916 --    30 H    0.985    31 H    0.981    32 H    0.978
                             4 O    0.937
     6   6 C    3.952 --     3 C    1.514    25 C    1.177     7 N    1.077
     7   7 N    3.012 --     8 C    1.608     6 C    1.077    21 N    0.134
     8   6 C    3.946 --     7 N    1.608    21 N    1.188     9 C    0.966
     9   6 C    3.929 --    10 C    0.992    11 C    0.989     8 C    0.966
                            12 N    0.913
    10   6 C    3.993 --     9 C    0.992    34 H    0.985    35 H    0.984
                            33 H    0.983
    11   6 C    3.992 --     9 C    0.989    36 H    0.986    38 H    0.981
                            37 H    0.980
    12   7 N    3.338 --    13 C    1.245     9 C    0.913    39 H    0.900
                            14 O    0.172
    13   6 C    3.896 --    14 O    1.571    12 N    1.245    15 C    0.998
    14   8 O    1.877 --    13 C    1.571    12 N    0.172
    15   6 C    3.843 --    16 N    1.588    20 O    1.054    13 C    0.998
    16   7 N    2.979 --    15 C    1.588    17 N    1.193
    17   7 N    2.980 --    18 C    1.613    16 N    1.193
    18   6 C    3.865 --    17 N    1.613    20 O    1.078    19 C    1.030
    19   6 C    3.988 --    18 C    1.030    40 H    0.983    41 H    0.966
                            42 H    0.963
    20   8 O    2.309 --    18 C    1.078    15 C    1.054
    21   7 N    3.401 --     8 C    1.188    23 C    0.954    22 C    0.952
                             7 N    0.134
    22   6 C    3.952 --    44 H    0.980    45 H    0.980    43 H    0.976
                            21 N    0.952
    23   6 C    3.903 --    24 O    1.388    25 C    1.386    21 N    0.954
    24   8 O    1.740 --    23 C    1.388    25 C    0.127
    25   6 C    3.824 --    23 C    1.386     6 C    1.177    26 O    0.968
                            24 O    0.127
    26   8 O    1.945 --    25 C    0.968    46 H    0.850
    27   1 H    1.030 --     1 C    0.981
    28   1 H    1.018 --     1 C    0.981
    29   1 H    1.020 --     1 C    0.985
    30   1 H    1.019 --     5 C    0.985
    31   1 H    1.018 --     5 C    0.981
    32   1 H    1.032 --     5 C    0.978
    33   1 H    1.018 --    10 C    0.983
    34   1 H    1.016 --    10 C    0.985
    35   1 H    1.008 --    10 C    0.984
    36   1 H    1.004 --    11 C    0.986
    37   1 H    1.015 --    11 C    0.980
    38   1 H    1.005 --    11 C    0.981
    39   1 H    0.962 --    12 N    0.900
    40   1 H    0.999 --    19 C    0.983
    41   1 H    0.997 --    19 C    0.966
    42   1 H    0.997 --    19 C    0.963
    43   1 H    1.021 --    22 C    0.976
    44   1 H    1.013 --    22 C    0.980
    45   1 H    1.007 --    22 C    0.980
    46   1 H    0.892 --    26 O    0.850
 ---------------------------------------------------------------------------

           -------------------------------------------------
          | TOTAL ENERGY              -87.022828225055 Eh   |
          | GRADIENT NORM               0.000619785387 Eh/α |
          | HOMO-LUMO GAP               0.169529070363 eV   |
           -------------------------------------------------

 * finished run on 2023/06/20 at 15:17:37.068
