   * xtb version 6.5.1 (579679a) compiled by 'ehlert@majestix' on 2022-07-11
          program call               : /lustre/hpc/kemi/ree/PhD/git/ReactivityQM/dep/xtb-6.5.1/bin/xtb --gfn 1 /lustre/hpc/kemi/ree/PhD/git/ReactivityQM/calculations/RaltegravirCLI/reac01prodN08/conf07/RaltegravirCLI_reac01prodN08_conf07_gfn1.xyz --opt --vfukui --chrg 1 --uhf 0 --alpb DMSO

   ID    Z sym.   atoms
    1    6 C      1, 3, 5, 8, 9
    2   17 Cl     2
    3    8 O      4, 10
    4    7 N      6, 7
    5    1 H      11-16

      * Solvation model:               ALPB
        Solvent                        DMSO
        Solvent mass                       7.8130E+01 g/mol
          :  Hamiltonian                  GFN1-xTB          :
 * total energy  :   -33.3907445 Eh     change       -0.9364953E-11 Eh
 * total energy  :   -33.3949037 Eh     change       -0.4159163E-02 Eh
 * total energy  :   -33.3965516 Eh     change       -0.1647867E-02 Eh
 * total energy  :   -33.3973652 Eh     change       -0.8136046E-03 Eh
 * total energy  :   -33.3979316 Eh     change       -0.5663741E-03 Eh
 * total energy  :   -33.3983481 Eh     change       -0.4165053E-03 Eh
 * total energy  :   -33.3985830 Eh     change       -0.2349131E-03 Eh
 * total energy  :   -33.3986804 Eh     change       -0.9741190E-04 Eh
 * total energy  :   -33.3987169 Eh     change       -0.3650760E-04 Eh
 * total energy  :   -33.3987304 Eh     change       -0.1351207E-04 Eh
 * total energy  :   -33.3987357 Eh     change       -0.5300273E-05 Eh
 * total energy  :   -33.3987380 Eh     change       -0.2341521E-05 Eh
   *** GEOMETRY OPTIMIZATION CONVERGED AFTER 12 ITERATIONS ***

 final structure:
================
16
 xtb: 6.5.1 (579679a)
C            3.56156609186635        0.69858153655141        0.40730330380258
Cl           1.78150954498718        0.82985171748918        0.36102289078477
C            1.27608907272298       -0.80100497884299       -0.32563705017678
O            2.12158404893015       -1.58532433019016       -0.57441420117006
C           -0.14386932522995       -0.85741749215532       -0.45044169411411
N           -0.87132298425197       -1.85646049336657       -0.89347380844256
N           -2.14216002504282       -1.47167811888425       -0.82153862969459
C           -2.15689655458916       -0.24878152165650       -0.33773719307653
C           -3.32878986292222        0.60791675650438       -0.09158397704008
O           -0.92361540182053        0.18452382643699       -0.08731041678356
H            3.97213720457417        1.30568305849460       -0.39449565604000
H            3.88534901007649        1.05948781181885        1.37887587332094
H            3.83282093472998       -0.34769016744632        0.27425342134367
H           -3.56567954750977        1.16472172494394       -1.00106962885076
H           -3.10877340097406        1.32165910691356        0.69923234053567
H           -4.18994880554428       -0.00406843661601        0.17133042559832

          :  Hamiltonian                  GFN1-xTB          :
         :: total energy             -33.398738046176 Eh    ::
         :: gradient norm              0.000788762060 Eh/a0 ::
         :: HOMO-LUMO gap              2.754736363036 eV    ::
         :: SCC energy               -33.693403028869 Eh    ::
         :: -> Gsolv                  -0.088072918355 Eh    ::
         :: repulsion energy           0.301448846753 Eh    ::

    * Orbital Energies and Occupations

         #    Occupation            Energy/Eh            Energy/eV
      -------------------------------------------------------------
         1        2.0000           -1.0682125             -29.0675
       ...           ...                  ...                  ...
        15        2.0000           -0.6279399             -17.0871
        16        2.0000           -0.6107287             -16.6188
        17        2.0000           -0.6049233             -16.4608
        18        2.0000           -0.5839127             -15.8891
        19        2.0000           -0.5770474             -15.7023
        20        2.0000           -0.5724411             -15.5769
        21        2.0000           -0.5592341             -15.2175
        22        2.0000           -0.5555787             -15.1181
        23        2.0000           -0.5498494             -14.9622
        24        2.0000           -0.5440241             -14.8037
        25        2.0000           -0.5264397             -14.3252
        26        2.0000           -0.5002437             -13.6123
        27        2.0000           -0.4960388             -13.4979 (HOMO)
        28                         -0.3948041             -10.7432 (LUMO)
        29                         -0.3166294              -8.6159
        30                         -0.3002797              -8.1710
        31                         -0.2978912              -8.1060
        32                         -0.2714196              -7.3857
        33                         -0.1859876              -5.0610
        34                         -0.1806652              -4.9161
        35                         -0.1627408              -4.4284
        36                         -0.1597577              -4.3472
        37                         -0.1595865              -4.3426
        38                         -0.1102822              -3.0009
       ...                                ...                  ...
        57                          0.7707742              20.9738
      -------------------------------------------------------------
                  HL-Gap            0.1012347 Eh            2.7547 eV

Wiberg/Mayer (AO) data.
largest (>0.10) Wiberg bond orders for each atom

     #   Z sym  total        # sym  WBO       # sym  WBO       # sym  WBO
 ---------------------------------------------------------------------------
     1   6 C    3.860 --    11 H    0.980    12 H    0.977    13 H    0.968
                             2 Cl   0.912
     2  17 Cl   1.920 --     1 C    0.912     3 C    0.787     4 O    0.146
     3   6 C    3.874 --     4 O    1.836     5 C    1.116     2 Cl   0.787
     4   8 O    2.157 --     3 C    1.836     2 Cl   0.146
     5   6 C    3.883 --     6 N    1.497     3 C    1.116    10 O    1.037
     6   7 N    3.023 --     5 C    1.497     7 N    1.310
     7   7 N    2.997 --     8 C    1.492     6 N    1.310
     8   6 C    3.845 --     7 N    1.492    10 O    1.112     9 C    1.045
     9   6 C    3.974 --     8 C    1.045    15 H    0.970    16 H    0.968
                            14 H    0.938
    10   8 O    2.338 --     8 C    1.112     5 C    1.037
    11   1 H    0.994 --     1 C    0.980
    12   1 H    0.993 --     1 C    0.977
    13   1 H    0.994 --     1 C    0.968
    14   1 H    0.988 --     9 C    0.938
    15   1 H    0.991 --     9 C    0.970
    16   1 H    0.991 --     9 C    0.968
 ---------------------------------------------------------------------------

           -------------------------------------------------
          | TOTAL ENERGY              -33.398738046176 Eh   |
          | GRADIENT NORM               0.000788762060 Eh/α |
          | HOMO-LUMO GAP               2.754736363036 eV   |
           -------------------------------------------------

 * finished run on 2023/06/20 at 14:55:57.524
