   * xtb version 6.5.1 (579679a) compiled by 'ehlert@majestix' on 2022-07-11
          program call               : /lustre/hpc/kemi/ree/PhD/git/ReactivityQM/dep/xtb-6.5.1/bin/xtb --gfn 1 /lustre/hpc/kemi/ree/PhD/git/ReactivityQM/calculations/R02oxygendeprot/reac01prodN10/conf12/R02oxygendeprot_reac01prodN10_conf12_gfn1.xyz --opt --vfukui --chrg 0 --uhf 0 --alpb DMSO

   ID    Z sym.   atoms
    1    6 C      1, 3, 5, 6, 8, 11-15, 17, 19, 22, 23
    2    8 O      2, 4, 7, 9, 18, 24
    3    7 N      10, 16, 20, 21, 25
    4    1 H      26-42

      * Solvation model:               ALPB
        Solvent                        DMSO
        Solvent mass                       7.8130E+01 g/mol
          :  Hamiltonian                  GFN1-xTB          :
 * total energy  :   -82.9633499 Eh     change       -0.6778578E-11 Eh
 * total energy  :   -82.9756062 Eh     change       -0.1225631E-01 Eh
 * total energy  :   -82.9807894 Eh     change       -0.5183114E-02 Eh
 * total energy  :   -82.9817269 Eh     change       -0.9375402E-03 Eh
 * total energy  :   -82.9821984 Eh     change       -0.4714592E-03 Eh
 * total energy  :   -82.9824386 Eh     change       -0.2402330E-03 Eh
 * total energy  :   -82.9826081 Eh     change       -0.1694902E-03 Eh
 * total energy  :   -82.9827155 Eh     change       -0.1073746E-03 Eh
 * total energy  :   -82.9827974 Eh     change       -0.8196689E-04 Eh
 * total energy  :   -82.9828626 Eh     change       -0.6519443E-04 Eh
 * total energy  :   -82.9829659 Eh     change       -0.2395490E-04 Eh
 * total energy  :   -82.9829849 Eh     change       -0.1893410E-04 Eh
 * total energy  :   -82.9830053 Eh     change       -0.2047013E-04 Eh
 * total energy  :   -82.9830166 Eh     change       -0.1127082E-04 Eh
 * total energy  :   -82.9830339 Eh     change       -0.1728766E-04 Eh
 * total energy  :   -82.9830392 Eh     change       -0.5276663E-05 Eh
 * total energy  :   -82.9830441 Eh     change       -0.4935275E-05 Eh
 * total energy  :   -82.9830483 Eh     change       -0.4196014E-05 Eh
 * total energy  :   -82.9830512 Eh     change       -0.2933786E-05 Eh
   *** GEOMETRY OPTIMIZATION CONVERGED AFTER 21 ITERATIONS ***

 final structure:
================
42
 xtb: 6.5.1 (579679a)
C           -6.73391053416705       -0.18713297949852       -0.65607601445141
O           -5.43158543043759        0.39673250603681       -0.51424192620706
C           -4.51183495636126       -0.33771293834003        0.08366890904531
O           -4.68780515178634       -1.45168572762328        0.50679305523842
C           -3.17662890787748        0.37640040930314        0.16705609881299
C           -3.08826215561484        1.86611278332958        0.10324790468700
O           -3.96715740860144        2.61061347026707        0.45156946038459
C           -1.73466477871630        2.36726770052913       -0.41057991138646
O           -1.58898606581683        3.43812325716250       -0.96324857891540
N           -0.73117527566756        1.48831668772621       -0.21618737968158
C           -0.83956541118072        0.20797875904063        0.46063046725729
C           -0.61137944311842        0.40548382396858        1.96804274015982
C            0.15310649791737       -0.78784803049755       -0.20777631246377
C            0.11133108752995       -2.14777426008706        0.49644896914275
C           -0.22415053989848       -0.93472179644364       -1.68644329587235
N            1.49569366177655       -0.21333635648330       -0.09345656577475
C            2.60417803074577       -0.82715010384254       -0.57243287605336
O            2.62096481000565       -1.83462465533000       -1.25360995255285
C            3.82477872664068       -0.08906274337515       -0.16103341986538
N            3.86090633054492        0.96646495079925        0.59677761961984
N            5.17226213947953        1.30466699867681        0.73620135976262
C            5.85407633612898        0.43201235785086        0.05627988025886
C            7.32239973980768        0.36186392855859       -0.11055703345685
O            5.05879988589593       -0.47310883353453       -0.53248010251990
N           -2.14958716299103       -0.35970619257075        0.33064382787684
H           -6.66643642140330       -1.10268620572839       -1.24693671056278
H           -7.14533882267516       -0.41863440187363        0.32844849894110
H           -7.34993640080184        0.55115553871607       -1.16463678300392
H            0.19593331109922        1.79842631988811       -0.46157800497487
H           -1.28443058754811        1.18455966900725        2.32190889424197
H            0.41468406210534        0.70879641695106        2.15962322066056
H           -0.82398593754753       -0.51679306451716        2.50347258348725
H           -0.92003534970549       -2.48931173937103        0.57035839554427
H            0.68552615062166       -2.87437549222999       -0.07638178145370
H            0.53934739259842       -2.07607886615575        1.49432962530012
H            0.44154694454431       -1.64248942693829       -2.17630763907668
H           -1.24724399795575       -1.30160665493301       -1.75935405234469
H           -0.15373352570528        0.02637375935589       -2.19302204127689
H            1.64619474108780        0.55373469515125        0.54322450827469
H            7.79777847733081        1.12093019509409        0.50614060497282
H            7.68245110920736       -0.62549116342434        0.17745602519139
H            7.58587383050722        0.52531740538388       -1.15607026696608

          :  Hamiltonian                  GFN1-xTB          :
         :: total energy             -82.983051235864 Eh    ::
         :: gradient norm              0.000556234392 Eh/a0 ::
         :: HOMO-LUMO gap              1.791814021926 eV    ::
         :: SCC energy               -83.764307439459 Eh    ::
         :: -> Gsolv                  -0.053890383938 Eh    ::
         :: repulsion energy           0.808402830765 Eh    ::

    * Orbital Energies and Occupations

         #    Occupation            Energy/Eh            Energy/eV
      -------------------------------------------------------------
         1        2.0000           -0.8650774             -23.5400
       ...           ...                  ...                  ...
        55        2.0000           -0.5078147             -13.8183
        56        2.0000           -0.5072886             -13.8040
        57        2.0000           -0.5047868             -13.7359
        58        2.0000           -0.5032985             -13.6954
        59        2.0000           -0.4985632             -13.5666
        60        2.0000           -0.4842486             -13.1771
        61        2.0000           -0.4831779             -13.1479
        62        2.0000           -0.4705758             -12.8050
        63        2.0000           -0.4635176             -12.6130
        64        2.0000           -0.4628157             -12.5939
        65        2.0000           -0.4538842             -12.3508
        66        2.0000           -0.4499445             -12.2436
        67        2.0000           -0.4397350             -11.9658 (HOMO)
        68                         -0.3738871             -10.1740 (LUMO)
        69                         -0.3206746              -8.7260
        70                         -0.3136335              -8.5344
        71                         -0.2580351              -7.0215
        72                         -0.2525145              -6.8713
        73                         -0.2101358              -5.7181
        74                         -0.2016206              -5.4864
        75                         -0.1455046              -3.9594
        76                         -0.1432942              -3.8992
        77                         -0.1423350              -3.8731
        78                         -0.1325976              -3.6082
       ...                                ...                  ...
       134                          0.7640624              20.7912
      -------------------------------------------------------------
                  HL-Gap            0.0658480 Eh            1.7918 eV

Wiberg/Mayer (AO) data.
largest (>0.10) Wiberg bond orders for each atom

     #   Z sym  total        # sym  WBO       # sym  WBO       # sym  WBO
 ---------------------------------------------------------------------------
     1   6 C    3.858 --    28 H    0.985    26 H    0.979    27 H    0.978
                             2 O    0.884
     2   8 O    2.225 --     3 C    1.147     1 C    0.884     4 O    0.147
     3   6 C    3.854 --     4 O    1.686     2 O    1.147     5 C    0.944
     4   8 O    1.950 --     3 C    1.686     2 O    0.147
     5   6 C    3.954 --    25 N    1.800     6 C    0.988     3 C    0.944
     6   6 C    3.854 --     7 O    1.809     5 C    0.988     8 C    0.904
     7   8 O    2.013 --     6 C    1.809
     8   6 C    3.904 --     9 O    1.633    10 N    1.252     6 C    0.904
     9   8 O    1.927 --     8 C    1.633    10 N    0.185
    10   7 N    3.362 --     8 C    1.252    11 C    0.936    29 H    0.882
                             9 O    0.185
    11   6 C    3.914 --    25 N    0.995    12 C    0.950    13 C    0.939
                            10 N    0.936
    12   6 C    3.983 --    30 H    0.981    32 H    0.980    31 H    0.977
                            11 C    0.950
    13   6 C    3.926 --    15 C    0.995    14 C    0.994    11 C    0.939
                            16 N    0.928
    14   6 C    3.989 --    13 C    0.994    35 H    0.983    33 H    0.983
                            34 H    0.979
    15   6 C    3.989 --    13 C    0.995    38 H    0.984    37 H    0.983
                            36 H    0.979
    16   7 N    3.330 --    17 C    1.235    13 C    0.928    39 H    0.894
                            18 O    0.173
    17   6 C    3.914 --    18 O    1.605    16 N    1.235    19 C    0.991
    18   8 O    1.920 --    17 C    1.605    16 N    0.173
    19   6 C    3.876 --    20 N    1.607    24 O    1.065    17 C    0.991
    20   7 N    3.020 --    19 C    1.607    21 N    1.203
    21   7 N    2.981 --    22 C    1.602    20 N    1.203
    22   6 C    3.870 --    21 N    1.602    24 O    1.083    23 C    1.032
    23   6 C    3.986 --    22 C    1.032    40 H    0.982    41 H    0.965
                            42 H    0.961
    24   8 O    2.332 --    22 C    1.083    19 C    1.065
    25   7 N    3.054 --     5 C    1.800    11 C    0.995
    26   1 H    1.004 --     1 C    0.979
    27   1 H    1.004 --     1 C    0.978
    28   1 H    1.008 --     1 C    0.985
    29   1 H    0.927 --    10 N    0.882
    30   1 H    0.999 --    12 C    0.981
    31   1 H    0.996 --    12 C    0.977
    32   1 H    0.999 --    12 C    0.980
    33   1 H    1.009 --    14 C    0.983
    34   1 H    1.006 --    14 C    0.979
    35   1 H    1.001 --    14 C    0.983
    36   1 H    1.010 --    15 C    0.979
    37   1 H    1.004 --    15 C    0.983
    38   1 H    1.003 --    15 C    0.984
    39   1 H    0.956 --    16 N    0.894
    40   1 H    0.998 --    23 C    0.982
    41   1 H    0.996 --    23 C    0.965
    42   1 H    0.996 --    23 C    0.961
 ---------------------------------------------------------------------------

           -------------------------------------------------
          | TOTAL ENERGY              -82.983051235864 Eh   |
          | GRADIENT NORM               0.000556234392 Eh/α |
          | HOMO-LUMO GAP               1.791814021926 eV   |
           -------------------------------------------------

 * finished run on 2023/06/21 at 17:25:38.172
