   * xtb version 6.5.1 (579679a) compiled by 'ehlert@majestix' on 2022-07-11
          program call               : /lustre/hpc/kemi/ree/PhD/git/ReactivityQM/dep/xtb-6.5.1/bin/xtb --gfn 1 /lustre/hpc/kemi/ree/PhD/git/ReactivityQM/calculations/R02/reac01prodE03/conf15/R02_reac01prodE03_conf15_gfn1.xyz --opt --vfukui --chrg -1 --uhf 0 --alpb DMSO

   ID    Z sym.   atoms
    1    6 C      1, 3, 5, 6, 8-11, 13, 15, 18, 19, 22, 24
    2    8 O      2, 4, 14, 20, 23, 25
    3    7 N      7, 12, 16, 17, 21
    4    1 H      26-43

      * Solvation model:               ALPB
        Solvent                        DMSO
        Solvent mass                       7.8130E+01 g/mol
          :  Hamiltonian                  GFN1-xTB          :
 * total energy  :   -83.8117504 Eh     change       -0.8458301E-10 Eh
 * total energy  :   -83.8279856 Eh     change       -0.1623517E-01 Eh
 * total energy  :   -83.8345182 Eh     change       -0.6532562E-02 Eh
 * total energy  :   -83.8360159 Eh     change       -0.1497752E-02 Eh
 * total energy  :   -83.8366961 Eh     change       -0.6802180E-03 Eh
 * total energy  :   -83.8369754 Eh     change       -0.2792480E-03 Eh
 * total energy  :   -83.8372260 Eh     change       -0.2506184E-03 Eh
 * total energy  :   -83.8374720 Eh     change       -0.2459627E-03 Eh
 * total energy  :   -83.8377182 Eh     change       -0.2462631E-03 Eh
 * total energy  :   -83.8379749 Eh     change       -0.2566597E-03 Eh
 * total energy  :   -83.8431508 Eh     change       -0.2974574E-04 Eh
 * total energy  :   -83.8431813 Eh     change       -0.3050872E-04 Eh
 * total energy  :   -83.8432152 Eh     change       -0.3386891E-04 Eh
 * total energy  :   -83.8432379 Eh     change       -0.2272910E-04 Eh
 * total energy  :   -83.8432559 Eh     change       -0.1796014E-04 Eh
 * total energy  :   -83.8432775 Eh     change       -0.2162118E-04 Eh
 * total energy  :   -83.8432886 Eh     change       -0.1108607E-04 Eh
 * total energy  :   -83.8432965 Eh     change       -0.7888249E-05 Eh
 * total energy  :   -83.8433003 Eh     change       -0.3806138E-05 Eh
   *** GEOMETRY OPTIMIZATION CONVERGED AFTER 61 ITERATIONS ***

 final structure:
================
43
 xtb: 6.5.1 (579679a)
C           -3.51197637857832       -2.17775831751620        0.18071493092365
O           -4.03524610316166       -0.88325158101637        0.46440825111623
C           -3.79890548682714        0.08869903301360       -0.50519676777466
O           -4.85307563020668        0.27241024436895       -1.40715305399868
C           -6.10222049965803        0.60011026413479       -0.80819934428898
C           -2.60574511952912        0.74760228916485       -0.60734435092103
N           -1.62200656630120        0.34252917244818        0.31589237549401
C           -0.46451868569457        0.89502269868411        0.28719534290472
C            0.59248115025034        0.46323529737128        1.29332881036706
C            0.88750727185906        1.62618165676977        2.25078187005161
C            0.11411093297107       -0.76978639797358        2.06541743913682
N            1.79987029818893        0.12930133660253        0.52433983578685
C            2.95078280131080       -0.30353871522104        1.07989820796928
O            3.18454578755344       -0.36974980196106        2.27912663699443
C            3.92780335861148       -0.69254989383722        0.03590552154670
N            3.73088760552093       -0.65744380669598       -1.25193938933155
N            4.87473433646088       -1.11564568109294       -1.83714326631511
C            5.69445773628190       -1.40254408371442       -0.87402533758785
C            7.06875073109582       -1.93926559845015       -0.99087986000638
O            5.15942265861567       -1.15878291317393        0.33323173246990
N           -0.11288691232852        1.86602715464361       -0.58974061909342
C           -1.01704220226816        2.38124231228984       -1.58140351332535
O           -0.57521748265976        3.28783943276454       -2.32629723368307
C           -2.26648300624349        1.77737064155667       -1.55101024466514
O           -3.22080433679545        2.23341229728771       -2.47564180021951
H           -3.83054179415599       -2.83754240649527        0.98975141399886
H           -3.89401701124267       -2.56329814591828       -0.77237320888886
H           -2.41532394650003       -2.15236886248945        0.14503535664370
H           -6.04821429151812        1.55990118647429       -0.27891211822383
H           -6.41289996967248       -0.17932208385892       -0.10223514926233
H           -6.83695460766049        0.66974054895864       -1.61128825410037
H            1.61306390888725        1.32534720527898        3.00420232394785
H           -0.03418948843355        1.92622609645533        2.74816225172390
H            1.28437492670192        2.47694878235058        1.69914945665466
H           -0.05745530036743       -1.59594659739654        1.37637907287070
H           -0.82284330976402       -0.53622513825691        2.56936117080064
H            0.85447935706175       -1.06740544732411        2.80544802544394
H            1.71593705606957        0.06821347681501       -0.48093285801587
H            7.78111015107117       -1.24580913790077       -0.54438538595597
H            7.14558683936997       -2.88834131368424       -0.46096787979191
H            7.31409951932628       -2.08704861975149       -2.03950624729315
H            0.80064224069622        2.28485290915146       -0.55912794300618
H           -3.95607953833572        1.60141150714753       -2.50376920110185

          :  Hamiltonian                  GFN1-xTB          :
         :: total energy             -83.843300286770 Eh    ::
         :: gradient norm              0.000857416730 Eh/a0 ::
         :: HOMO-LUMO gap              0.167583532957 eV    ::
         :: SCC energy               -84.602743746011 Eh    ::
         :: -> Gsolv                  -0.115398737778 Eh    ::
         :: repulsion energy           0.785481230581 Eh    ::

    * Orbital Energies and Occupations

         #    Occupation            Energy/Eh            Energy/eV
      -------------------------------------------------------------
         1        2.0000           -0.8524199             -23.1955
       ...           ...                  ...                  ...
        56        2.0000           -0.4721052             -12.8466
        57        2.0000           -0.4702674             -12.7966
        58        2.0000           -0.4514091             -12.2835
        59        2.0000           -0.4489147             -12.2156
        60        2.0000           -0.4431873             -12.0597
        61        2.0000           -0.4403562             -11.9827
        62        2.0000           -0.4378508             -11.9145
        63        2.0000           -0.4318601             -11.7515
        64        2.0000           -0.4250972             -11.5675
        65        2.0000           -0.3954559             -10.7609
        66        2.0000           -0.3899396             -10.6108
        67        2.0000           -0.3736995             -10.1689
        68        1.9247           -0.3052023              -8.3050 (HOMO)
        69        0.0753           -0.2990437              -8.1374 (LUMO)
        70                         -0.2479042              -6.7458
        71                         -0.2299750              -6.2579
        72                         -0.1940832              -5.2813
        73                         -0.1854472              -5.0463
        74                         -0.1386780              -3.7736
        75                         -0.1202853              -3.2731
        76                         -0.1162218              -3.1626
        77                         -0.1126065              -3.0642
        78                         -0.1048348              -2.8527
        79                         -0.0929869              -2.5303
       ...                                ...                  ...
       136                          0.7243544              19.7107
      -------------------------------------------------------------
                  HL-Gap            0.0061586 Eh            0.1676 eV

Wiberg/Mayer (AO) data.
largest (>0.10) Wiberg bond orders for each atom

     #   Z sym  total        # sym  WBO       # sym  WBO       # sym  WBO
 ---------------------------------------------------------------------------
     1   6 C    3.913 --    26 H    0.986    27 H    0.983    28 H    0.981
                             2 O    0.930
     2   8 O    2.014 --     3 C    0.947     1 C    0.930
     3   6 C    3.721 --     6 C    1.524     2 O    0.947     4 O    0.935
     4   8 O    2.048 --     3 C    0.935     5 C    0.930
     5   6 C    3.909 --    31 H    0.986    29 H    0.983    30 H    0.982
                             4 O    0.930
     6   6 C    3.951 --     3 C    1.524    24 C    1.169     7 N    1.070
     7   7 N    3.005 --     8 C    1.628     6 C    1.070    21 N    0.136
     8   6 C    3.948 --     7 N    1.628    21 N    1.191     9 C    0.970
     9   6 C    3.930 --    11 C    0.994    10 C    0.985     8 C    0.970
                            12 N    0.914
    10   6 C    3.991 --    33 H    0.986     9 C    0.985    34 H    0.984
                            32 H    0.981
    11   6 C    3.993 --     9 C    0.994    35 H    0.985    36 H    0.984
                            37 H    0.984
    12   7 N    3.333 --    13 C    1.252     9 C    0.914    38 H    0.898
                            14 O    0.174
    13   6 C    3.895 --    14 O    1.566    12 N    1.252    15 C    1.000
    14   8 O    1.873 --    13 C    1.566    12 N    0.174
    15   6 C    3.842 --    16 N    1.587    20 O    1.052    13 C    1.000
    16   7 N    2.976 --    15 C    1.587    17 N    1.194
    17   7 N    2.980 --    18 C    1.613    16 N    1.194
    18   6 C    3.865 --    17 N    1.613    20 O    1.078    19 C    1.030
    19   6 C    3.988 --    18 C    1.030    41 H    0.983    40 H    0.965
                            39 H    0.965
    20   8 O    2.308 --    18 C    1.078    15 C    1.052
    21   7 N    3.358 --     8 C    1.191    22 C    0.950    42 H    0.907
                             7 N    0.136
    22   6 C    3.896 --    23 O    1.415    24 C    1.375    21 N    0.950
    23   8 O    1.716 --    22 C    1.415    24 C    0.133
    24   6 C    3.813 --    22 C    1.375     6 C    1.169    25 O    0.967
                            23 O    0.133
    25   8 O    1.929 --    24 C    0.967    43 H    0.847
    26   1 H    1.019 --     1 C    0.986
    27   1 H    1.014 --     1 C    0.983
    28   1 H    1.030 --     1 C    0.981
    29   1 H    1.014 --     5 C    0.983
    30   1 H    1.021 --     5 C    0.982
    31   1 H    1.018 --     5 C    0.986
    32   1 H    1.012 --    10 C    0.981
    33   1 H    1.004 --    10 C    0.986
    34   1 H    1.005 --    10 C    0.984
    35   1 H    1.013 --    11 C    0.985
    36   1 H    1.015 --    11 C    0.984
    37   1 H    1.010 --    11 C    0.984
    38   1 H    0.960 --    12 N    0.898
    39   1 H    0.997 --    19 C    0.965
    40   1 H    0.997 --    19 C    0.965
    41   1 H    1.000 --    19 C    0.983
    42   1 H    0.956 --    21 N    0.907
    43   1 H    0.898 --    25 O    0.847
 ---------------------------------------------------------------------------

           -------------------------------------------------
          | TOTAL ENERGY              -83.843300286770 Eh   |
          | GRADIENT NORM               0.000857416730 Eh/α |
          | HOMO-LUMO GAP               0.167583532957 eV   |
           -------------------------------------------------

 * finished run on 2023/06/20 at 14:55:24.772
