   * xtb version 6.5.1 (579679a) compiled by 'ehlert@majestix' on 2022-07-11
          program call               : /lustre/hpc/kemi/ree/PhD/git/ReactivityQM/dep/xtb-6.5.1/bin/xtb --gfn 1 /lustre/hpc/kemi/ree/PhD/git/ReactivityQM/calculations/R03/reac01prodE04/conf06/R03_reac01prodE04_conf06_gfn1.xyz --opt --vfukui --chrg -1 --uhf 0 --alpb DMSO

   ID    Z sym.   atoms
    1    6 C      1, 2, 4-7, 9, 10
    2    9 F      3
    3    7 N      8
    4    1 H      11-21

      * Solvation model:               ALPB
        Solvent                        DMSO
        Solvent mass                       7.8130E+01 g/mol
          :  Hamiltonian                  GFN1-xTB          :
 * total energy  :   -31.4694380 Eh     change       -0.1026379E-10 Eh
 * total energy  :   -31.4754805 Eh     change       -0.6042451E-02 Eh
 * total energy  :   -31.4787749 Eh     change       -0.3294429E-02 Eh
 * total energy  :   -31.4807115 Eh     change       -0.1936584E-02 Eh
 * total energy  :   -31.4832645 Eh     change       -0.2553031E-02 Eh
 * total energy  :   -31.4888801 Eh     change       -0.5615568E-02 Eh
 * total energy  :   -31.4953552 Eh     change       -0.6475094E-02 Eh
 * total energy  :   -31.4988727 Eh     change       -0.3517496E-02 Eh
 * total energy  :   -31.5010018 Eh     change       -0.2129120E-02 Eh
 * total energy  :   -31.5031292 Eh     change       -0.2127388E-02 Eh
 * total energy  :   -31.5117810 Eh     change       -0.3328438E-04 Eh
 * total energy  :   -31.5117943 Eh     change       -0.1338085E-04 Eh
 * total energy  :   -31.5118140 Eh     change       -0.1963418E-04 Eh
 * total energy  :   -31.5118244 Eh     change       -0.1045452E-04 Eh
 * total energy  :   -31.5118342 Eh     change       -0.9751646E-05 Eh
 * total energy  :   -31.5118542 Eh     change       -0.2000669E-04 Eh
 * total energy  :   -31.5118744 Eh     change       -0.2022265E-04 Eh
 * total energy  :   -31.5118847 Eh     change       -0.1028749E-04 Eh
 * total energy  :   -31.5118879 Eh     change       -0.3230376E-05 Eh
   *** GEOMETRY OPTIMIZATION CONVERGED AFTER 61 ITERATIONS ***

 final structure:
================
21
 xtb: 6.5.1 (579679a)
C           -2.96828986664049        0.50283929380177        0.33409411707855
C           -1.50149675760051        0.23819623284340        0.16762443771902
F           -4.47284072686642       -0.82600647004514       -1.98014274296252
C           -0.90654304648854       -0.88412122821475        0.74252354135016
C            0.44472575600624       -1.14399490707312        0.56291327621220
C            1.23773352698997       -0.29169640684290       -0.20179857143910
C            2.71924814472527       -0.55228964860763       -0.37235073168023
N            3.51288364319941        0.19173320971337        0.61140040685614
C            0.64669405031221        0.83452239781182       -0.77204206334948
C           -0.70334895613458        1.09495031823379       -0.59067674934913
H           -3.52374361094667        0.05165536409973       -0.50465666071306
H           -3.34058117953813        0.06586336828638        1.26113482714394
H           -3.17279133297232        1.57417637264769        0.33955679016284
H           -1.50191593663545       -1.56240869438681        1.34608185245192
H            0.88718482290819       -2.02178506710153        1.02235821924659
H            3.04782243555908       -0.24812480959333       -1.37256535935151
H            2.93719998796879       -1.61870521794642       -0.24856294993844
H            3.22899836463778       -0.08389478483669        1.54247224517916
H            3.31778127273469        1.18031929642587        0.51582484658000
H            1.25001025328503        1.51634358987113       -1.36289899992155
H           -1.13873084469303        1.98242879091225       -1.04029073116803

          :  Hamiltonian                  GFN1-xTB          :
         :: total energy             -31.511887931448 Eh    ::
         :: gradient norm              0.000626846406 Eh/a0 ::
         :: HOMO-LUMO gap              2.418566556748 eV    ::
         :: SCC energy               -31.914479598968 Eh    ::
         :: -> Gsolv                  -0.124258559990 Eh    ::
         :: repulsion energy           0.412304970150 Eh    ::

    * Orbital Energies and Occupations

         #    Occupation            Energy/Eh            Energy/eV
      -------------------------------------------------------------
         1        2.0000           -0.7389674             -20.1083
       ...           ...                  ...                  ...
        16        2.0000           -0.5039151             -13.7122
        17        2.0000           -0.4962562             -13.5038
        18        2.0000           -0.4859062             -13.2222
        19        2.0000           -0.4722253             -12.8499
        20        2.0000           -0.4705402             -12.8040
        21        2.0000           -0.4533216             -12.3355
        22        2.0000           -0.4451444             -12.1130
        23        2.0000           -0.4198256             -11.4240
        24        2.0000           -0.4077980             -11.0967
        25        2.0000           -0.3939157             -10.7190
        26        2.0000           -0.3310656              -9.0088
        27        2.0000           -0.3310630              -9.0087
        28        2.0000           -0.3306421              -8.9972 (HOMO)
        29                         -0.2417614              -6.5787 (LUMO)
        30                         -0.2389468              -6.5021
        31                         -0.1191303              -3.2417
        32                         -0.1025491              -2.7905
        33                         -0.0968694              -2.6360
        34                         -0.0954151              -2.5964
        35                         -0.0869583              -2.3663
        36                         -0.0813603              -2.2139
        37                         -0.0734490              -1.9986
        38                         -0.0511538              -1.3920
        39                         -0.0421274              -1.1463
       ...                                ...                  ...
        62                          0.6644269              18.0800
      -------------------------------------------------------------
                  HL-Gap            0.0888807 Eh            2.4186 eV

Wiberg/Mayer (AO) data.
largest (>0.10) Wiberg bond orders for each atom

     #   Z sym  total        # sym  WBO       # sym  WBO       # sym  WBO
 ---------------------------------------------------------------------------
     1   6 C    3.989 --     2 C    1.031    12 H    0.984    13 H    0.983
                            11 H    0.930
     2   6 C    3.987 --     4 C    1.407    10 C    1.403     1 C    1.031
                             6 C    0.105
     3   9 F    0.096
     4   6 C    3.995 --     5 C    1.450     2 C    1.407    14 H    0.973
                             9 C    0.107
     5   6 C    3.996 --     4 C    1.450     6 C    1.414    15 H    0.973
                            10 C    0.107
     6   6 C    3.987 --     5 C    1.414     9 C    1.409     7 C    0.997
                             2 C    0.105
     7   6 C    3.977 --     6 C    0.997     8 N    0.984    17 H    0.980
                            16 H    0.979
     8   7 N    2.952 --     7 C    0.984    19 H    0.951    18 H    0.951
     9   6 C    3.996 --    10 C    1.455     6 C    1.409    20 H    0.973
                             4 C    0.107
    10   6 C    3.995 --     9 C    1.455     2 C    1.403    21 H    0.974
                             5 C    0.107
    11   1 H    1.039 --     1 C    0.930
    12   1 H    1.006 --     1 C    0.984
    13   1 H    1.007 --     1 C    0.983
    14   1 H    1.003 --     4 C    0.973
    15   1 H    1.003 --     5 C    0.973
    16   1 H    1.012 --     7 C    0.979
    17   1 H    1.012 --     7 C    0.980
    18   1 H    0.966 --     8 N    0.951
    19   1 H    0.967 --     8 N    0.951
    20   1 H    1.002 --     9 C    0.973
    21   1 H    1.003 --    10 C    0.974
 ---------------------------------------------------------------------------

           -------------------------------------------------
          | TOTAL ENERGY              -31.511887931448 Eh   |
          | GRADIENT NORM               0.000626846406 Eh/α |
          | HOMO-LUMO GAP               2.418566556748 eV   |
           -------------------------------------------------

 * finished run on 2023/06/20 at 15:13:51.182
