                         Program Version 5.0.1 -  RELEASE  -
|  1> # ORCA input file
|  2> ! SP r2SCAN-3c CPCM
|  3>
|  4> %maxcore 1875.0
|  5> %pal nprocs 4 end
|  6> %cpcm smd true SMDsolvent "DMSO" end
|  7>
|  8> *xyz 1 1
|  9> C      -4.930794   -2.367908   -1.593579
| 10> O      -4.316464   -1.256208   -0.919724
| 11> C      -3.030116   -1.347017   -0.666183
| 12> O      -2.333325   -2.284794   -0.962166
| 13> C      -2.525085   -0.134893    0.086720
| 14> C      -3.241030    0.408900    1.109929
| 15> O      -4.443802   -0.025064    1.463546
| 16> C      -2.685524    1.503872    1.901685
| 17> O      -3.265243    2.053918    2.808272
| 18> N      -1.400503    1.858550    1.518281
| 19> C      -0.684480    1.309390    0.524560
| 20> C       0.693226    1.908754    0.269440
| 21> C       0.642336    2.860223   -0.932809
| 22> C       1.228457    2.673206    1.490567
| 23> N       1.621358    0.814094    0.010648
| 24> C       1.620017   -0.234916    0.876164
| 25> O       0.730812   -0.404637    1.696080
| 26> C       2.752060   -1.152990    0.684565
| 27> N       3.018277   -2.251283    1.321664
| 28> N       4.174079   -2.736399    0.799903
| 29> C       4.548090   -1.905802   -0.126268
| 30> C       5.742023   -1.985702   -0.993674
| 31> O       3.689405   -0.882025   -0.249170
| 32> N      -1.252582    0.364301   -0.213327
| 33> C      -0.588617   -0.226338   -1.383336
| 34> H      -4.403160   -2.568558   -2.527445
| 35> H      -4.894703   -3.251369   -0.953335
| 36> H      -5.959894   -2.074350   -1.787519
| 37> H      -4.795097    0.503051    2.203248
| 38> H      -0.997852    2.607288    2.065271
| 39> H       0.333779    2.354933   -1.844177
| 40> H       1.633095    3.283556   -1.086218
| 41> H      -0.057463    3.667649   -0.723997
| 42> H       1.166231    2.058866    2.387455
| 43> H       2.273953    2.911869    1.303880
| 44> H       0.689860    3.607053    1.638070
| 45> H       2.441577    1.015152   -0.537396
| 46> H       6.413719   -2.760431   -0.629182
| 47> H       5.439572   -2.219043   -2.015466
| 48> H       6.253105   -1.023768   -1.006686
| 49> H       0.229242    0.401614   -1.706799
| 50> H      -0.210740   -1.212726   -1.116233
| 51> H      -1.317801   -0.312135   -2.185259
| 52> **                         ****END OF INPUT****

CARTESIAN COORDINATES (ANGSTROEM)
---------------------------------
  C     -4.930794   -2.367908   -1.593579
  O     -4.316464   -1.256208   -0.919724
  C     -3.030116   -1.347017   -0.666183
  O     -2.333325   -2.284794   -0.962166
  C     -2.525085   -0.134893    0.086720
  C     -3.241030    0.408900    1.109929
  O     -4.443802   -0.025064    1.463546
  C     -2.685524    1.503872    1.901685
  O     -3.265243    2.053918    2.808272
  N     -1.400503    1.858550    1.518281
  C     -0.684480    1.309390    0.524560
  C      0.693226    1.908754    0.269440
  C      0.642336    2.860223   -0.932809
  C      1.228457    2.673206    1.490567
  N      1.621358    0.814094    0.010648
  C      1.620017   -0.234916    0.876164
  O      0.730812   -0.404637    1.696080
  C      2.752060   -1.152990    0.684565
  N      3.018277   -2.251283    1.321664
  N      4.174079   -2.736399    0.799903
  C      4.548090   -1.905802   -0.126268
  C      5.742023   -1.985702   -0.993674
  O      3.689405   -0.882025   -0.249170
  N     -1.252582    0.364301   -0.213327
  C     -0.588617   -0.226338   -1.383336
  H     -4.403160   -2.568558   -2.527445
  H     -4.894703   -3.251369   -0.953335
  H     -5.959894   -2.074350   -1.787519
  H     -4.795097    0.503051    2.203248
  H     -0.997852    2.607288    2.065271
  H      0.333779    2.354933   -1.844177
  H      1.633095    3.283556   -1.086218
  H     -0.057463    3.667649   -0.723997
  H      1.166231    2.058866    2.387455
  H      2.273953    2.911869    1.303880
  H      0.689860    3.607053    1.638070
  H      2.441577    1.015152   -0.537396
  H      6.413719   -2.760431   -0.629182
  H      5.439572   -2.219043   -2.015466
  H      6.253105   -1.023768   -1.006686
  H      0.229242    0.401614   -1.706799
  H     -0.210740   -1.212726   -1.116233
  H     -1.317801   -0.312135   -2.185259

 Total Charge           Charge          ....    1
 Multiplicity           Mult            ....    1
 Number of Electrons    NEL             ....  184
 Basis Dimension        Dim             ....  620

ORBITAL ENERGIES
----------------

  NO   OCC          E(Eh)            E(eV)
   0   2.0000     -19.073745      -519.0230
   1   2.0000     -19.024977      -517.6959
   2   2.0000     -19.022711      -517.6343
   3   2.0000     -18.971016      -516.2276
   4   2.0000     -18.962763      -516.0030
   5   2.0000     -18.958159      -515.8777
   6   2.0000     -14.291550      -388.8928
   7   2.0000     -14.264714      -388.1626
   8   2.0000     -14.218654      -386.9092
   9   2.0000     -14.214461      -386.7952
  10   2.0000     -14.204041      -386.5116
  11   2.0000     -10.192880      -277.3624
  12   2.0000     -10.192716      -277.3579
  13   2.0000     -10.183984      -277.1203
  14   2.0000     -10.174361      -276.8584
  15   2.0000     -10.154782      -276.3257
  16   2.0000     -10.153696      -276.2961
  17   2.0000     -10.152441      -276.2620
  18   2.0000     -10.137239      -275.8483
  19   2.0000     -10.136257      -275.8216
  20   2.0000     -10.086866      -274.4776
  21   2.0000     -10.082044      -274.3464
  22   2.0000     -10.048891      -273.4442
  23   2.0000     -10.042776      -273.2778
  24   2.0000     -10.040383      -273.2127
  25   2.0000      -1.164000       -31.6741
  26   2.0000      -1.104712       -30.0607
  27   2.0000      -1.088246       -29.6127
  28   2.0000      -1.059406       -28.8279
  29   2.0000      -1.048724       -28.5372
  30   2.0000      -1.029987       -28.0274
  31   2.0000      -1.011313       -27.5192
  32   2.0000      -0.984902       -26.8006
  33   2.0000      -0.951266       -25.8853
  34   2.0000      -0.935154       -25.4468
  35   2.0000      -0.842295       -22.9200
  36   2.0000      -0.821792       -22.3621
  37   2.0000      -0.784309       -21.3421
  38   2.0000      -0.740646       -20.1540
  39   2.0000      -0.726612       -19.7721
  40   2.0000      -0.719744       -19.5852
  41   2.0000      -0.694800       -18.9065
  42   2.0000      -0.681686       -18.5496
  43   2.0000      -0.675528       -18.3821
  44   2.0000      -0.666580       -18.1386
  45   2.0000      -0.612819       -16.6757
  46   2.0000      -0.609273       -16.5792
  47   2.0000      -0.604620       -16.4525
  48   2.0000      -0.589887       -16.0516
  49   2.0000      -0.574956       -15.6453
  50   2.0000      -0.553146       -15.0519
  51   2.0000      -0.545870       -14.8539
  52   2.0000      -0.533870       -14.5274
  53   2.0000      -0.518619       -14.1123
  54   2.0000      -0.503458       -13.6998
  55   2.0000      -0.499616       -13.5952
  56   2.0000      -0.481800       -13.1104
  57   2.0000      -0.472992       -12.8708
  58   2.0000      -0.468094       -12.7375
  59   2.0000      -0.465261       -12.6604
  60   2.0000      -0.460421       -12.5287
  61   2.0000      -0.448719       -12.2103
  62   2.0000      -0.447732       -12.1834
  63   2.0000      -0.438389       -11.9292
  64   2.0000      -0.433584       -11.7984
  65   2.0000      -0.423170       -11.5150
  66   2.0000      -0.412165       -11.2156
  67   2.0000      -0.409118       -11.1327
  68   2.0000      -0.405230       -11.0269
  69   2.0000      -0.397910       -10.8277
  70   2.0000      -0.395505       -10.7622
  71   2.0000      -0.385574       -10.4920
  72   2.0000      -0.383421       -10.4334
  73   2.0000      -0.378279       -10.2935
  74   2.0000      -0.374902       -10.2016
  75   2.0000      -0.374016       -10.1775
  76   2.0000      -0.370751       -10.0886
  77   2.0000      -0.364940        -9.9305
  78   2.0000      -0.358812        -9.7638
  79   2.0000      -0.352296        -9.5865
  80   2.0000      -0.343435        -9.3454
  81   2.0000      -0.336165        -9.1475
  82   2.0000      -0.322499        -8.7756
  83   2.0000      -0.315857        -8.5949
  84   2.0000      -0.294815        -8.0223
  85   2.0000      -0.289748        -7.8844
  86   2.0000      -0.279926        -7.6172
  87   2.0000      -0.273010        -7.4290
  88   2.0000      -0.271090        -7.3767
  89   2.0000      -0.268015        -7.2931
  90   2.0000      -0.261962        -7.1283
  91   2.0000      -0.240907        -6.5554
  92   0.0000      -0.114128        -3.1056
  93   0.0000      -0.101817        -2.7706
  94   0.0000      -0.092584        -2.5193
  95   0.0000      -0.030307        -0.8247
  96   0.0000      -0.027629        -0.7518

MULLIKEN ATOMIC CHARGES
-----------------------
   0 C :   -0.314644
   1 O :   -0.147972
   2 C :    0.193947
   3 O :   -0.402161
   4 C :    0.111293
   5 C :    0.145304
   6 O :   -0.357913
   7 C :    0.128237
   8 O :   -0.409954
   9 N :    0.069749
  10 C :   -0.045658
  11 C :   -0.069008
  12 C :   -0.436086
  13 C :   -0.599236
  14 N :   -0.190327
  15 C :   -0.081100
  16 O :   -0.405051
  17 C :    0.400750
  18 N :   -0.144448
  19 N :   -0.283739
  20 C :    0.408622
  21 C :   -0.628634
  22 O :   -0.054268
  23 N :    0.445847
  24 C :   -0.424093
  25 H :    0.183564
  26 H :    0.185146
  27 H :    0.184801
  28 H :    0.374731
  29 H :    0.340443
  30 H :    0.189486
  31 H :    0.204001
  32 H :    0.211884
  33 H :    0.213985
  34 H :    0.211200
  35 H :    0.198466
  36 H :    0.331187
  37 H :    0.206793
  38 H :    0.207658
  39 H :    0.200196
  40 H :    0.216262
  41 H :    0.229868
  42 H :    0.200873
Sum of atomic charges:    1.0000000

LOEWDIN ATOMIC CHARGES
----------------------
   0 C :   -0.025880
   1 O :   -0.549479
   2 C :    0.397432
   3 O :   -0.406432
   4 C :    0.257861
   5 C :    0.293389
   6 O :   -0.409266
   7 C :    0.388497
   8 O :   -0.407537
   9 N :   -0.402146
  10 C :    0.445040
  11 C :    0.110300
  12 C :   -0.326143
  13 C :   -0.328483
  14 N :   -0.593735
  15 C :    0.391374
  16 O :   -0.427813
  17 C :    0.412292
  18 N :   -0.323023
  19 N :   -0.350710
  20 C :    0.386488
  21 C :   -0.315085
  22 O :   -0.386248
  23 N :   -0.631442
  24 C :   -0.036264
  25 H :    0.188221
  26 H :    0.187466
  27 H :    0.191627
  28 H :    0.318234
  29 H :    0.321901
  30 H :    0.176711
  31 H :    0.184821
  32 H :    0.185033
  33 H :    0.185495
  34 H :    0.189700
  35 H :    0.177696
  36 H :    0.306908
  37 H :    0.192851
  38 H :    0.195434
  39 H :    0.192046
  40 H :    0.214110
  41 H :    0.216178
  42 H :    0.212579

  Mayer bond orders larger than 0.100000
B(  0-C ,  1-O ) :   0.8269 B(  0-C , 25-H ) :   0.9519 B(  0-C , 26-H ) :   0.9484
B(  0-C , 27-H ) :   0.9591 B(  1-O ,  2-C ) :   1.1534 B(  2-C ,  3-O ) :   1.8294
B(  2-C ,  4-C ) :   0.9020 B(  4-C ,  5-C ) :   1.4989 B(  4-C ,  6-O ) :   0.1357
B(  4-C , 23-N ) :   1.1484 B(  5-C ,  6-O ) :   0.9802 B(  5-C ,  7-C ) :   0.9353
B(  6-O , 28-H ) :   0.8221 B(  7-C ,  8-O ) :   2.0279 B(  7-C ,  9-N ) :   0.9755
B(  9-N , 10-C ) :   1.2789 B(  9-N , 29-H ) :   0.8744 B( 10-C , 11-C ) :   0.7355
B( 10-C , 16-O ) :   0.1857 B( 10-C , 23-N ) :   1.4472 B( 11-C , 12-C ) :   1.0168
B( 11-C , 13-C ) :   0.9137 B( 11-C , 14-N ) :   0.7299 B( 11-C , 24-C ) :   0.1161
B( 12-C , 30-H ) :   0.9138 B( 12-C , 31-H ) :   0.9546 B( 12-C , 32-H ) :   0.9588
B( 13-C , 33-H ) :   0.9488 B( 13-C , 34-H ) :   0.9530 B( 13-C , 35-H ) :   0.9549
B( 14-N , 15-C ) :   1.1540 B( 14-N , 36-H ) :   0.8967 B( 15-C , 16-O ) :   1.7652
B( 15-C , 17-C ) :   0.8240 B( 15-C , 19-N ) :   0.1301 B( 17-C , 18-N ) :   1.7410
B( 17-C , 20-C ) :   0.1410 B( 17-C , 22-O ) :   1.0900 B( 18-N , 19-N ) :   1.2580
B( 19-N , 20-C ) :   1.5888 B( 20-C , 21-C ) :   0.8216 B( 20-C , 22-O ) :   1.0683
B( 21-C , 37-H ) :   0.9861 B( 21-C , 38-H ) :   0.9323 B( 21-C , 39-H ) :   0.9540
B( 23-N , 24-C ) :   0.8495 B( 24-C , 40-H ) :   0.9085 B( 24-C , 41-H ) :   0.9125
B( 24-C , 42-H ) :   0.9206

Dispersion correction           -0.020224398
FINAL SINGLE POINT ENERGY     -1269.089996576258

DIPOLE MOMENT
-------------
                                X             Y             Z
Electronic contribution:     -6.84183      -4.61211      10.04565
Nuclear contribution   :      7.43187       8.88552     -13.51396
                        -----------------------------------------
Total Dipole Moment    :      0.59004       4.27341      -3.46831
                        -----------------------------------------
Magnitude (a.u.)       :      5.53528
Magnitude (Debye)      :     14.06957

Rotational constants in cm-1:     0.011702     0.004579     0.003824
Rotational constants in MHz :   350.825304   137.276244   114.636517

                             ****ORCA TERMINATED NORMALLY****
TOTAL RUN TIME: 0 days 0 hours 2 minutes 49 seconds 641 msec
