   * xtb version 6.5.1 (579679a) compiled by 'ehlert@majestix' on 2022-07-11
          program call               : /lustre/hpc/kemi/ree/PhD/git/ReactivityQM/dep/xtb-6.5.1/bin/xtb --gfn 1 /lustre/hpc/kemi/ree/PhD/git/ReactivityQM/calculations/R02/reac01prodN05/conf19/R02_reac01prodN05_conf19_gfn1.xyz --opt --vfukui --chrg 1 --uhf 0 --alpb DMSO

   ID    Z sym.   atoms
    1    6 C      1, 3, 5, 6, 8, 11-14, 16, 18, 21, 22, 25
    2    8 O      2, 4, 7, 9, 17, 23
    3    7 N      10, 15, 19, 20, 24
    4    1 H      26-43

      * Solvation model:               ALPB
        Solvent                        DMSO
        Solvent mass                       7.8130E+01 g/mol
          :  Hamiltonian                  GFN1-xTB          :
 * total energy  :   -83.1432480 Eh     change       -0.1986677E-10 Eh
 * total energy  :   -83.1623857 Eh     change       -0.1913772E-01 Eh
 * total energy  :   -83.1698025 Eh     change       -0.7416852E-02 Eh
 * total energy  :   -83.1721735 Eh     change       -0.2370986E-02 Eh
 * total energy  :   -83.1740020 Eh     change       -0.1828517E-02 Eh
 * total energy  :   -83.1750875 Eh     change       -0.1085426E-02 Eh
 * total energy  :   -83.1758150 Eh     change       -0.7275861E-03 Eh
 * total energy  :   -83.1762298 Eh     change       -0.4147764E-03 Eh
 * total energy  :   -83.1764961 Eh     change       -0.2662687E-03 Eh
 * total energy  :   -83.1767119 Eh     change       -0.2158470E-03 Eh
 * total energy  :   -83.1785608 Eh     change       -0.1033488E-03 Eh
 * total energy  :   -83.1785742 Eh     change       -0.1335862E-04 Eh
 * total energy  :   -83.1785199 Eh     change        0.5428011E-04 Eh
 * total energy  :   -83.1786071 Eh     change       -0.8721279E-04 Eh
 * total energy  :   -83.1786165 Eh     change       -0.9343750E-05 Eh
 * total energy  :   -83.1786484 Eh     change       -0.3195951E-04 Eh
 * total energy  :   -83.1786441 Eh     change        0.4348682E-05 Eh
 * total energy  :   -83.1786696 Eh     change       -0.2556764E-04 Eh
 * total energy  :   -83.1786739 Eh     change       -0.4216189E-05 Eh
   *** GEOMETRY OPTIMIZATION CONVERGED AFTER 66 ITERATIONS ***

 final structure:
================
43
 xtb: 6.5.1 (579679a)
C           -4.93079442383016       -2.36790808151505       -1.59357919999459
O           -4.31646408177933       -1.25620791699722       -0.91972413749046
C           -3.03011560049829       -1.34701710548412       -0.66618312125258
O           -2.33332454023695       -2.28479386576005       -0.96216605194715
C           -2.52508545427096       -0.13489311939254        0.08672036390722
C           -3.24103019825401        0.40890009337323        1.10992861681782
O           -4.44380153075412       -0.02506406042655        1.46354648540209
C           -2.68552374935020        1.50387154194071        1.90168501731976
O           -3.26524256753369        2.05391834481135        2.80827170004301
N           -1.40050293448753        1.85854974333280        1.51828093370670
C           -0.68448036998724        1.30938977005919        0.52455971212566
C            0.69322627103440        1.90875408217340        0.26944035039136
C            0.64233616376656        2.86022325410283       -0.93280912432968
C            1.22845725566427        2.67320637983569        1.49056706619041
N            1.62135767660185        0.81409418972050        0.01064795564973
C            1.62001667955575       -0.23491608015964        0.87616365055300
O            0.73081169712308       -0.40463719594527        1.69608047988523
C            2.75205982189239       -1.15298972784879        0.68456510143866
N            3.01827741594723       -2.25128341126710        1.32166356030496
N            4.17407948765183       -2.73639889542352        0.79990288030443
C            4.54809045514718       -1.90580175142302       -0.12626802777364
C            5.74202321925144       -1.98570159832472       -0.99367370842728
O            3.68940488508235       -0.88202477965999       -0.24917015296158
N           -1.25258230818325        0.36430133254293       -0.21332665719306
C           -0.58861705929287       -0.22633788837445       -1.38333569923923
H           -4.40315961881418       -2.56855847701258       -2.52744547862430
H           -4.89470268387323       -3.25136914814438       -0.95333518421860
H           -5.95989373543976       -2.07434992949592       -1.78751875204020
H           -4.79509687966647        0.50305091672443        2.20324814473825
H           -0.99785197456730        2.60728824243188        2.06527145146054
H            0.33377861309682        2.35493256509055       -1.84417659976913
H            1.63309526880316        3.28355632541253       -1.08621848930683
H           -0.05746277237084        3.66764949656895       -0.72399700961270
H            1.16623077871600        2.05886639046091        2.38745517162823
H            2.27395260397304        2.91186871198660        1.30387994313747
H            0.68986012201546        3.60705295646560        1.63807048367334
H            2.44157671018234        1.01515170150094       -0.53739572391336
H            6.41371874708456       -2.76043055470425       -0.62918174287634
H            5.43957193905571       -2.21904344957373       -2.01546583366176
H            6.25310520908732       -1.02376822360880       -1.00668636003829
H            0.22924172497449        0.40161394373371       -1.70679911813658
H           -0.21074048999513       -1.21272635456456       -1.11623269110811
H           -1.31780077252095       -0.31213536716121       -2.18525920476483

          :  Hamiltonian                  GFN1-xTB          :
         :: total energy             -83.178673863262 Eh    ::
         :: gradient norm              0.000596561855 Eh/a0 ::
         :: HOMO-LUMO gap              2.798036474674 eV    ::
         :: SCC energy               -83.980952726548 Eh    ::
         :: -> Gsolv                  -0.118856122065 Eh    ::
         :: repulsion energy           0.830562368475 Eh    ::

    * Orbital Energies and Occupations

         #    Occupation            Energy/Eh            Energy/eV
      -------------------------------------------------------------
         1        2.0000           -0.8912225             -24.2514
       ...           ...                  ...                  ...
        55        2.0000           -0.5358372             -14.5809
        56        2.0000           -0.5340234             -14.5315
        57        2.0000           -0.5298193             -14.4171
        58        2.0000           -0.5218799             -14.2011
        59        2.0000           -0.5198449             -14.1457
        60        2.0000           -0.5175538             -14.0834
        61        2.0000           -0.5000594             -13.6073
        62        2.0000           -0.4976340             -13.5413
        63        2.0000           -0.4889125             -13.3040
        64        2.0000           -0.4814808             -13.1018
        65        2.0000           -0.4761092             -12.9556
        66        2.0000           -0.4652873             -12.6611
        67        2.0000           -0.4634541             -12.6112 (HOMO)
        68                         -0.3606282              -9.8132 (LUMO)
        69                         -0.3527255              -9.5981
        70                         -0.3320265              -9.0349
        71                         -0.2863518              -7.7920
        72                         -0.2670412              -7.2666
        73                         -0.2186423              -5.9496
        74                         -0.2168349              -5.9004
        75                         -0.1648528              -4.4859
        76                         -0.1575440              -4.2870
        77                         -0.1518096              -4.1309
        78                         -0.1495837              -4.0704
       ...                                ...                  ...
       136                          0.7090517              19.2943
      -------------------------------------------------------------
                  HL-Gap            0.1028259 Eh            2.7980 eV

Wiberg/Mayer (AO) data.
largest (>0.10) Wiberg bond orders for each atom

     #   Z sym  total        # sym  WBO       # sym  WBO       # sym  WBO
 ---------------------------------------------------------------------------
     1   6 C    3.848 --    28 H    0.984    26 H    0.979    27 H    0.978
                             2 O    0.874
     2   8 O    2.236 --     3 C    1.166     1 C    0.874     4 O    0.147
     3   6 C    3.864 --     4 O    1.668     2 O    1.166     5 C    0.958
     4   8 O    1.958 --     3 C    1.668     2 O    0.147
     5   6 C    3.923 --     6 C    1.540    24 N    1.080     3 C    0.958
     6   6 C    3.927 --     5 C    1.540     7 O    1.137     8 C    1.041
     7   8 O    2.106 --     6 C    1.137    29 H    0.792
     8   6 C    3.903 --     9 O    1.652    10 N    1.082     6 C    1.041
     9   8 O    1.961 --     8 C    1.652    10 N    0.119
    10   7 N    3.492 --    11 C    1.271     8 C    1.082    30 H    0.863
                             9 O    0.119
    11   6 C    3.898 --    24 N    1.390    10 N    1.271    12 C    0.975
    12   6 C    3.933 --    14 C    0.986    11 C    0.975    13 C    0.973
                            15 N    0.941
    13   6 C    3.980 --    33 H    0.982    32 H    0.976    31 H    0.976
                            12 C    0.973
    14   6 C    3.983 --    12 C    0.986    34 H    0.979    36 H    0.978
                            35 H    0.977
    15   7 N    3.318 --    16 C    1.218    12 C    0.941    37 H    0.881
                            17 O    0.160
    16   6 C    3.909 --    17 O    1.582    15 N    1.218    18 C    1.014
    17   8 O    1.916 --    16 C    1.582    15 N    0.160
    18   6 C    3.879 --    19 N    1.606    23 O    1.046    16 C    1.014
    19   7 N    3.008 --    18 C    1.606    20 N    1.214
    20   7 N    2.983 --    21 C    1.594    19 N    1.214
    21   6 C    3.863 --    20 N    1.594    23 O    1.077    22 C    1.034
    22   6 C    3.984 --    21 C    1.034    38 H    0.981    40 H    0.966
                            39 H    0.956
    23   8 O    2.320 --    21 C    1.077    18 C    1.046
    24   7 N    3.582 --    11 C    1.390     5 C    1.080    25 C    0.908
    25   6 C    3.892 --    43 H    0.975    41 H    0.973    42 H    0.965
                            24 N    0.908
    26   1 H    1.003 --     1 C    0.979
    27   1 H    1.002 --     1 C    0.978
    28   1 H    1.007 --     1 C    0.984
    29   1 H    0.823 --     7 O    0.792
    30   1 H    0.916 --    10 N    0.863
    31   1 H    0.997 --    13 C    0.976
    32   1 H    0.991 --    13 C    0.976
    33   1 H    0.996 --    13 C    0.982
    34   1 H    0.997 --    14 C    0.979
    35   1 H    0.995 --    14 C    0.977
    36   1 H    0.994 --    14 C    0.978
    37   1 H    0.921 --    15 N    0.881
    38   1 H    0.997 --    22 C    0.981
    39   1 H    0.995 --    22 C    0.956
    40   1 H    0.995 --    22 C    0.966
    41   1 H    1.006 --    25 C    0.973
    42   1 H    1.004 --    25 C    0.965
    43   1 H    0.996 --    25 C    0.975
 ---------------------------------------------------------------------------

           -------------------------------------------------
          | TOTAL ENERGY              -83.178673863262 Eh   |
          | GRADIENT NORM               0.000596561855 Eh/α |
          | HOMO-LUMO GAP               2.798036474674 eV   |
           -------------------------------------------------

 * finished run on 2023/06/20 at 15:23:49.023
