   * xtb version 6.5.1 (579679a) compiled by 'ehlert@majestix' on 2022-07-11
          program call               : /lustre/hpc/kemi/ree/PhD/git/ReactivityQM/dep/xtb-6.5.1/bin/xtb --gfn 1 /lustre/hpc/kemi/ree/PhD/git/ReactivityQM/calculations/R02oxygendeprot/reac01prodN15/conf02/R02oxygendeprot_reac01prodN15_conf02_gfn1.xyz --opt --vfukui --chrg 0 --uhf 0 --alpb DMSO

   ID    Z sym.   atoms
    1    6 C      1, 3, 5, 7-10, 12, 14, 17, 18, 21, 23, 24
    2    8 O      2, 4, 13, 19, 22, 25
    3    7 N      6, 11, 15, 16, 20
    4    1 H      26-42

      * Solvation model:               ALPB
        Solvent                        DMSO
        Solvent mass                       7.8130E+01 g/mol
          :  Hamiltonian                  GFN1-xTB          :
 * total energy  :   -82.8979196 Eh     change       -0.2275158E-09 Eh
 * total energy  :   -82.9168760 Eh     change       -0.1895640E-01 Eh
 * total energy  :   -82.9344809 Eh     change       -0.1760491E-01 Eh
 * total energy  :   -82.9514534 Eh     change       -0.1697249E-01 Eh
 * total energy  :   -82.9617534 Eh     change       -0.1030004E-01 Eh
 * total energy  :   -82.9712169 Eh     change       -0.9463499E-02 Eh
 * total energy  :   -82.9744748 Eh     change       -0.3257884E-02 Eh
 * total energy  :   -82.9835600 Eh     change       -0.9085181E-02 Eh
 * total energy  :   -82.9899841 Eh     change       -0.6424131E-02 Eh
 * total energy  :   -82.9987612 Eh     change       -0.8777098E-02 Eh
 * total energy  :   -83.0112079 Eh     change       -0.2964018E-04 Eh
 * total energy  :   -83.0112268 Eh     change       -0.1896199E-04 Eh
 * total energy  :   -83.0112393 Eh     change       -0.1243802E-04 Eh
 * total energy  :   -83.0112552 Eh     change       -0.1597505E-04 Eh
 * total energy  :   -83.0112682 Eh     change       -0.1292782E-04 Eh
 * total energy  :   -83.0112807 Eh     change       -0.1252780E-04 Eh
 * total energy  :   -83.0112893 Eh     change       -0.8569313E-05 Eh
 * total energy  :   -83.0112995 Eh     change       -0.1023834E-04 Eh
 * total energy  :   -83.0113029 Eh     change       -0.3436966E-05 Eh
   *** GEOMETRY OPTIMIZATION CONVERGED AFTER 48 ITERATIONS ***

 final structure:
================
42
 xtb: 6.5.1 (579679a)
C            5.59651014528991       -1.42395881701519       -0.56146628074471
O            4.26020935100749       -0.93923966495776       -0.37409790035859
C            4.10771894351795        0.08787357308894        0.44561384558589
O            5.00672831987740        0.62657595461442        1.04036180287628
C            2.65565577610926        0.53247241314394        0.50289083384845
N            1.72450414674569       -0.46294961134785        0.12761243807340
C            0.52939982984639       -0.11790546417090       -0.14689653148140
C           -0.49124075647482       -1.17112315255281       -0.52995133839440
C           -0.12706471708247       -2.52360591919968        0.08859629418813
C           -0.53279311501487       -1.26353655212181       -2.05857106339084
N           -1.81100201152135       -0.73828530893948       -0.07238218005719
C           -2.05208330726225       -0.46904833321100        1.23173889885411
O           -1.19881871545859       -0.45215054544028        2.10168979498513
C           -3.47480857498094       -0.15264937864739        1.50148295801139
N           -4.01544227461870        0.17068798206811        2.63493369725055
N           -5.33869144689878        0.38408228813499        2.39241685661374
C           -5.52509455937218        0.17842792535044        1.12550338989782
C           -6.78780409596350        0.28820065178110        0.36409907961230
O           -4.38531678678154       -0.16505607757481        0.50375827382889
N            0.11090576930872        1.19191100520931       -0.25360093971156
C            0.96668190981664        2.26476262869882       -0.25714449451761
O            0.64466789827985        3.33783640109161       -0.72279125777143
C            2.32103916419788        1.98776964870471        0.32588352586986
C            3.35822396173921        3.06123158671945        0.09911077556584
O            2.30364672525708        1.34998404110112        1.57711559691031
H            6.20591545405911       -0.65000225427337       -1.03297027514328
H            5.52048754112368       -2.29474831858370       -1.20891072524414
H            6.03418263200455       -1.69794006540363        0.40104612489398
H           -0.08516007407397       -2.44419609069889        1.17425347500643
H            0.84865551121640       -2.83540390977083       -0.28030969319660
H           -0.87104068838942       -3.26648963557269       -0.19019450089384
H           -1.26566492009399       -2.00784280051976       -2.36310372131476
H           -0.80553157705227       -0.30135325224860       -2.48798664194329
H            0.44592163980450       -1.55608661892727       -2.43553806874591
H           -2.58328893676681       -0.81692333302688       -0.71048396855953
H           -7.60245939494608        0.54275033617500        1.03818269628677
H           -7.00403406588807       -0.65586982324920       -0.13544003462127
H           -6.69221487453934        1.05809632340065       -0.40166124983702
H           -0.80411973303823        1.35689104181106       -0.64564167469301
H            4.23602515267369        2.87535116676535        0.71311974439511
H            3.64443943460424        3.08214597214322       -0.95074104623684
H            2.93215031971684        4.02931398746011        0.36201648431931

          :  Hamiltonian                  GFN1-xTB          :
         :: total energy             -83.011302931838 Eh    ::
         :: gradient norm              0.000830019107 Eh/a0 ::
         :: HOMO-LUMO gap              3.607328636781 eV    ::
         :: SCC energy               -83.783839088154 Eh    ::
         :: -> Gsolv                  -0.065344723311 Eh    ::
         :: repulsion energy           0.798410981248 Eh    ::

    * Orbital Energies and Occupations

         #    Occupation            Energy/Eh            Energy/eV
      -------------------------------------------------------------
         1        2.0000           -0.8670788             -23.5944
       ...           ...                  ...                  ...
        55        2.0000           -0.5084070             -13.8345
        56        2.0000           -0.5068252             -13.7914
        57        2.0000           -0.5047798             -13.7358
        58        2.0000           -0.5026898             -13.6789
        59        2.0000           -0.4823124             -13.1244
        60        2.0000           -0.4779050             -13.0045
        61        2.0000           -0.4705953             -12.8056
        62        2.0000           -0.4670883             -12.7101
        63        2.0000           -0.4654369             -12.6652
        64        2.0000           -0.4607729             -12.5383
        65        2.0000           -0.4546667             -12.3721
        66        2.0000           -0.4507403             -12.2653
        67        2.0000           -0.4465459             -12.1511 (HOMO)
        68                         -0.3139790              -8.5438 (LUMO)
        69                         -0.3019047              -8.2152
        70                         -0.2871811              -7.8146
        71                         -0.2580300              -7.0214
        72                         -0.2578126              -7.0154
        73                         -0.2011253              -5.4729
        74                         -0.1434787              -3.9043
        75                         -0.1420742              -3.8660
        76                         -0.1364592              -3.7132
        77                         -0.1302895              -3.5454
        78                         -0.1262427              -3.4352
       ...                                ...                  ...
       134                          0.7236916              19.6927
      -------------------------------------------------------------
                  HL-Gap            0.1325669 Eh            3.6073 eV

Wiberg/Mayer (AO) data.
largest (>0.10) Wiberg bond orders for each atom

     #   Z sym  total        # sym  WBO       # sym  WBO       # sym  WBO
 ---------------------------------------------------------------------------
     1   6 C    3.861 --    27 H    0.986    28 H    0.980    26 H    0.979
                             2 O    0.885
     2   8 O    2.217 --     3 C    1.142     1 C    0.885     4 O    0.141
     3   6 C    3.849 --     4 O    1.682     2 O    1.142     5 C    0.939
     4   8 O    1.950 --     3 C    1.682     2 O    0.141
     5   6 C    3.870 --     6 N    1.028     3 C    0.939    25 O    0.907
                            23 C    0.830
     6   7 N    3.022 --     7 C    1.707     5 C    1.028
     7   6 C    3.927 --     6 N    1.707    20 N    1.109     8 C    0.974
     8   6 C    3.937 --     9 C    0.989    10 C    0.981     7 C    0.974
                            11 N    0.929
     9   6 C    3.988 --     8 C    0.989    31 H    0.986    30 H    0.983
                            29 H    0.981
    10   6 C    3.988 --    33 H    0.984    34 H    0.983     8 C    0.981
                            32 H    0.981
    11   7 N    3.338 --    12 C    1.242     8 C    0.929    35 H    0.890
                            13 O    0.173
    12   6 C    3.916 --    13 O    1.594    11 N    1.242    14 C    0.995
    13   8 O    1.897 --    12 C    1.594    11 N    0.173
    14   6 C    3.873 --    15 N    1.620    19 O    1.047    12 C    0.995
    15   7 N    3.001 --    14 C    1.620    16 N    1.200
    16   7 N    2.981 --    17 C    1.608    15 N    1.200
    17   6 C    3.868 --    16 N    1.608    19 O    1.073    18 C    1.032
    18   6 C    3.986 --    17 C    1.032    36 H    0.982    37 H    0.963
                            38 H    0.961
    19   8 O    2.317 --    17 C    1.073    14 C    1.047
    20   7 N    3.422 --    21 C    1.150     7 C    1.109    39 H    0.884
                            22 O    0.128
    21   6 C    3.894 --    22 O    1.650    20 N    1.150    23 C    0.979
    22   8 O    1.929 --    21 C    1.650    20 N    0.128
    23   6 C    3.862 --    24 C    1.002    21 C    0.979    25 O    0.897
                             5 C    0.830
    24   6 C    3.985 --    23 C    1.002    41 H    0.980    40 H    0.979
                            42 H    0.975
    25   8 O    1.969 --     5 C    0.907    23 C    0.897
    26   1 H    1.005 --     1 C    0.979
    27   1 H    1.009 --     1 C    0.986
    28   1 H    1.005 --     1 C    0.980
    29   1 H    1.009 --     9 C    0.981
    30   1 H    1.009 --     9 C    0.983
    31   1 H    1.001 --     9 C    0.986
    32   1 H    0.996 --    10 C    0.981
    33   1 H    0.998 --    10 C    0.984
    34   1 H    1.000 --    10 C    0.983
    35   1 H    0.931 --    11 N    0.890
    36   1 H    0.998 --    18 C    0.982
    37   1 H    0.996 --    18 C    0.963
    38   1 H    0.996 --    18 C    0.961
    39   1 H    0.935 --    20 N    0.884
    40   1 H    1.009 --    24 C    0.979
    41   1 H    1.000 --    24 C    0.980
    42   1 H    1.002 --    24 C    0.975
 ---------------------------------------------------------------------------

           -------------------------------------------------
          | TOTAL ENERGY              -83.011302931838 Eh   |
          | GRADIENT NORM               0.000830019107 Eh/α |
          | HOMO-LUMO GAP               3.607328636781 eV   |
           -------------------------------------------------

 * finished run on 2023/06/21 at 17:35:24.406
