   * xtb version 6.5.1 (579679a) compiled by 'ehlert@majestix' on 2022-07-11
          program call               : /lustre/hpc/kemi/ree/PhD/git/ReactivityQM/dep/xtb-6.5.1/bin/xtb --gfn 1 /lustre/hpc/kemi/ree/PhD/git/ReactivityQM/calculations/RaltegravirCLI/reac02prodN09/conf18/RaltegravirCLI_reac02prodN09_conf18_gfn1.xyz --opt --vfukui --chrg 1 --uhf 0 --alpb DMSO

   ID    Z sym.   atoms
    1    6 C      1-4, 6-9, 11, 13, 15-18, 21, 22, 24
    2    9 F      5
    3    7 N      10, 14, 19, 20
    4    8 O      12, 23, 25
    5    1 H      26-47

      * Solvation model:               ALPB
        Solvent                        DMSO
        Solvent mass                       7.8130E+01 g/mol
          :  Hamiltonian                  GFN1-xTB          :
 * total energy  :   -79.4704038 Eh     change       -0.2614797E-10 Eh
 * total energy  :   -79.4803989 Eh     change       -0.9995084E-02 Eh
 * total energy  :   -79.4831322 Eh     change       -0.2733240E-02 Eh
 * total energy  :   -79.4836727 Eh     change       -0.5405587E-03 Eh
 * total energy  :   -79.4842891 Eh     change       -0.6163834E-03 Eh
 * total energy  :   -79.4848308 Eh     change       -0.5416532E-03 Eh
 * total energy  :   -79.4859687 Eh     change       -0.1137976E-02 Eh
 * total energy  :   -79.4873497 Eh     change       -0.1380984E-02 Eh
 * total energy  :   -79.4825495 Eh     change        0.4800254E-02 Eh
 * total energy  :   -79.4878997 Eh     change       -0.5350202E-02 Eh
 * total energy  :   -79.5457700 Eh     change       -0.2177002E-04 Eh
 * total energy  :   -79.5457922 Eh     change       -0.2223311E-04 Eh
 * total energy  :   -79.5458173 Eh     change       -0.2508509E-04 Eh
 * total energy  :   -79.5458412 Eh     change       -0.2395392E-04 Eh
 * total energy  :   -79.5458578 Eh     change       -0.1652811E-04 Eh
 * total energy  :   -79.5458758 Eh     change       -0.1808532E-04 Eh
 * total energy  :   -79.5458847 Eh     change       -0.8902087E-05 Eh
 * total energy  :   -79.5458900 Eh     change       -0.5298282E-05 Eh
 * total energy  :   -79.5458927 Eh     change       -0.2684918E-05 Eh
   *** GEOMETRY OPTIMIZATION CONVERGED AFTER 96 ITERATIONS ***

 final structure:
================
47
 xtb: 6.5.1 (579679a)
C            5.40042326944865        2.33307144175397       -1.16372126907226
C            5.07847616361483        1.15794277347585       -0.28351322915337
C            6.05701975148614        0.62967156662256        0.55298077323236
C            5.74886654431919       -0.45108898819845        1.35900889220458
F            6.70249910381304       -0.94637463802651        2.15777320334636
C            4.49749594625238       -1.03667730587857        1.37096900250404
C            3.52312793857488       -0.50532766252875        0.53769738152241
C            3.80049405869764        0.58125923202048       -0.28513504873215
C            2.73769901406610        1.17221064177119       -1.19103082188594
N            1.50524289883140        0.39402627588531       -1.17117756199857
C            0.39804300972159        0.70115348922672       -0.54769695975394
O            0.25113618456079        1.79870799997677        0.14068075476321
C           -0.75812369786983       -0.18451636065616       -0.58946831946129
N           -1.86492549729881        0.26948040654066        0.06911549130210
C           -2.96465315289505       -0.41861955543512        0.10632428489125
C           -4.09568461137260        0.19775832425957        0.91838164375772
C           -4.07800416456178       -0.42639486482251        2.32275214346733
C           -3.86480050795658        1.71425255294359        1.03378458204863
N           -5.38251247419804       -0.05773629018992        0.28493911296540
N           -3.07302044950003       -1.64687509269897       -0.49797588414823
C           -4.30334563403901       -2.44790913292210       -0.48550266679056
C           -2.01923108019052       -2.19502844634259       -1.19981019334834
O           -2.07125632137104       -3.27697253674463       -1.77012996385459
C           -0.79897885867309       -1.39833089145534       -1.22259851600443
O            0.23121968357760       -1.93096422390420       -1.88369159887631
H            5.24659335428712        2.07654017359002       -2.21305391570797
H            4.74838642218339        3.17482230773840       -0.92709266655331
H            6.43569369810074        2.64543249758402       -1.02972462050058
H            0.99540765085706        2.41734955265794        0.13635965218701
H            7.05211908138655        1.05547614253162        0.57854305040833
H            4.28605991970457       -1.88257418860288        2.01147975802295
H            2.53479351977482       -0.94695763836412        0.53326032405965
H            3.08428006213724        1.18372570124159       -2.22832649554533
H            2.51639537769804        2.20129254319363       -0.89943572623895
H            1.52754304813731       -0.47042681232725       -1.70196982576093
H           -4.28763849660286       -1.49372598507788        2.28052723411084
H           -3.10091950170238       -0.27775779110848        2.78092820182992
H           -4.83460103159657        0.05395808523895        2.94163886159670
H           -3.80352311507504        2.15965301430905        0.04220251532932
H           -2.93866900238417        1.92070024669485        1.56793642441766
H           -4.69647653454393        2.16339411896291        1.57381288455511
H           -6.12185637457380        0.22051088133007        0.91630792551122
H           -5.46196096452722        0.50860555407527       -0.54956925048126
H           -4.04235186339175       -3.47129728394715       -0.75291335533383
H           -4.75444333332314       -2.42550059027497        0.50095541436466
H           -5.00372708082041       -2.04205560979471       -1.21335828345937
H           -0.03831295275480       -2.79788663433309       -2.25397033974313

          :  Hamiltonian                  GFN1-xTB          :
         :: total energy             -79.545892724756 Eh    ::
         :: gradient norm              0.000617548607 Eh/a0 ::
         :: HOMO-LUMO gap              1.608554575569 eV    ::
         :: SCC energy               -80.449222898976 Eh    ::
         :: -> Gsolv                  -0.108872507909 Eh    ::
         :: repulsion energy           0.933314614109 Eh    ::

    * Orbital Energies and Occupations

         #    Occupation            Energy/Eh            Energy/eV
      -------------------------------------------------------------
         1        2.0000           -0.8824985             -24.0140
       ...           ...                  ...                  ...
        55        2.0000           -0.5142451             -13.9933
        56        2.0000           -0.5110046             -13.9051
        57        2.0000           -0.5062966             -13.7770
        58        2.0000           -0.5045293             -13.7289
        59        2.0000           -0.4965483             -13.5118
        60        2.0000           -0.4867599             -13.2454
        61        2.0000           -0.4844404             -13.1823
        62        2.0000           -0.4795538             -13.0493
        63        2.0000           -0.4664279             -12.6922
        64        2.0000           -0.4578439             -12.4586
        65        2.0000           -0.4485089             -12.2045
        66        2.0000           -0.4469021             -12.1608
        67        2.0000           -0.4227206             -11.5028 (HOMO)
        68                         -0.3636073              -9.8943 (LUMO)
        69                         -0.3020536              -8.2193
        70                         -0.2835766              -7.7165
        71                         -0.2789164              -7.5897
        72                         -0.2774181              -7.5489
        73                         -0.1834282              -4.9913
        74                         -0.1782743              -4.8511
        75                         -0.1573025              -4.2804
        76                         -0.1473888              -4.0107
        77                         -0.1407301              -3.8295
        78                         -0.1320515              -3.5933
       ...                                ...                  ...
       144                          0.6828469              18.5812
      -------------------------------------------------------------
                  HL-Gap            0.0591133 Eh            1.6086 eV

Wiberg/Mayer (AO) data.
largest (>0.10) Wiberg bond orders for each atom

     #   Z sym  total        # sym  WBO       # sym  WBO       # sym  WBO
 ---------------------------------------------------------------------------
     1   6 C    3.993 --     2 C    1.027    28 H    0.982    27 H    0.969
                            26 H    0.968
     2   6 C    3.987 --     3 C    1.423     8 C    1.377     1 C    1.027
                             6 C    0.107
     3   6 C    3.989 --     2 C    1.423     4 C    1.398    30 H    0.966
                             7 C    0.106
     4   6 C    3.864 --     6 C    1.400     3 C    1.398     5 F    0.933
     5   9 F    1.064 --     4 C    0.933
     6   6 C    3.991 --     7 C    1.435     4 C    1.400    31 H    0.968
                             2 C    0.107
     7   6 C    3.994 --     6 C    1.435     8 C    1.429    32 H    0.969
                             3 C    0.106
     8   6 C    3.980 --     7 C    1.429     2 C    1.377     9 C    0.988
     9   6 C    3.917 --     8 C    0.988    34 H    0.959    33 H    0.956
                            10 N    0.926
    10   7 N    3.484 --    11 C    1.467     9 C    0.926    35 H    0.858
                            12 O    0.112
    11   6 C    3.870 --    10 N    1.467    12 O    1.193    13 C    1.087
    12   8 O    2.159 --    11 C    1.193    29 H    0.791    10 N    0.112
    13   6 C    3.964 --    24 C    1.455    14 N    1.184    11 C    1.087
    14   7 N    3.024 --    15 C    1.559    13 C    1.184
    15   6 C    3.913 --    14 N    1.559    20 N    1.175    16 C    0.977
    16   6 C    3.964 --    18 C    0.988    19 N    0.988    17 C    0.977
                            15 C    0.977
    17   6 C    3.992 --    37 H    0.985    38 H    0.981    36 H    0.980
                            16 C    0.977
    18   6 C    3.993 --    16 C    0.988    41 H    0.985    39 H    0.985
                            40 H    0.983
    19   7 N    2.977 --    16 C    0.988    43 H    0.940    42 H    0.936
    20   7 N    3.526 --    15 C    1.175    22 C    1.146    21 C    0.919
                            23 O    0.140
    21   6 C    3.910 --    45 H    0.976    44 H    0.975    46 H    0.973
                            20 N    0.919
    22   6 C    3.921 --    23 O    1.565    20 N    1.146    24 C    1.066
    23   8 O    1.916 --    22 C    1.565    20 N    0.140
    24   6 C    3.915 --    13 C    1.455    25 O    1.111    22 C    1.066
    25   8 O    2.106 --    24 C    1.111    47 H    0.779
    26   1 H    0.999 --     1 C    0.968
    27   1 H    0.999 --     1 C    0.969
    28   1 H    0.999 --     1 C    0.982
    29   1 H    0.820 --    12 O    0.791
    30   1 H    0.996 --     3 C    0.966
    31   1 H    0.996 --     6 C    0.968
    32   1 H    1.000 --     7 C    0.969
    33   1 H    0.997 --     9 C    0.956
    34   1 H    0.999 --     9 C    0.959
    35   1 H    0.922 --    10 N    0.858
    36   1 H    1.003 --    17 C    0.980
    37   1 H    1.003 --    17 C    0.985
    38   1 H    0.998 --    17 C    0.981
    39   1 H    1.006 --    18 C    0.985
    40   1 H    1.012 --    18 C    0.983
    41   1 H    1.002 --    18 C    0.985
    42   1 H    0.950 --    19 N    0.936
    43   1 H    0.954 --    19 N    0.940
    44   1 H    1.005 --    21 C    0.975
    45   1 H    1.020 --    21 C    0.976
    46   1 H    1.015 --    21 C    0.973
    47   1 H    0.824 --    25 O    0.779
 ---------------------------------------------------------------------------

           -------------------------------------------------
          | TOTAL ENERGY              -79.545892724756 Eh   |
          | GRADIENT NORM               0.000617548607 Eh/α |
          | HOMO-LUMO GAP               1.608554575569 eV   |
           -------------------------------------------------

 * finished run on 2023/06/20 at 15:29:04.706
