   * xtb version 6.5.1 (579679a) compiled by 'ehlert@majestix' on 2022-07-11
          program call               : /lustre/hpc/kemi/ree/PhD/git/ReactivityQM/dep/xtb-6.5.1/bin/xtb --gfn 1 /lustre/hpc/kemi/ree/PhD/git/ReactivityQM/calculations/R02/reac01prodE11/conf05/R02_reac01prodE11_conf05_gfn1.xyz --opt --vfukui --chrg -1 --uhf 0 --alpb DMSO

   ID    Z sym.   atoms
    1    6 C      1, 3, 5, 7-10, 12, 14, 17-19, 22, 24
    2    8 O      2, 4, 13, 20, 23, 25
    3    7 N      6, 11, 15, 16, 21
    4    1 H      26-43

      * Solvation model:               ALPB
        Solvent                        DMSO
        Solvent mass                       7.8130E+01 g/mol
          :  Hamiltonian                  GFN1-xTB          :
 * total energy  :   -83.8665939 Eh     change       -0.9569732E-09 Eh
 * total energy  :   -83.8770366 Eh     change       -0.1044270E-01 Eh
 * total energy  :   -83.8807037 Eh     change       -0.3667051E-02 Eh
 * total energy  :   -83.8813151 Eh     change       -0.6114216E-03 Eh
 * total energy  :   -83.8816266 Eh     change       -0.3115458E-03 Eh
 * total energy  :   -83.8817545 Eh     change       -0.1278819E-03 Eh
 * total energy  :   -83.8818611 Eh     change       -0.1065948E-03 Eh
 * total energy  :   -83.8819201 Eh     change       -0.5896434E-04 Eh
 * total energy  :   -83.8819526 Eh     change       -0.3258388E-04 Eh
 * total energy  :   -83.8819726 Eh     change       -0.1995921E-04 Eh
 * total energy  :   -83.8820415 Eh     change       -0.2407477E-04 Eh
 * total energy  :   -83.8820573 Eh     change       -0.1577475E-04 Eh
 * total energy  :   -83.8820758 Eh     change       -0.1848724E-04 Eh
 * total energy  :   -83.8820901 Eh     change       -0.1434712E-04 Eh
 * total energy  :   -83.8821012 Eh     change       -0.1108202E-04 Eh
 * total energy  :   -83.8821219 Eh     change       -0.2073156E-04 Eh
 * total energy  :   -83.8821389 Eh     change       -0.1695985E-04 Eh
 * total energy  :   -83.8821466 Eh     change       -0.7704559E-05 Eh
 * total energy  :   -83.8821516 Eh     change       -0.4990094E-05 Eh
   *** GEOMETRY OPTIMIZATION CONVERGED AFTER 22 ITERATIONS ***

 final structure:
================
43
 xtb: 6.5.1 (579679a)
C            6.97840914366885        1.46734515844842        1.11181361751329
O            5.84918916840359        1.18090262911608        0.28611724044797
C            4.77572484132712        0.67773739908475        0.90425599165557
O            4.74134371484873        0.47987975838041        2.10071986024712
C            3.64497667374551        0.37978737813632       -0.01422699506169
N            2.56248558075291       -0.18876566564579        0.61347523434616
C            1.51750631507660       -0.51445061043707       -0.06972863151826
C            0.33676989590367       -1.19338802981138        0.59376857756707
C            0.54653058765187       -2.70819464273283        0.42286044783634
C            0.28090060130218       -0.81335225004042        2.07988051639604
N           -0.85771180502927       -0.75235265520291       -0.12261408553053
C           -2.13725440048638       -1.18567878632041        0.32991848663300
O           -2.28599565941111       -2.25323828329017        0.94689727190405
C           -3.15019600735368       -0.28452005495821       -0.06254148488775
N           -2.94509337898669        0.88544535681970       -0.66096571792704
N           -4.06288500915922        1.50695201886879       -0.86894195104151
C           -5.14739691095916        0.65579297633332       -0.35209841622513
C           -6.09361364900164        0.26882440481278       -1.49999476655031
C           -5.90349526820767        1.39868818600149        0.76042411534296
O           -4.51203050839208       -0.50117215217896        0.17399736392704
N            1.44429889057168       -0.32644981869763       -1.42144106197258
C            2.45347806663608        0.24258901393358       -2.15392733255077
O            2.37989440312684        0.41669255837183       -3.36655132881603
C            3.61991669027193        0.61447273917150       -1.36654732939474
O            4.62594679099228        1.17684535324554       -2.05790326305291
H            6.71061879217300        2.19618359640191        1.88113478026014
H            7.33617288228980        0.55289386766626        1.59196831354953
H            7.74809959414922        1.87451475191672        0.45926488301382
H            1.53160114897046       -2.98348956647300        0.79794422288563
H           -0.21041789734340       -3.26124590555357        0.97529753869334
H            0.48128229473154       -2.97277991919007       -0.63130829885505
H            1.21393296328106       -1.09549935621348        2.56592684211194
H            0.14127084248756        0.26185823333280        2.18515296944750
H           -0.54561808191314       -1.33127523597483        2.56374381085599
H           -0.85431926744897        0.24898935173532       -0.29617370841008
H           -6.52600391340105        1.16673396842049       -1.93657460397245
H           -5.53224772746870       -0.26476045540875       -2.26531500975164
H           -6.89103406106994       -0.37356792337122       -1.13060137274879
H           -5.20453470343622        1.67316744626071        1.54884966625028
H           -6.67878484767679        0.75893773993945        1.17820212753417
H           -6.35797890063519        2.30100276447669        0.35674039735405
H            0.60808558536274       -0.61243084761872       -1.91479956480912
H            4.36817852965133        1.23037650824344       -2.99616435270080

          :  Hamiltonian                  GFN1-xTB          :
         :: total energy             -83.882151591469 Eh    ::
         :: gradient norm              0.000544730059 Eh/a0 ::
         :: HOMO-LUMO gap              0.172310214390 eV    ::
         :: SCC energy               -84.640058279892 Eh    ::
         :: -> Gsolv                  -0.109492011179 Eh    ::
         :: repulsion energy           0.783745820737 Eh    ::

    * Orbital Energies and Occupations

         #    Occupation            Energy/Eh            Energy/eV
      -------------------------------------------------------------
         1        2.0000           -0.8322329             -22.6462
       ...           ...                  ...                  ...
        56        2.0000           -0.4771326             -12.9834
        57        2.0000           -0.4763636             -12.9625
        58        2.0000           -0.4729950             -12.8708
        59        2.0000           -0.4515922             -12.2885
        60        2.0000           -0.4502311             -12.2514
        61        2.0000           -0.4421572             -12.0317
        62        2.0000           -0.4395648             -11.9612
        63        2.0000           -0.4248816             -11.5616
        64        2.0000           -0.4213592             -11.4658
        65        2.0000           -0.4137329             -11.2582
        66        2.0000           -0.4001963             -10.8899
        67        2.0000           -0.3775995             -10.2750
        68        1.9311           -0.3222960              -8.7701 (HOMO)
        69        0.0689           -0.3159637              -8.5978 (LUMO)
        70                         -0.2714880              -7.3876
        71                         -0.2466311              -6.7112
        72                         -0.2315527              -6.3009
        73                         -0.1483386              -4.0365
        74                         -0.1355336              -3.6881
        75                         -0.1341882              -3.6514
        76                         -0.1111445              -3.0244
        77                         -0.1079751              -2.9382
        78                         -0.1054585              -2.8697
        79                         -0.0995262              -2.7082
       ...                                ...                  ...
       136                          0.7267548              19.7760
      -------------------------------------------------------------
                  HL-Gap            0.0063323 Eh            0.1723 eV

Wiberg/Mayer (AO) data.
largest (>0.10) Wiberg bond orders for each atom

     #   Z sym  total        # sym  WBO       # sym  WBO       # sym  WBO
 ---------------------------------------------------------------------------
     1   6 C    3.877 --    28 H    0.986    27 H    0.980    26 H    0.980
                             2 O    0.903
     2   8 O    2.190 --     3 C    1.101     1 C    0.903     4 O    0.130
     3   6 C    3.833 --     4 O    1.642     2 O    1.101     5 C    1.013
     4   8 O    1.897 --     3 C    1.642     2 O    0.130
     5   6 C    3.942 --    24 C    1.483     6 N    1.177     3 C    1.013
     6   7 N    3.020 --     7 C    1.586     5 C    1.177
     7   6 C    3.914 --     6 N    1.586    21 N    1.162     8 C    0.980
     8   6 C    3.956 --    10 C    0.987     7 C    0.980     9 C    0.974
                            11 N    0.957
     9   6 C    3.990 --    29 H    0.988    31 H    0.986    30 H    0.976
                             8 C    0.974
    10   6 C    3.993 --     8 C    0.987    33 H    0.986    32 H    0.985
                            34 H    0.983
    11   7 N    3.145 --    12 C    1.026     8 C    0.957    35 H    0.919
    12   6 C    3.913 --    13 O    1.482    14 C    1.225    11 N    1.026
    13   8 O    1.819 --    12 C    1.482
    14   6 C    3.819 --    15 N    1.375    12 C    1.225    20 O    0.946
                            16 N    0.141
    15   7 N    3.050 --    16 N    1.481    14 C    1.375
    16   7 N    2.856 --    15 N    1.481    17 C    0.980    14 C    0.141
    17   6 C    3.898 --    16 N    0.980    19 C    0.978    18 C    0.977
                            20 O    0.924
    18   6 C    3.990 --    36 H    0.988    38 H    0.986    37 H    0.985
                            17 C    0.977
    19   6 C    3.991 --    41 H    0.988    40 H    0.986    39 H    0.985
                            17 C    0.978
    20   8 O    2.056 --    14 C    0.946    17 C    0.924
    21   7 N    3.456 --     7 C    1.162    22 C    1.142    42 H    0.879
                            23 O    0.130
    22   6 C    3.901 --    23 O    1.550    21 N    1.142    24 C    1.080
    23   8 O    1.870 --    22 C    1.550    21 N    0.130
    24   6 C    3.891 --     5 C    1.483    25 O    1.091    22 C    1.080
    25   8 O    2.065 --    24 C    1.091    43 H    0.812
    26   1 H    1.009 --     1 C    0.980
    27   1 H    1.008 --     1 C    0.980
    28   1 H    1.012 --     1 C    0.986
    29   1 H    1.005 --     9 C    0.988
    30   1 H    1.022 --     9 C    0.976
    31   1 H    1.006 --     9 C    0.986
    32   1 H    1.013 --    10 C    0.985
    33   1 H    1.005 --    10 C    0.986
    34   1 H    1.011 --    10 C    0.983
    35   1 H    0.983 --    11 N    0.919
    36   1 H    1.009 --    18 C    0.988
    37   1 H    1.013 --    18 C    0.985
    38   1 H    1.007 --    18 C    0.986
    39   1 H    1.013 --    19 C    0.985
    40   1 H    1.007 --    19 C    0.986
    41   1 H    1.009 --    19 C    0.988
    42   1 H    0.940 --    21 N    0.879
    43   1 H    0.853 --    25 O    0.812
 ---------------------------------------------------------------------------

           -------------------------------------------------
          | TOTAL ENERGY              -83.882151591469 Eh   |
          | GRADIENT NORM               0.000544730059 Eh/α |
          | HOMO-LUMO GAP               0.172310214390 eV   |
           -------------------------------------------------

 * finished run on 2023/06/20 at 15:13:29.104
