                         Program Version 5.0.1 -  RELEASE  -
|  1> # ORCA input file
|  2> ! SP r2SCAN-3c CPCM
|  3>
|  4> %maxcore 1875.0
|  5> %pal nprocs 4 end
|  6> %cpcm smd true SMDsolvent "DMSO" end
|  7>
|  8> *xyz -1 1
|  9> C       4.762374    2.176211    2.558791
| 10> O       3.894463    1.331580    1.811067
| 11> C       4.483862    0.596166    0.836527
| 12> O       5.681717    0.669791    0.615494
| 13> C       3.527155   -0.255439    0.122674
| 14> N       2.220206   -0.192382    0.528413
| 15> C       1.291314   -0.900949   -0.029200
| 16> C      -0.109459   -0.753888    0.546790
| 17> C      -0.533389   -2.054815    1.242625
| 18> C      -0.112150    0.391055    1.575604
| 19> N      -1.038894   -0.435524   -0.565657
| 20> C      -2.375063   -0.096721   -0.162012
| 21> O      -3.227594   -1.144210    0.153348
| 22> C      -3.938330   -1.717260   -0.943008
| 23> C      -2.794307    1.193161   -0.378906
| 24> N      -1.983150    2.219593   -0.705063
| 25> N      -2.793723    3.329953   -0.786465
| 26> C      -3.995593    2.959300   -0.514778
| 27> C      -5.215787    3.806105   -0.479399
| 28> O      -4.096234    1.622307   -0.240639
| 29> N       1.564592   -1.750041   -1.081140
| 30> C       0.582903   -2.585080   -1.771889
| 31> C       2.867138   -1.912615   -1.548731
| 32> O       3.127352   -2.702812   -2.467646
| 33> C       3.869684   -1.111734   -0.910970
| 34> O       5.134174   -1.258292   -1.376479
| 35> H       5.529698    1.583707    3.066259
| 36> H       5.250927    2.903481    1.902777
| 37> H       4.146487    2.692830    3.293675
| 38> H       0.219995   -2.341645    1.976005
| 39> H      -1.483162   -1.908527    1.755248
| 40> H      -0.653654   -2.865519    0.527768
| 41> H       0.605119    0.186305    2.368844
| 42> H      -1.106219    0.485779    2.011326
| 43> H       0.152997    1.331729    1.092367
| 44> H      -0.662505    0.376855   -1.060307
| 45> H      -4.528249   -2.544892   -0.545976
| 46> H      -4.608248   -0.981015   -1.403665
| 47> H      -3.246655   -2.097932   -1.704348
| 48> H      -5.695116    3.746630    0.498438
| 49> H      -4.944077    4.839526   -0.684153
| 50> H      -5.935285    3.471077   -1.227686
| 51> H       0.674190   -3.616346   -1.426411
| 52> H      -0.423843   -2.215790   -1.599502
| 53> H       0.800387   -2.553927   -2.840303
| 54> H       5.113952   -1.915785   -2.093947
| 55> **                         ****END OF INPUT****

CARTESIAN COORDINATES (ANGSTROEM)
---------------------------------
  C      4.762374    2.176211    2.558791
  O      3.894463    1.331580    1.811067
  C      4.483862    0.596166    0.836527
  O      5.681717    0.669791    0.615494
  C      3.527155   -0.255439    0.122674
  N      2.220206   -0.192382    0.528413
  C      1.291314   -0.900949   -0.029200
  C     -0.109459   -0.753888    0.546790
  C     -0.533389   -2.054815    1.242625
  C     -0.112150    0.391055    1.575604
  N     -1.038894   -0.435524   -0.565657
  C     -2.375063   -0.096721   -0.162012
  O     -3.227594   -1.144210    0.153348
  C     -3.938330   -1.717260   -0.943008
  C     -2.794307    1.193161   -0.378906
  N     -1.983150    2.219593   -0.705063
  N     -2.793723    3.329953   -0.786465
  C     -3.995593    2.959300   -0.514778
  C     -5.215787    3.806105   -0.479399
  O     -4.096234    1.622307   -0.240639
  N      1.564592   -1.750041   -1.081140
  C      0.582903   -2.585080   -1.771889
  C      2.867138   -1.912615   -1.548731
  O      3.127352   -2.702812   -2.467646
  C      3.869684   -1.111734   -0.910970
  O      5.134174   -1.258292   -1.376479
  H      5.529698    1.583707    3.066259
  H      5.250927    2.903481    1.902777
  H      4.146487    2.692830    3.293675
  H      0.219995   -2.341645    1.976005
  H     -1.483162   -1.908527    1.755248
  H     -0.653654   -2.865519    0.527768
  H      0.605119    0.186305    2.368844
  H     -1.106219    0.485779    2.011326
  H      0.152997    1.331729    1.092367
  H     -0.662505    0.376855   -1.060307
  H     -4.528249   -2.544892   -0.545976
  H     -4.608248   -0.981015   -1.403665
  H     -3.246655   -2.097932   -1.704348
  H     -5.695116    3.746630    0.498438
  H     -4.944077    4.839526   -0.684153
  H     -5.935285    3.471077   -1.227686
  H      0.674190   -3.616346   -1.426411
  H     -0.423843   -2.215790   -1.599502
  H      0.800387   -2.553927   -2.840303
  H      5.113952   -1.915785   -2.093947

 Total Charge           Charge          ....   -1
 Multiplicity           Mult            ....    1
 Number of Electrons    NEL             ....  194
 Basis Dimension        Dim             ....  649

ORBITAL ENERGIES
----------------

  NO   OCC          E(Eh)            E(eV)
   0   2.0000     -18.992229      -516.8048
   1   2.0000     -18.990430      -516.7559
   2   2.0000     -18.989864      -516.7405
   3   2.0000     -18.942533      -515.4525
   4   2.0000     -18.930166      -515.1160
   5   2.0000     -18.926797      -515.0243
   6   2.0000     -14.230169      -387.2226
   7   2.0000     -14.153092      -385.1252
   8   2.0000     -14.151184      -385.0733
   9   2.0000     -14.138387      -384.7251
  10   2.0000     -14.118114      -384.1734
  11   2.0000     -10.153127      -276.2806
  12   2.0000     -10.136160      -275.8189
  13   2.0000     -10.111311      -275.1428
  14   2.0000     -10.110452      -275.1194
  15   2.0000     -10.085215      -274.4327
  16   2.0000     -10.082809      -274.3672
  17   2.0000     -10.073387      -274.1108
  18   2.0000     -10.070442      -274.0307
  19   2.0000     -10.070239      -274.0251
  20   2.0000     -10.052602      -273.5452
  21   2.0000     -10.048437      -273.4319
  22   2.0000     -10.045735      -273.3583
  23   2.0000     -10.025127      -272.7976
  24   2.0000     -10.008611      -272.3482
  25   2.0000     -10.000190      -272.1190
  26   2.0000      -1.071900       -29.1679
  27   2.0000      -1.061841       -28.8942
  28   2.0000      -1.043374       -28.3917
  29   2.0000      -1.005348       -27.3569
  30   2.0000      -0.983881       -26.7728
  31   2.0000      -0.971002       -26.4223
  32   2.0000      -0.954294       -25.9677
  33   2.0000      -0.904334       -24.6082
  34   2.0000      -0.877432       -23.8761
  35   2.0000      -0.862143       -23.4601
  36   2.0000      -0.777156       -21.1475
  37   2.0000      -0.759208       -20.6591
  38   2.0000      -0.717316       -19.5192
  39   2.0000      -0.711236       -19.3537
  40   2.0000      -0.676654       -18.4127
  41   2.0000      -0.674920       -18.3655
  42   2.0000      -0.655111       -17.8265
  43   2.0000      -0.644598       -17.5404
  44   2.0000      -0.627478       -17.0745
  45   2.0000      -0.614354       -16.7174
  46   2.0000      -0.603430       -16.4202
  47   2.0000      -0.559307       -15.2195
  48   2.0000      -0.548014       -14.9122
  49   2.0000      -0.539944       -14.6926
  50   2.0000      -0.523358       -14.2413
  51   2.0000      -0.508488       -13.8367
  52   2.0000      -0.495900       -13.4941
  53   2.0000      -0.482693       -13.1347
  54   2.0000      -0.470700       -12.8084
  55   2.0000      -0.456092       -12.4109
  56   2.0000      -0.449050       -12.2193
  57   2.0000      -0.439558       -11.9610
  58   2.0000      -0.437398       -11.9022
  59   2.0000      -0.431067       -11.7299
  60   2.0000      -0.427432       -11.6310
  61   2.0000      -0.417600       -11.3635
  62   2.0000      -0.408867       -11.1258
  63   2.0000      -0.403629       -10.9833
  64   2.0000      -0.396342       -10.7850
  65   2.0000      -0.393521       -10.7082
  66   2.0000      -0.390532       -10.6269
  67   2.0000      -0.384150       -10.4533
  68   2.0000      -0.380632       -10.3575
  69   2.0000      -0.371119       -10.0987
  70   2.0000      -0.365158        -9.9365
  71   2.0000      -0.364019        -9.9055
  72   2.0000      -0.361179        -9.8282
  73   2.0000      -0.358036        -9.7426
  74   2.0000      -0.352528        -9.5928
  75   2.0000      -0.344708        -9.3800
  76   2.0000      -0.342235        -9.3127
  77   2.0000      -0.335766        -9.1366
  78   2.0000      -0.330697        -8.9987
  79   2.0000      -0.326524        -8.8852
  80   2.0000      -0.317728        -8.6458
  81   2.0000      -0.314174        -8.5491
  82   2.0000      -0.305723        -8.3191
  83   2.0000      -0.294962        -8.0263
  84   2.0000      -0.283657        -7.7187
  85   2.0000      -0.267602        -7.2818
  86   2.0000      -0.265158        -7.2153
  87   2.0000      -0.260499        -7.0885
  88   2.0000      -0.251737        -6.8501
  89   2.0000      -0.242798        -6.6069
  90   2.0000      -0.234988        -6.3943
  91   2.0000      -0.227611        -6.1936
  92   2.0000      -0.220692        -6.0053
  93   2.0000      -0.215863        -5.8739
  94   2.0000      -0.204462        -5.5637
  95   2.0000      -0.200283        -5.4500
  96   2.0000      -0.095616        -2.6018
  97   0.0000      -0.089394        -2.4325
  98   0.0000      -0.029373        -0.7993
  99   0.0000       0.019074         0.5190
 100   0.0000       0.019907         0.5417
 101   0.0000       0.049594         1.3495

MULLIKEN ATOMIC CHARGES
-----------------------
   0 C :   -0.313404
   1 O :   -0.180410
   2 C :    0.089932
   3 O :   -0.404139
   4 C :    0.143348
   5 N :   -0.098159
   6 C :    0.100382
   7 C :    0.138088
   8 C :   -0.545061
   9 C :   -0.669640
  10 N :   -0.271336
  11 C :   -0.392350
  12 O :   -0.196192
  13 C :   -0.338939
  14 C :    0.110700
  15 N :   -0.303047
  16 N :   -0.338458
  17 C :    0.292443
  18 C :   -0.660895
  19 O :   -0.099182
  20 N :    0.257463
  21 C :   -0.482534
  22 C :    0.172960
  23 O :   -0.493239
  24 C :   -0.006918
  25 O :   -0.351939
  26 H :    0.170734
  27 H :    0.171495
  28 H :    0.171726
  29 H :    0.180290
  30 H :    0.188311
  31 H :    0.176388
  32 H :    0.175700
  33 H :    0.174296
  34 H :    0.189664
  35 H :    0.299507
  36 H :    0.155040
  37 H :    0.151922
  38 H :    0.147627
  39 H :    0.174220
  40 H :    0.187292
  41 H :    0.174569
  42 H :    0.192418
  43 H :    0.222347
  44 H :    0.185264
  45 H :    0.351714
Sum of atomic charges:   -1.0000000

LOEWDIN ATOMIC CHARGES
----------------------
   0 C :   -0.043488
   1 O :   -0.589705
   2 C :    0.400036
   3 O :   -0.431795
   4 C :    0.202053
   5 N :   -0.580639
   6 C :    0.372850
   7 C :    0.090242
   8 C :   -0.355404
   9 C :   -0.360054
  10 N :   -0.722143
  11 C :    0.227297
  12 O :   -0.697933
  13 C :   -0.074010
  14 C :    0.347087
  15 N :   -0.532400
  16 N :   -0.477627
  17 C :    0.299954
  18 C :   -0.340670
  19 O :   -0.451714
  20 N :   -0.630490
  21 C :   -0.097469
  22 C :    0.370316
  23 O :   -0.512422
  24 C :    0.272298
  25 O :   -0.450099
  26 H :    0.178734
  27 H :    0.178970
  28 H :    0.182950
  29 H :    0.165407
  30 H :    0.177772
  31 H :    0.169670
  32 H :    0.167668
  33 H :    0.164714
  34 H :    0.170122
  35 H :    0.282993
  36 H :    0.171274
  37 H :    0.161555
  38 H :    0.160315
  39 H :    0.172331
  40 H :    0.179586
  41 H :    0.172267
  42 H :    0.188883
  43 H :    0.214291
  44 H :    0.201485
  45 H :    0.304944

  Mayer bond orders larger than 0.100000
B(  0-C ,  1-O ) :   0.8404 B(  0-C , 26-H ) :   0.9578 B(  0-C , 27-H ) :   0.9580
B(  0-C , 28-H ) :   0.9645 B(  1-O ,  2-C ) :   1.1021 B(  2-C ,  3-O ) :   1.8882
B(  2-C ,  4-C ) :   1.0040 B(  4-C ,  5-N ) :   1.0173 B(  4-C , 24-C ) :   1.3875
B(  5-N ,  6-C ) :   1.7157 B(  5-N ,  7-C ) :  -0.1244 B(  6-C ,  7-C ) :   0.9477
B(  6-C , 10-N ) :  -0.1295 B(  6-C , 20-N ) :   1.2250 B(  7-C ,  8-C ) :   0.9376
B(  7-C ,  9-C ) :   0.8782 B(  7-C , 10-N ) :   0.8729 B(  8-C , 29-H ) :   0.9757
B(  8-C , 30-H ) :   0.9583 B(  8-C , 31-H ) :   0.9509 B(  9-C , 32-H ) :   0.9698
B(  9-C , 33-H ) :   0.9618 B(  9-C , 34-H ) :   0.9782 B( 10-N , 11-C ) :   0.9112
B( 10-N , 14-C ) :   0.1304 B( 10-N , 35-H ) :   0.8635 B( 11-C , 12-O ) :   1.1563
B( 11-C , 14-C ) :   1.4322 B( 12-O , 13-C ) :   0.8480 B( 13-C , 36-H ) :   0.9704
B( 13-C , 37-H ) :   0.9663 B( 13-C , 38-H ) :   0.9693 B( 14-C , 15-N ) :   1.4188
B( 14-C , 19-O ) :   1.0792 B( 15-N , 16-N ) :   1.2696 B( 16-N , 17-C ) :   1.7854
B( 17-C , 18-C ) :   0.8029 B( 17-C , 19-O ) :   0.9844 B( 18-C , 39-H ) :   0.9588
B( 18-C , 40-H ) :   1.0033 B( 18-C , 41-H ) :   0.9530 B( 20-N , 21-C ) :   0.8428
B( 20-N , 22-C ) :   1.0953 B( 21-C , 42-H ) :   0.9416 B( 21-C , 43-H ) :   0.9252
B( 21-C , 44-H ) :   0.9394 B( 22-C , 23-O ) :   1.7902 B( 22-C , 24-C ) :   1.0077
B( 24-C , 25-O ) :   1.0977 B( 25-O , 45-H ) :   0.8231

Dispersion correction           -0.021249479
FINAL SINGLE POINT ENERGY     -1308.582379041073

DIPOLE MOMENT
-------------
                                X             Y             Z
Electronic contribution:     18.45675      -0.23758      -5.66337
Nuclear contribution   :    -18.05369      -2.16878       6.46083
                        -----------------------------------------
Total Dipole Moment    :      0.40306      -2.40636       0.79746
                        -----------------------------------------
Magnitude (a.u.)       :      2.56690
Magnitude (Debye)      :      6.52455

Rotational constants in cm-1:     0.010667     0.003660     0.003067
Rotational constants in MHz :   319.774652   109.725116    91.953697

                             ****ORCA TERMINATED NORMALLY****
TOTAL RUN TIME: 0 days 0 hours 4 minutes 53 seconds 979 msec
