   * xtb version 6.5.1 (579679a) compiled by 'ehlert@majestix' on 2022-07-11
          program call               : /lustre/hpc/kemi/ree/PhD/git/ReactivityQM/dep/xtb-6.5.1/bin/xtb --gfn 1 /lustre/hpc/kemi/ree/PhD/git/ReactivityQM/calculations/R03/reac02prodE07/conf12/R03_reac02prodE07_conf12_gfn1.xyz --opt --vfukui --chrg -1 --uhf 0 --alpb DMSO

   ID    Z sym.   atoms
    1    6 C      1, 3, 5, 7-10, 12, 14, 15, 18, 19, 22, 23, 25
    2    8 O      2, 4, 13, 20, 24, 26
    3    7 N      6, 11, 16, 17, 21
    4    1 H      27-46

      * Solvation model:               ALPB
        Solvent                        DMSO
        Solvent mass                       7.8130E+01 g/mol
          :  Hamiltonian                  GFN1-xTB          :
 * total energy  :   -86.9978922 Eh     change       -0.1394852E-08 Eh
 * total energy  :   -87.0096537 Eh     change       -0.1176149E-01 Eh
 * total energy  :   -87.0149585 Eh     change       -0.5304844E-02 Eh
 * total energy  :   -87.0159454 Eh     change       -0.9868570E-03 Eh
 * total energy  :   -87.0165767 Eh     change       -0.6312990E-03 Eh
 * total energy  :   -87.0169436 Eh     change       -0.3669814E-03 Eh
 * total energy  :   -87.0172922 Eh     change       -0.3485713E-03 Eh
 * total energy  :   -87.0176278 Eh     change       -0.3355547E-03 Eh
 * total energy  :   -87.0178753 Eh     change       -0.2474895E-03 Eh
 * total energy  :   -87.0180483 Eh     change       -0.1730551E-03 Eh
 * total energy  :   -87.0231831 Eh     change       -0.8038664E-05 Eh
 * total energy  :   -87.0231993 Eh     change       -0.1618176E-04 Eh
 * total energy  :   -87.0232095 Eh     change       -0.1017256E-04 Eh
 * total energy  :   -87.0232224 Eh     change       -0.1297485E-04 Eh
 * total energy  :   -87.0232373 Eh     change       -0.1488775E-04 Eh
 * total energy  :   -87.0232503 Eh     change       -0.1295058E-04 Eh
 * total energy  :   -87.0232609 Eh     change       -0.1063319E-04 Eh
 * total energy  :   -87.0232679 Eh     change       -0.6969153E-05 Eh
 * total energy  :   -87.0232726 Eh     change       -0.4752023E-05 Eh
   *** GEOMETRY OPTIMIZATION CONVERGED AFTER 78 ITERATIONS ***

 final structure:
================
46
 xtb: 6.5.1 (579679a)
C            4.76237396711694        2.17621078664861        2.55879083166624
O            3.89446298426726        1.33157993815740        1.81106683976935
C            4.48386167676272        0.59616560393585        0.83652714649581
O            5.68171716143401        0.66979112842618        0.61549441018044
C            3.52715483618200       -0.25543947098777        0.12267386115921
N            2.22020643552457       -0.19238213332312        0.52841296633493
C            1.29131449141223       -0.90094883707905       -0.02919994017398
C           -0.10945882688656       -0.75388758393631        0.54679038579602
C           -0.53338866604032       -2.05481524916528        1.24262475027659
C           -0.11215016366899        0.39105479562603        1.57560393293194
N           -1.03889364067278       -0.43552433647814       -0.56565716596308
C           -2.37506272721347       -0.09672115134667       -0.16201238587722
O           -3.22759443685971       -1.14420981665496        0.15334790996983
C           -3.93832950384303       -1.71726040528737       -0.94300815748970
C           -2.79430747004892        1.19316120185283       -0.37890614411822
N           -1.98315019428666        2.21959263856329       -0.70506282458826
N           -2.79372281882870        3.32995297404841       -0.78646505558347
C           -3.99559282459451        2.95930023568887       -0.51477838494683
C           -5.21578679499470        3.80610535838674       -0.47939908487308
O           -4.09623411542974        1.62230733804946       -0.24063937406973
N            1.56459223870919       -1.75004065240209       -1.08114009494920
C            0.58290278156376       -2.58507989684345       -1.77188859539116
C            2.86713811662914       -1.91261497795315       -1.54873091883059
O            3.12735201943678       -2.70281207340279       -2.46764608764689
C            3.86968360090858       -1.11173396720788       -0.91097001266289
O            5.13417385759500       -1.25829220089642       -1.37647864183531
H            5.52969789154063        1.58370660290079        3.06625899490881
H            5.25092726758491        2.90348102223710        1.90277671384312
H            4.14648672739991        2.69282976185608        3.29367507615189
H            0.21999545639045       -2.34164450988181        1.97600473553915
H           -1.48316187031620       -1.90852682261154        1.75524756325236
H           -0.65365395794003       -2.86551938443761        0.52776753040504
H            0.60511862408117        0.18630451410409        2.36884372943334
H           -1.10621920314334        0.48577888256580        2.01132594795475
H            0.15299715598202        1.33172891661233        1.09236706348564
H           -0.66250497661086        0.37685539278081       -1.06030708593780
H           -4.52824875998640       -2.54489242981482       -0.54597597771187
H           -4.60824806872178       -0.98101459039815       -1.40366459256606
H           -3.24665530535749       -2.09793206153480       -1.70434776820909
H           -5.69511640873502        3.74663008900636        0.49843780104869
H           -4.94407737980452        4.83952554642017       -0.68415304667715
H           -5.93528532393420        3.47107722665275       -1.22768564027099
H            0.67418988025656       -3.61634616313211       -1.42641053550378
H           -0.42384257849248       -2.21578978499563       -1.59950151211233
H            0.80038700359614       -2.55392675898660       -2.84030299305533
H            5.11395184205279       -1.91578469576223       -2.09394716955874

          :  Hamiltonian                  GFN1-xTB          :
         :: total energy             -87.023272635914 Eh    ::
         :: gradient norm              0.000608290490 Eh/a0 ::
         :: HOMO-LUMO gap              0.103720265166 eV    ::
         :: SCC energy               -87.808885654398 Eh    ::
         :: -> Gsolv                  -0.105605916509 Eh    ::
         :: repulsion energy           0.814822240832 Eh    ::

    * Orbital Energies and Occupations

         #    Occupation            Energy/Eh            Energy/eV
      -------------------------------------------------------------
         1        2.0000           -0.8141699             -22.1547
       ...           ...                  ...                  ...
        59        2.0000           -0.4739631             -12.8972
        60        2.0000           -0.4575212             -12.4498
        61        2.0000           -0.4466777             -12.1547
        62        2.0000           -0.4408284             -11.9956
        63        2.0000           -0.4368932             -11.8885
        64        2.0000           -0.4323129             -11.7638
        65        2.0000           -0.4214351             -11.4678
        66        2.0000           -0.4174868             -11.3604
        67        2.0000           -0.4157603             -11.3134
        68        2.0000           -0.4018534             -10.9350
        69        2.0000           -0.3957665             -10.7694
        70        2.0000           -0.3918606             -10.6631
        71        1.7629           -0.3060096              -8.3269 (HOMO)
        72        0.2371           -0.3021980              -8.2232 (LUMO)
        73                         -0.2561218              -6.9694
        74                         -0.2143627              -5.8331
        75                         -0.2037500              -5.5443
        76                         -0.1617074              -4.4003
        77                         -0.1302564              -3.5445
        78                         -0.1296459              -3.5278
        79                         -0.1261482              -3.4327
        80                         -0.1221793              -3.3247
        81                         -0.1130575              -3.0765
        82                         -0.1072785              -2.9192
       ...                                ...                  ...
       144                          0.7269685              19.7818
      -------------------------------------------------------------
                  HL-Gap            0.0038116 Eh            0.1037 eV

Wiberg/Mayer (AO) data.
largest (>0.10) Wiberg bond orders for each atom

     #   Z sym  total        # sym  WBO       # sym  WBO       # sym  WBO
 ---------------------------------------------------------------------------
     1   6 C    3.890 --    29 H    0.987    27 H    0.980    28 H    0.980
                             2 O    0.917
     2   8 O    2.147 --     3 C    1.055     1 C    0.917     4 O    0.116
     3   6 C    3.783 --     4 O    1.598     5 C    1.062     2 O    1.055
     4   8 O    1.836 --     3 C    1.598     2 O    0.116
     5   6 C    3.878 --    25 C    1.390     6 N    1.182     3 C    1.062
     6   7 N    3.019 --     7 C    1.572     5 C    1.182
     7   6 C    3.908 --     6 N    1.572    21 N    1.146     8 C    0.982
     8   6 C    3.956 --    10 C    0.992     9 C    0.986     7 C    0.982
                            11 N    0.938
     9   6 C    3.993 --    30 H    0.987     8 C    0.986    32 H    0.981
                            31 H    0.981
    10   6 C    3.994 --     8 C    0.992    33 H    0.985    35 H    0.984
                            34 H    0.984
    11   7 N    3.055 --    12 C    0.983     8 C    0.938    36 H    0.934
    12   6 C    3.589 --    15 C    1.419    11 N    0.983    13 O    0.960
    13   8 O    2.015 --    12 C    0.960    14 C    0.927
    14   6 C    3.910 --    37 H    0.986    38 H    0.983    39 H    0.983
                            13 O    0.927
    15   6 C    3.866 --    12 C    1.419    16 N    1.314    20 O    0.979
    16   7 N    2.739 --    15 C    1.314    17 N    1.158
    17   7 N    2.981 --    18 C    1.663    16 N    1.158
    18   6 C    3.837 --    17 N    1.663    19 C    1.022    20 O    1.013
    19   6 C    3.994 --    18 C    1.022    41 H    0.986    40 H    0.973
                            42 H    0.972
    20   8 O    2.192 --    18 C    1.013    15 C    0.979
    21   7 N    3.431 --     7 C    1.146    23 C    1.096    22 C    0.935
                            24 O    0.117
    22   6 C    3.930 --    43 H    0.978    45 H    0.977    44 H    0.971
                            21 N    0.935
    23   6 C    3.872 --    24 O    1.494    25 C    1.147    21 N    1.096
    24   8 O    1.818 --    23 C    1.494    21 N    0.117
    25   6 C    3.805 --     5 C    1.390    23 C    1.147    26 O    1.063
    26   8 O    2.022 --    25 C    1.063    46 H    0.823
    27   1 H    1.011 --     1 C    0.980
    28   1 H    1.011 --     1 C    0.980
    29   1 H    1.014 --     1 C    0.987
    30   1 H    1.005 --     9 C    0.987
    31   1 H    1.013 --     9 C    0.981
    32   1 H    1.008 --     9 C    0.981
    33   1 H    1.016 --    10 C    0.985
    34   1 H    1.013 --    10 C    0.984
    35   1 H    1.018 --    10 C    0.984
    36   1 H    0.987 --    11 N    0.934
    37   1 H    1.018 --    14 C    0.986
    38   1 H    1.017 --    14 C    0.983
    39   1 H    1.016 --    14 C    0.983
    40   1 H    1.003 --    19 C    0.973
    41   1 H    1.005 --    19 C    0.986
    42   1 H    1.003 --    19 C    0.972
    43   1 H    1.004 --    22 C    0.978
    44   1 H    1.031 --    22 C    0.971
    45   1 H    1.011 --    22 C    0.977
    46   1 H    0.865 --    26 O    0.823
 ---------------------------------------------------------------------------

           -------------------------------------------------
          | TOTAL ENERGY              -87.023272635914 Eh   |
          | GRADIENT NORM               0.000608290490 Eh/α |
          | HOMO-LUMO GAP               0.103720265166 eV   |
           -------------------------------------------------

 * finished run on 2023/06/20 at 15:23:00.434
