                         Program Version 5.0.1 -  RELEASE  -
|  1> # ORCA input file
|  2> ! SP r2SCAN-3c CPCM
|  3>
|  4> %maxcore 1875.0
|  5> %pal nprocs 4 end
|  6> %cpcm smd true SMDsolvent "DMSO" end
|  7>
|  8> *xyz 0 1
|  9> C      -6.163358   -0.389063   -0.747913
| 10> O      -4.801503    0.038537   -0.603393
| 11> C      -4.058120   -0.610519    0.273427
| 12> O      -4.434168   -1.529701    0.953675
| 13> C      -2.642300   -0.074194    0.318192
| 14> N      -1.694239   -0.923590    0.412977
| 15> C      -0.379050   -0.432204    0.412345
| 16> C       0.664635   -1.475924    0.125831
| 17> C       0.599155   -2.546558    1.227192
| 18> C       0.380548   -2.089721   -1.253909
| 19> N       1.963800   -0.815827    0.130508
| 20> C       3.125171   -1.463461   -0.078081
| 21> O       3.237086   -2.660952   -0.287963
| 22> C       4.303245   -0.560518   -0.020906
| 23> N       5.555030   -0.883813   -0.122750
| 24> N       6.270817    0.269357    0.000688
| 25> C       5.412009    1.225995    0.170317
| 26> C       5.684737    2.669031    0.345153
| 27> O       4.149040    0.768393    0.168218
| 28> N      -0.057384    0.776084    0.679223
| 29> C      -1.071996    1.710190    0.921559
| 30> O      -0.926945    2.681399    1.615181
| 31> C      -2.377461    1.411986    0.190478
| 32> C      -2.192532    1.723294   -1.315210
| 33> O      -3.419308    2.170104    0.730276
| 34> H      -6.641666    0.325750   -1.413240
| 35> H      -6.190976   -1.390929   -1.180756
| 36> H      -6.655495   -0.397374    0.226658
| 37> H       1.298693   -3.349149    1.001866
| 38> H      -0.410107   -2.952055    1.273540
| 39> H       0.854948   -2.106103    2.189431
| 40> H       0.490445   -1.330031   -2.025614
| 41> H      -0.636897   -2.476364   -1.274136
| 42> H       1.078455   -2.902147   -1.447553
| 43> H       1.965043    0.183041    0.287073
| 44> H       5.274530    3.228153   -0.495813
| 45> H       6.757589    2.835245    0.401679
| 46> H       5.207081    3.031589    1.254605
| 47> H      -1.964174    2.780833   -1.425307
| 48> H      -3.119820    1.499543   -1.837646
| 49> H      -1.382674    1.126995   -1.728355
| 50> H      -3.051885    2.904678    1.248426
| 51> **                         ****END OF INPUT****

CARTESIAN COORDINATES (ANGSTROEM)
---------------------------------
  C     -6.163358   -0.389063   -0.747913
  O     -4.801503    0.038537   -0.603393
  C     -4.058120   -0.610519    0.273427
  O     -4.434168   -1.529701    0.953675
  C     -2.642300   -0.074194    0.318192
  N     -1.694239   -0.923590    0.412977
  C     -0.379050   -0.432204    0.412345
  C      0.664635   -1.475924    0.125831
  C      0.599155   -2.546558    1.227192
  C      0.380548   -2.089721   -1.253909
  N      1.963800   -0.815827    0.130508
  C      3.125171   -1.463461   -0.078081
  O      3.237086   -2.660952   -0.287963
  C      4.303245   -0.560518   -0.020906
  N      5.555030   -0.883813   -0.122750
  N      6.270817    0.269357    0.000688
  C      5.412009    1.225995    0.170317
  C      5.684737    2.669031    0.345153
  O      4.149040    0.768393    0.168218
  N     -0.057384    0.776084    0.679223
  C     -1.071996    1.710190    0.921559
  O     -0.926945    2.681399    1.615181
  C     -2.377461    1.411986    0.190478
  C     -2.192532    1.723294   -1.315210
  O     -3.419308    2.170104    0.730276
  H     -6.641666    0.325750   -1.413240
  H     -6.190976   -1.390929   -1.180756
  H     -6.655495   -0.397374    0.226658
  H      1.298693   -3.349149    1.001866
  H     -0.410107   -2.952055    1.273540
  H      0.854948   -2.106103    2.189431
  H      0.490445   -1.330031   -2.025614
  H     -0.636897   -2.476364   -1.274136
  H      1.078455   -2.902147   -1.447553
  H      1.965043    0.183041    0.287073
  H      5.274530    3.228153   -0.495813
  H      6.757589    2.835245    0.401679
  H      5.207081    3.031589    1.254605
  H     -1.964174    2.780833   -1.425307
  H     -3.119820    1.499543   -1.837646
  H     -1.382674    1.126995   -1.728355
  H     -3.051885    2.904678    1.248426

 Total Charge           Charge          ....    0
 Multiplicity           Mult            ....    1
 Number of Electrons    NEL             ....  184
 Basis Dimension        Dim             ....  615

ORBITAL ENERGIES
----------------

  NO   OCC          E(Eh)            E(eV)
   0   2.0000     -19.065788      -518.8065
   1   2.0000     -19.019687      -517.5520
   2   2.0000     -18.971171      -516.2318
   3   2.0000     -18.968913      -516.1704
   4   2.0000     -18.959085      -515.9029
   5   2.0000     -18.933747      -515.2135
   6   2.0000     -14.204874      -386.5343
   7   2.0000     -14.200704      -386.4208
   8   2.0000     -14.197272      -386.3274
   9   2.0000     -14.197234      -386.3264
  10   2.0000     -14.185695      -386.0124
  11   2.0000     -10.181673      -277.0574
  12   2.0000     -10.162720      -276.5417
  13   2.0000     -10.157548      -276.4009
  14   2.0000     -10.149594      -276.1845
  15   2.0000     -10.147377      -276.1242
  16   2.0000     -10.142965      -276.0041
  17   2.0000     -10.135676      -275.8058
  18   2.0000     -10.129138      -275.6279
  19   2.0000     -10.108453      -275.0650
  20   2.0000     -10.084308      -274.4080
  21   2.0000     -10.045104      -273.3412
  22   2.0000     -10.038431      -273.1596
  23   2.0000     -10.026313      -272.8299
  24   2.0000     -10.025488      -272.8074
  25   2.0000      -1.155192       -31.4344
  26   2.0000      -1.096941       -29.8493
  27   2.0000      -1.057324       -28.7712
  28   2.0000      -1.023365       -27.8472
  29   2.0000      -1.010047       -27.4848
  30   2.0000      -1.006836       -27.3974
  31   2.0000      -0.981015       -26.6948
  32   2.0000      -0.975407       -26.5422
  33   2.0000      -0.917679       -24.9713
  34   2.0000      -0.885497       -24.0956
  35   2.0000      -0.831911       -22.6375
  36   2.0000      -0.793964       -21.6049
  37   2.0000      -0.758297       -20.6343
  38   2.0000      -0.724188       -19.7062
  39   2.0000      -0.713553       -19.4168
  40   2.0000      -0.679118       -18.4797
  41   2.0000      -0.671263       -18.2660
  42   2.0000      -0.665285       -18.1033
  43   2.0000      -0.640949       -17.4411
  44   2.0000      -0.625488       -17.0204
  45   2.0000      -0.602421       -16.3927
  46   2.0000      -0.589390       -16.0381
  47   2.0000      -0.561179       -15.2704
  48   2.0000      -0.546695       -14.8763
  49   2.0000      -0.540316       -14.7027
  50   2.0000      -0.537227       -14.6187
  51   2.0000      -0.508127       -13.8268
  52   2.0000      -0.504301       -13.7227
  53   2.0000      -0.494678       -13.4609
  54   2.0000      -0.473069       -12.8729
  55   2.0000      -0.465436       -12.6652
  56   2.0000      -0.456039       -12.4095
  57   2.0000      -0.454173       -12.3587
  58   2.0000      -0.445592       -12.1252
  59   2.0000      -0.435534       -11.8515
  60   2.0000      -0.428336       -11.6556
  61   2.0000      -0.420977       -11.4554
  62   2.0000      -0.410337       -11.1658
  63   2.0000      -0.409378       -11.1397
  64   2.0000      -0.403180       -10.9711
  65   2.0000      -0.398956       -10.8562
  66   2.0000      -0.393937       -10.7196
  67   2.0000      -0.389889       -10.6094
  68   2.0000      -0.382040       -10.3958
  69   2.0000      -0.381208       -10.3732
  70   2.0000      -0.369967       -10.0673
  71   2.0000      -0.368629       -10.0309
  72   2.0000      -0.362819        -9.8728
  73   2.0000      -0.361412        -9.8345
  74   2.0000      -0.355411        -9.6712
  75   2.0000      -0.345837        -9.4107
  76   2.0000      -0.344328        -9.3696
  77   2.0000      -0.343027        -9.3342
  78   2.0000      -0.332270        -9.0415
  79   2.0000      -0.326649        -8.8886
  80   2.0000      -0.316462        -8.6114
  81   2.0000      -0.314388        -8.5549
  82   2.0000      -0.296706        -8.0738
  83   2.0000      -0.290665        -7.9094
  84   2.0000      -0.280860        -7.6426
  85   2.0000      -0.270333        -7.3561
  86   2.0000      -0.267506        -7.2792
  87   2.0000      -0.262361        -7.1392
  88   2.0000      -0.252465        -6.8699
  89   2.0000      -0.248196        -6.7537
  90   2.0000      -0.244518        -6.6537
  91   2.0000      -0.238262        -6.4834
  92   0.0000      -0.142942        -3.8896
  93   0.0000      -0.086041        -2.3413
  94   0.0000      -0.070228        -1.9110
  95   0.0000      -0.020181        -0.5492
  96   0.0000      -0.001611        -0.0438

MULLIKEN ATOMIC CHARGES
-----------------------
   0 C :   -0.312858
   1 O :   -0.140771
   2 C :    0.164121
   3 O :   -0.383049
   4 C :    0.326430
   5 N :   -0.273324
   6 C :    0.578069
   7 C :   -0.212193
   8 C :   -0.631230
   9 C :   -0.628560
  10 N :    0.019053
  11 C :   -0.105034
  12 O :   -0.444100
  13 C :    0.425005
  14 N :   -0.179264
  15 N :   -0.279164
  16 C :    0.399168
  17 C :   -0.636176
  18 O :   -0.055764
  19 N :   -0.247001
  20 C :    0.155140
  21 O :   -0.352877
  22 C :    0.223621
  23 C :   -0.568501
  24 O :   -0.436125
  25 H :    0.183887
  26 H :    0.183610
  27 H :    0.183431
  28 H :    0.206662
  29 H :    0.197050
  30 H :    0.190516
  31 H :    0.191285
  32 H :    0.196299
  33 H :    0.205575
  34 H :    0.311766
  35 H :    0.203191
  36 H :    0.204790
  37 H :    0.199714
  38 H :    0.192710
  39 H :    0.196451
  40 H :    0.205420
  41 H :    0.343024
Sum of atomic charges:    0.0000000

LOEWDIN ATOMIC CHARGES
----------------------
   0 C :   -0.029456
   1 O :   -0.559777
   2 C :    0.394557
   3 O :   -0.373225
   4 C :    0.315912
   5 N :   -0.512919
   6 C :    0.385558
   7 C :    0.104217
   8 C :   -0.332706
   9 C :   -0.332349
  10 N :   -0.571748
  11 C :    0.383113
  12 O :   -0.460783
  13 C :    0.415642
  14 N :   -0.336043
  15 N :   -0.361143
  16 C :    0.378972
  17 C :   -0.317529
  18 O :   -0.391445
  19 N :   -0.492839
  20 C :    0.379423
  21 O :   -0.369250
  22 C :    0.154798
  23 C :   -0.313711
  24 O :   -0.533288
  25 H :    0.190763
  26 H :    0.186416
  27 H :    0.187965
  28 H :    0.184506
  29 H :    0.179694
  30 H :    0.176498
  31 H :    0.176647
  32 H :    0.180421
  33 H :    0.184031
  34 H :    0.306981
  35 H :    0.192670
  36 H :    0.191045
  37 H :    0.191104
  38 H :    0.181809
  39 H :    0.184847
  40 H :    0.182638
  41 H :    0.297983

  Mayer bond orders larger than 0.100000
B(  0-C ,  1-O ) :   0.8253 B(  0-C , 25-H ) :   0.9596 B(  0-C , 26-H ) :   0.9494
B(  0-C , 27-H ) :   0.9515 B(  1-O ,  2-C ) :   1.1426 B(  2-C ,  3-O ) :   1.9191
B(  2-C ,  4-C ) :   0.9825 B(  2-C ,  5-N ) :   0.1138 B(  4-C ,  5-N ) :   1.5934
B(  4-C , 22-C ) :   0.8817 B(  5-N ,  6-C ) :   0.8813 B(  6-C ,  7-C ) :   0.7877
B(  6-C , 10-N ) :  -0.1386 B(  6-C , 19-N ) :   1.5652 B(  7-C ,  8-C ) :   0.9052
B(  7-C ,  9-C ) :   0.9168 B(  7-C , 10-N ) :   0.9527 B(  7-C , 19-N ) :   0.1422
B(  8-C , 28-H ) :   0.9556 B(  8-C , 29-H ) :   0.9568 B(  8-C , 30-H ) :   0.9596
B(  9-C , 31-H ) :   0.9591 B(  9-C , 32-H ) :   0.9534 B(  9-C , 33-H ) :   0.9542
B( 10-N , 11-C ) :   1.1642 B( 10-N , 34-H ) :   0.8493 B( 11-C , 12-O ) :   1.9057
B( 11-C , 13-C ) :   0.8380 B( 13-C , 14-N ) :   1.7091 B( 13-C , 16-C ) :   0.1032
B( 13-C , 18-O ) :   1.0816 B( 14-N , 15-N ) :   1.2765 B( 15-N , 16-C ) :   1.6333
B( 16-C , 17-C ) :   0.8317 B( 16-C , 18-O ) :   1.0678 B( 17-C , 35-H ) :   0.9378
B( 17-C , 36-H ) :   0.9888 B( 17-C , 37-H ) :   0.9464 B( 19-N , 20-C ) :   1.0141
B( 20-C , 21-O ) :   2.0996 B( 20-C , 22-C ) :   0.8794 B( 22-C , 23-C ) :   0.9799
B( 22-C , 24-O ) :   0.8956 B( 23-C , 38-H ) :   0.9369 B( 23-C , 39-H ) :   0.9423
B( 23-C , 40-H ) :   0.9439 B( 24-O , 41-H ) :   0.8471

Dispersion correction           -0.018838377
FINAL SINGLE POINT ENERGY     -1268.619916825322

DIPOLE MOMENT
-------------
                                X             Y             Z
Electronic contribution:      7.21051       1.37571       5.89404
Nuclear contribution   :    -10.26641       1.34751      -7.26915
                        -----------------------------------------
Total Dipole Moment    :     -3.05590       2.72322      -1.37511
                        -----------------------------------------
Magnitude (a.u.)       :      4.31803
Magnitude (Debye)      :     10.97556

Rotational constants in cm-1:     0.015913     0.003516     0.003061
Rotational constants in MHz :   477.056826   105.413396    91.773405

                             ****ORCA TERMINATED NORMALLY****
TOTAL RUN TIME: 0 days 0 hours 2 minutes 6 seconds 659 msec
