   * xtb version 6.5.1 (579679a) compiled by 'ehlert@majestix' on 2022-07-11
          program call               : /lustre/hpc/kemi/ree/PhD/git/ReactivityQM/dep/xtb-6.5.1/bin/xtb --gfn 1 /lustre/hpc/kemi/ree/PhD/git/ReactivityQM/calculations/R02deprot/reac01prodN16/conf19/R02deprot_reac01prodN16_conf19_gfn1.xyz --opt --vfukui --chrg 0 --uhf 0 --alpb DMSO

   ID    Z sym.   atoms
    1    6 C      1, 3, 5, 7-10, 12, 14, 17, 18, 21, 23, 24
    2    8 O      2, 4, 13, 19, 22, 25
    3    7 N      6, 11, 15, 16, 20
    4    1 H      26-42

      * Solvation model:               ALPB
        Solvent                        DMSO
        Solvent mass                       7.8130E+01 g/mol
          :  Hamiltonian                  GFN1-xTB          :
 * total energy  :   -82.9500411 Eh     change       -0.1330136E-10 Eh
 * total energy  :   -82.9613828 Eh     change       -0.1134172E-01 Eh
 * total energy  :   -82.9657311 Eh     change       -0.4348307E-02 Eh
 * total energy  :   -82.9666216 Eh     change       -0.8904242E-03 Eh
 * total energy  :   -82.9673232 Eh     change       -0.7016171E-03 Eh
 * total energy  :   -82.9677994 Eh     change       -0.4762337E-03 Eh
 * total energy  :   -82.9682518 Eh     change       -0.4523760E-03 Eh
 * total energy  :   -82.9687282 Eh     change       -0.4764088E-03 Eh
 * total energy  :   -82.9691743 Eh     change       -0.4461319E-03 Eh
 * total energy  :   -82.9695613 Eh     change       -0.3869363E-03 Eh
 * total energy  :   -82.9737021 Eh     change       -0.1885672E-04 Eh
 * total energy  :   -82.9737183 Eh     change       -0.1616772E-04 Eh
 * total energy  :   -82.9737272 Eh     change       -0.8978013E-05 Eh
 * total energy  :   -82.9737407 Eh     change       -0.1346191E-04 Eh
 * total energy  :   -82.9737449 Eh     change       -0.4227567E-05 Eh
 * total energy  :   -82.9737522 Eh     change       -0.7291848E-05 Eh
 * total energy  :   -82.9737567 Eh     change       -0.4485048E-05 Eh
 * total energy  :   -82.9737607 Eh     change       -0.4028112E-05 Eh
 * total energy  :   -82.9737630 Eh     change       -0.2293891E-05 Eh
   *** GEOMETRY OPTIMIZATION CONVERGED AFTER 68 ITERATIONS ***

 final structure:
================
42
 xtb: 6.5.1 (579679a)
C           -6.16335826215425       -0.38906323101218       -0.74791326468731
O           -4.80150277866483        0.03853674242302       -0.60339347745664
C           -4.05811989210934       -0.61051942474750        0.27342723860394
O           -4.43416790553734       -1.52970078594227        0.95367504453430
C           -2.64230047716201       -0.07419401011300        0.31819218858645
N           -1.69423867064137       -0.92359037648126        0.41297683695519
C           -0.37904966418849       -0.43220433132361        0.41234538188582
C            0.66463523921444       -1.47592408789090        0.12583079696593
C            0.59915459642483       -2.54655824409154        1.22719172431794
C            0.38054829541141       -2.08972096380129       -1.25390923287641
N            1.96380041047670       -0.81582714197447        0.13050804857759
C            3.12517134462658       -1.46346136884031       -0.07808095265500
O            3.23708642449447       -2.66095203331364       -0.28796258578259
C            4.30324456528455       -0.56051808432478       -0.02090564679841
N            5.55502978267182       -0.88381336526737       -0.12274951019284
N            6.27081657213297        0.26935706817496        0.00068778942812
C            5.41200926003632        1.22599466993071        0.17031729613516
C            5.68473690014832        2.66903078052319        0.34515338172743
O            4.14903989950225        0.76839270684098        0.16821761111592
N           -0.05738423406438        0.77608373737825        0.67922273342889
C           -1.07199622376753        1.71019010681320        0.92155861422627
O           -0.92694470283788        2.68139940736040        1.61518061829521
C           -2.37746062310141        1.41198649435580        0.19047826361031
C           -2.19253185453810        1.72329446833737       -1.31520959873603
O           -3.41930829136396        2.17010375612519        0.73027555559479
H           -6.64166610299855        0.32575028182644       -1.41323992821614
H           -6.19097572285801       -1.39092949601366       -1.18075615456670
H           -6.65549457303000       -0.39737401254997        0.22665764775789
H            1.29869286342250       -3.34914888257590        1.00186596091316
H           -0.41010692594546       -2.95205544004727        1.27353993877188
H            0.85494762996858       -2.10610343613296        2.18943100538799
H            0.49044457794245       -1.33003135214059       -2.02561356378406
H           -0.63689747203280       -2.47636350424594       -1.27413628969216
H            1.07845521600934       -2.90214657788414       -1.44755271082005
H            1.96504331457829        0.18304140666343        0.28707268995196
H            5.27452978718218        3.22815299936550       -0.49581346819560
H            6.75758932774512        2.83524474084302        0.40167890437385
H            5.20708143120120        3.03158918564865        1.25460489333044
H           -1.96417381186190        2.78083332688527       -1.42530680023561
H           -3.11982044878514        1.49954290138734       -1.83764616695823
H           -1.38267445981256        1.12699521384449       -1.72835542996359
H           -3.05188534101049        2.90467815598512        1.24842561715583

          :  Hamiltonian                  GFN1-xTB          :
         :: total energy             -82.973763024131 Eh    ::
         :: gradient norm              0.000388631019 Eh/a0 ::
         :: HOMO-LUMO gap              1.833154405865 eV    ::
         :: SCC energy               -83.750369633541 Eh    ::
         :: -> Gsolv                  -0.052344373818 Eh    ::
         :: repulsion energy           0.802715936524 Eh    ::

    * Orbital Energies and Occupations

         #    Occupation            Energy/Eh            Energy/eV
      -------------------------------------------------------------
         1        2.0000           -0.8658032             -23.5597
       ...           ...                  ...                  ...
        55        2.0000           -0.5081559             -13.8276
        56        2.0000           -0.5062378             -13.7754
        57        2.0000           -0.5051466             -13.7457
        58        2.0000           -0.4998812             -13.6025
        59        2.0000           -0.4963193             -13.5055
        60        2.0000           -0.4882382             -13.2856
        61        2.0000           -0.4802679             -13.0688
        62        2.0000           -0.4662009             -12.6860
        63        2.0000           -0.4611209             -12.5477
        64        2.0000           -0.4607984             -12.5390
        65        2.0000           -0.4524723             -12.3124
        66        2.0000           -0.4488384             -12.2135
        67        2.0000           -0.4372424             -11.8980 (HOMO)
        68                         -0.3698752             -10.0648 (LUMO)
        69                         -0.3107368              -8.4556
        70                         -0.3078624              -8.3774
        71                         -0.2571889              -6.9985
        72                         -0.2542729              -6.9191
        73                         -0.2402089              -6.5364
        74                         -0.1986450              -5.4054
        75                         -0.1434090              -3.9024
        76                         -0.1427265              -3.8838
        77                         -0.1338114              -3.6412
        78                         -0.1246015              -3.3906
       ...                                ...                  ...
       134                          0.7247907              19.7226
      -------------------------------------------------------------
                  HL-Gap            0.0673672 Eh            1.8332 eV

Wiberg/Mayer (AO) data.
largest (>0.10) Wiberg bond orders for each atom

     #   Z sym  total        # sym  WBO       # sym  WBO       # sym  WBO
 ---------------------------------------------------------------------------
     1   6 C    3.857 --    26 H    0.985    28 H    0.979    27 H    0.978
                             2 O    0.881
     2   8 O    2.234 --     3 C    1.147     1 C    0.881     4 O    0.147
     3   6 C    3.852 --     4 O    1.690     2 O    1.147     5 C    0.941
     4   8 O    1.952 --     3 C    1.690     2 O    0.147
     5   6 C    3.933 --     6 N    1.769    23 C    0.960     3 C    0.941
     6   7 N    3.050 --     5 C    1.769     7 C    1.059
     7   6 C    3.924 --    20 N    1.694     6 N    1.059     8 C    0.998
     8   6 C    3.940 --     7 C    0.998    10 C    0.967     9 C    0.965
                            11 N    0.938
     9   6 C    3.984 --    31 H    0.985    30 H    0.984    29 H    0.978
                             8 C    0.965
    10   6 C    3.984 --    32 H    0.985    33 H    0.983    34 H    0.978
                             8 C    0.967
    11   7 N    3.356 --    12 C    1.264     8 C    0.938    35 H    0.879
                            13 O    0.177
    12   6 C    3.918 --    13 O    1.580    11 N    1.264    14 C    0.992
    13   8 O    1.898 --    12 C    1.580    11 N    0.177
    14   6 C    3.872 --    15 N    1.623    19 O    1.047    12 C    0.992
    15   7 N    2.999 --    14 C    1.623    16 N    1.198
    16   7 N    2.981 --    17 C    1.611    15 N    1.198
    17   6 C    3.869 --    16 N    1.611    19 O    1.073    18 C    1.032
    18   6 C    3.986 --    17 C    1.032    37 H    0.982    38 H    0.965
                            36 H    0.961
    19   8 O    2.316 --    17 C    1.073    14 C    1.047
    20   7 N    3.089 --     7 C    1.694    21 C    1.062
    21   6 C    3.866 --    22 O    1.745    20 N    1.062    23 C    0.935
    22   8 O    1.996 --    21 C    1.745
    23   6 C    3.932 --    25 O    0.983     5 C    0.960    21 C    0.935
                            24 C    0.920
    24   6 C    3.983 --    41 H    0.986    40 H    0.980    39 H    0.978
                            23 C    0.920
    25   8 O    1.900 --    23 C    0.983    42 H    0.827
    26   1 H    1.008 --     1 C    0.985
    27   1 H    1.004 --     1 C    0.978
    28   1 H    1.004 --     1 C    0.979
    29   1 H    1.009 --     9 C    0.978
    30   1 H    1.007 --     9 C    0.984
    31   1 H    1.000 --     9 C    0.985
    32   1 H    1.001 --    10 C    0.985
    33   1 H    1.006 --    10 C    0.983
    34   1 H    1.007 --    10 C    0.978
    35   1 H    0.951 --    11 N    0.879
    36   1 H    0.997 --    18 C    0.961
    37   1 H    0.998 --    18 C    0.982
    38   1 H    0.997 --    18 C    0.965
    39   1 H    0.999 --    24 C    0.978
    40   1 H    1.008 --    24 C    0.980
    41   1 H    1.000 --    24 C    0.986
    42   1 H    0.858 --    25 O    0.827
 ---------------------------------------------------------------------------

           -------------------------------------------------
          | TOTAL ENERGY              -82.973763024131 Eh   |
          | GRADIENT NORM               0.000388631019 Eh/α |
          | HOMO-LUMO GAP               1.833154405865 eV   |
           -------------------------------------------------

 * finished run on 2023/06/20 at 18:27:17.234
