   * xtb version 6.5.1 (579679a) compiled by 'ehlert@majestix' on 2022-07-11
          program call               : /lustre/hpc/kemi/ree/PhD/git/ReactivityQM/dep/xtb-6.5.1/bin/xtb --gfn 1 /lustre/hpc/kemi/ree/PhD/git/ReactivityQM/calculations/R03/reac02prodN13/conf13/R03_reac02prodN13_conf13_gfn1.xyz --opt --vfukui --chrg 1 --uhf 0 --alpb DMSO

   ID    Z sym.   atoms
    1    6 C      1, 3, 5, 7-10, 12, 14, 17-19, 22, 23, 25
    2    8 O      2, 4, 13, 20, 24, 26
    3    7 N      6, 11, 15, 16, 21
    4    1 H      27-46

      * Solvation model:               ALPB
        Solvent                        DMSO
        Solvent mass                       7.8130E+01 g/mol
          :  Hamiltonian                  GFN1-xTB          :
 * total energy  :   -86.2757302 Eh     change       -0.3487344E-10 Eh
 * total energy  :   -86.2909256 Eh     change       -0.1519533E-01 Eh
 * total energy  :   -86.2965007 Eh     change       -0.5575116E-02 Eh
 * total energy  :   -86.2972868 Eh     change       -0.7861377E-03 Eh
 * total energy  :   -86.2977650 Eh     change       -0.4782036E-03 Eh
 * total energy  :   -86.2979526 Eh     change       -0.1876082E-03 Eh
 * total energy  :   -86.2981356 Eh     change       -0.1829344E-03 Eh
 * total energy  :   -86.2982539 Eh     change       -0.1183547E-03 Eh
 * total energy  :   -86.2983227 Eh     change       -0.6875818E-04 Eh
 * total energy  :   -86.2983619 Eh     change       -0.3926527E-04 Eh
 * total energy  :   -86.2983944 Eh     change       -0.3250180E-04 Eh
 * total energy  :   -86.2984210 Eh     change       -0.2660428E-04 Eh
 * total energy  :   -86.2984408 Eh     change       -0.1977596E-04 Eh
 * total energy  :   -86.2984590 Eh     change       -0.1818974E-04 Eh
 * total energy  :   -86.2984679 Eh     change       -0.8848834E-05 Eh
 * total energy  :   -86.2984828 Eh     change       -0.1492704E-04 Eh
 * total energy  :   -86.2984895 Eh     change       -0.6768662E-05 Eh
 * total energy  :   -86.2984940 Eh     change       -0.4446051E-05 Eh
   *** GEOMETRY OPTIMIZATION CONVERGED AFTER 18 ITERATIONS ***

 final structure:
================
46
 xtb: 6.5.1 (579679a)
C           -5.89779391386938        2.44950952429255       -0.72262342864078
O           -4.76906779170778        1.59933953329988       -0.47485217597828
C           -4.81510002531183        0.38525602537668       -0.98954704630017
O           -5.74528504158018       -0.03410197438276       -1.65362098226925
C           -3.62164306539837       -0.44607566175628       -0.68637852460716
N           -2.62534395223837        0.11077127964697        0.04742592769518
C           -1.56089047219866       -0.56889254536190        0.35426496239830
C           -0.55371971162358        0.16378916651504        1.22964161208227
C           -0.56622386740058       -0.43732035305281        2.64241299845593
C           -0.91638527036830        1.65475932127788        1.29231142682456
N            0.77691936199551        0.06559927980193        0.60600917260264
C            1.90339982750037        0.47330475320646        1.22046364685483
O            2.02679936525280        0.85884547997838        2.35890777590980
C            3.07950352189799        0.37867126222931        0.28209305566070
N            3.01362504006211       -0.06868313885941       -1.01067787396066
N            4.17624308729480        0.00109349155353       -1.50337458799639
C            5.08879566042535        0.51267735522969       -0.53199136259273
C            5.69280127086350        1.84361185246150       -0.99728453103660
C            6.16190092111115       -0.53048294165267       -0.19389630986750
O            4.26155922049219        0.73150432044397        0.60873551697918
N           -1.40076724450201       -1.86663960193937       -0.03168408149131
C           -0.25441928912874       -2.71058400746505        0.31126296186114
C           -2.36456008696406       -2.55033830340066       -0.78780824747203
O           -2.18994747074258       -3.71339454420749       -1.10037327610289
C           -3.54016316938015       -1.74845340167153       -1.13036742445107
O           -4.47330422100118       -2.35082045939993       -1.85098606120545
H           -6.04084916662514        2.57188874805266       -1.79820914543716
H           -5.67181793236757        3.40535509953606       -0.25524371161396
H           -6.79559246234074        2.00989861678583       -0.28289553869731
H           -0.03667004431482        0.21369360228113        3.33446515604846
H           -0.09919122281575       -1.41846144672275        2.65870735962293
H           -1.60068033248460       -0.53064057382140        2.97053861132738
H           -0.17550971739506        2.18359724476598        1.88867274908719
H           -1.89760576002168        1.77063945430592        1.74849008861554
H           -0.93912774587866        2.07514843597477        0.28892501609621
H            0.81492432874019       -0.10061809417070       -0.38804427299595
H            6.32621825009913        2.23677535942612       -0.20545743604485
H            4.89065396413958        2.54608521781323       -1.21219104806015
H            6.28181208784364        1.66683391491242       -1.89373920054682
H            6.75692576668355       -0.72217345685405       -1.08315902193744
H            5.67822645344113       -1.44750511127147        0.13497139613816
H            6.79207957961407       -0.13868687905830        0.60101844448321
H            0.07252531533593       -3.22002413415779       -0.59486403108217
H            0.55587980677483       -2.11539553187095        0.70948648542068
H           -0.57284368412938       -3.45425153983522        1.04215695597845
H           -5.22628916778445       -1.73510663828314       -2.02685599976236

          :  Hamiltonian                  GFN1-xTB          :
         :: total energy             -86.298493994064 Eh    ::
         :: gradient norm              0.000891742224 Eh/a0 ::
         :: HOMO-LUMO gap              0.129706674775 eV    ::
         :: SCC energy               -87.118315285433 Eh    ::
         :: -> Gsolv                  -0.110009697886 Eh    ::
         :: repulsion energy           0.848687001135 Eh    ::

    * Orbital Energies and Occupations

         #    Occupation            Energy/Eh            Energy/eV
      -------------------------------------------------------------
         1        2.0000           -0.9316224             -25.3507
       ...           ...                  ...                  ...
        58        2.0000           -0.5339299             -14.5290
        59        2.0000           -0.5290630             -14.3965
        60        2.0000           -0.5234606             -14.2441
        61        2.0000           -0.5208771             -14.1738
        62        2.0000           -0.5141584             -13.9910
        63        2.0000           -0.5084345             -13.8352
        64        2.0000           -0.5044969             -13.7281
        65        2.0000           -0.5008300             -13.6283
        66        2.0000           -0.4948330             -13.4651
        67        2.0000           -0.4906464             -13.3512
        68        2.0000           -0.4781993             -13.0125
        69        2.0000           -0.4628453             -12.5947
        70        1.8495           -0.4457909             -12.1306 (HOMO)
        71        0.1505           -0.4410242             -12.0009 (LUMO)
        72                         -0.3601977              -9.8015
        73                         -0.3420538              -9.3078
        74                         -0.3062269              -8.3329
        75                         -0.2588024              -7.0424
        76                         -0.2580470              -7.0218
        77                         -0.1777292              -4.8363
        78                         -0.1613175              -4.3897
        79                         -0.1559461              -4.2435
        80                         -0.1556199              -4.2346
        81                         -0.1430383              -3.8923
       ...                                ...                  ...
       144                          0.7098988              19.3173
      -------------------------------------------------------------
                  HL-Gap            0.0047666 Eh            0.1297 eV

Wiberg/Mayer (AO) data.
largest (>0.10) Wiberg bond orders for each atom

     #   Z sym  total        # sym  WBO       # sym  WBO       # sym  WBO
 ---------------------------------------------------------------------------
     1   6 C    3.858 --    28 H    0.986    27 H    0.978    29 H    0.978
                             2 O    0.885
     2   8 O    2.225 --     3 C    1.151     1 C    0.885     4 O    0.135
     3   6 C    3.851 --     4 O    1.613     2 O    1.151     5 C    1.007
     4   8 O    1.949 --     3 C    1.613     2 O    0.135
     5   6 C    3.927 --    25 C    1.430     6 N    1.224     3 C    1.007
     6   7 N    2.992 --     7 C    1.522     5 C    1.224
     7   6 C    3.904 --     6 N    1.522    21 N    1.206     8 C    0.977
     8   6 C    3.910 --    10 C    0.978     7 C    0.977     9 C    0.976
                            11 N    0.907
     9   6 C    3.977 --    32 H    0.982    31 H    0.980     8 C    0.976
                            30 H    0.976
    10   6 C    3.977 --    35 H    0.984    33 H    0.982    34 H    0.980
                             8 C    0.978
    11   7 N    3.387 --    12 C    1.262     8 C    0.907    36 H    0.886
                            13 O    0.207
    12   6 C    3.923 --    13 O    1.629    11 N    1.262    14 C    0.948
    13   8 O    1.959 --    12 C    1.629    11 N    0.207
    14   6 C    3.732 --    20 O    1.326    15 N    1.216    12 C    0.948
    15   7 N    3.024 --    16 N    1.647    14 C    1.216
    16   7 N    2.892 --    15 N    1.647    17 C    1.050
    17   6 C    3.818 --    16 N    1.050    18 C    0.907    19 C    0.905
                            20 O    0.869
    18   6 C    3.937 --    38 H    0.980    39 H    0.978    37 H    0.976
                            17 C    0.907
    19   6 C    3.936 --    41 H    0.980    40 H    0.978    42 H    0.976
                            17 C    0.905
    20   8 O    2.362 --    14 C    1.326    17 C    0.869
    21   7 N    3.490 --     7 C    1.206    23 C    1.085    22 C    0.927
                            24 O    0.124
    22   6 C    3.913 --    44 H    0.976    43 H    0.972    45 H    0.971
                            21 N    0.927
    23   6 C    3.895 --    24 O    1.614    21 N    1.085    25 C    1.057
    24   8 O    1.891 --    23 C    1.614    21 N    0.124
    25   6 C    3.864 --     5 C    1.430    26 O    1.157    23 C    1.057
    26   8 O    2.092 --    25 C    1.157    46 H    0.765
    27   1 H    1.004 --     1 C    0.978
    28   1 H    1.009 --     1 C    0.986
    29   1 H    1.004 --     1 C    0.978
    30   1 H    1.006 --     9 C    0.976
    31   1 H    0.998 --     9 C    0.980
    32   1 H    0.998 --     9 C    0.982
    33   1 H    1.000 --    10 C    0.982
    34   1 H    1.006 --    10 C    0.980
    35   1 H    1.005 --    10 C    0.984
    36   1 H    0.937 --    11 N    0.886
    37   1 H    0.991 --    18 C    0.976
    38   1 H    0.991 --    18 C    0.980
    39   1 H    0.992 --    18 C    0.978
    40   1 H    0.992 --    19 C    0.978
    41   1 H    0.991 --    19 C    0.980
    42   1 H    0.991 --    19 C    0.976
    43   1 H    1.002 --    22 C    0.972
    44   1 H    1.005 --    22 C    0.976
    45   1 H    0.996 --    22 C    0.971
    46   1 H    0.842 --    26 O    0.765
 ---------------------------------------------------------------------------

           -------------------------------------------------
          | TOTAL ENERGY              -86.298493994064 Eh   |
          | GRADIENT NORM               0.000891742224 Eh/α |
          | HOMO-LUMO GAP               0.129706674775 eV   |
           -------------------------------------------------

 * finished run on 2023/06/20 at 15:48:59.233
