   * xtb version 6.5.1 (579679a) compiled by 'ehlert@majestix' on 2022-07-11
          program call               : /lustre/hpc/kemi/ree/PhD/git/ReactivityQM/dep/xtb-6.5.1/bin/xtb --gfn 1 /lustre/hpc/kemi/ree/PhD/git/ReactivityQM/calculations/R01/reac01prodE06/conf06/R01_reac01prodE06_conf06_gfn1.xyz --opt --vfukui --chrg -1 --uhf 0 --alpb DMSO

   ID    Z sym.   atoms
    1    6 C      1, 3, 5, 8-10
    2    8 O      2, 4, 11
    3    7 N      6, 7
    4    1 H      12-20

      * Solvation model:               ALPB
        Solvent                        DMSO
        Solvent mass                       7.8130E+01 g/mol
          :  Hamiltonian                  GFN1-xTB          :
 * total energy  :   -38.3452336 Eh     change       -0.2607692E-11 Eh
 * total energy  :   -38.3528301 Eh     change       -0.7596460E-02 Eh
 * total energy  :   -38.3548555 Eh     change       -0.2025472E-02 Eh
 * total energy  :   -38.3550573 Eh     change       -0.2017742E-03 Eh
 * total energy  :   -38.3551705 Eh     change       -0.1131684E-03 Eh
 * total energy  :   -38.3551918 Eh     change       -0.2133809E-04 Eh
 * total energy  :   -38.3552059 Eh     change       -0.1404085E-04 Eh
 * total energy  :   -38.3552107 Eh     change       -0.4894475E-05 Eh
 * total energy  :   -38.3552123 Eh     change       -0.1596188E-05 Eh
   *** GEOMETRY OPTIMIZATION CONVERGED AFTER 9 ITERATIONS ***

 final structure:
================
20
 xtb: 6.5.1 (579679a)
C            4.11238935944757        0.38907713786910       -0.08044542212778
O            2.80686905459005        0.11921512697759       -0.55874842927550
C            1.78903322653376        0.32905954260151        0.37126630011574
O            2.06185747895073        0.72016796662181        1.51449188096596
C            0.52498830794713        0.04383700264023       -0.17125242480567
N            0.25976687016613       -0.38071649595010       -1.40593666076652
N           -1.00877950758281       -0.55414619833854       -1.57870811966555
C           -1.68677446755113       -0.20977542628172       -0.31597407764116
C           -2.66173545732675        0.95441590671049       -0.55385377315624
C           -2.42810901347796       -1.44316136038498        0.22473089429921
O           -0.65826054974213        0.18035575966485        0.58023890273911
H            4.35562156296460       -0.24260162142125        0.78182295403855
H            4.21437866942384        1.43937523939216        0.21660133140675
H            4.80474178660851        0.17330251701553       -0.89482233297774
H           -3.15297060549191        1.23123356444581        0.37728290923123
H           -3.41273030102424        0.65991548900636       -1.28400126377294
H           -2.11295642735508        1.81385728697851       -0.93554489041066
H           -3.18039709126159       -1.76315763346954       -0.49319267346393
H           -2.91029306341896       -1.20748731133313        1.17178814619644
H           -1.71664183239969       -2.25276449274477        0.37973774907042

          :  Hamiltonian                  GFN1-xTB          :
         :: total energy             -38.355212345440 Eh    ::
         :: gradient norm              0.000562537387 Eh/a0 ::
         :: HOMO-LUMO gap              2.121792547573 eV    ::
         :: SCC energy               -38.663033385335 Eh    ::
         :: -> Gsolv                  -0.096837585858 Eh    ::
         :: repulsion energy           0.316272817728 Eh    ::

    * Orbital Energies and Occupations

         #    Occupation            Energy/Eh            Energy/eV
      -------------------------------------------------------------
         1        2.0000           -0.7798890             -21.2219
       ...           ...                  ...                  ...
        19        2.0000           -0.5081865             -13.8285
        20        2.0000           -0.4952191             -13.4756
        21        2.0000           -0.4863849             -13.2352
        22        2.0000           -0.4840796             -13.1725
        23        2.0000           -0.4778271             -13.0023
        24        2.0000           -0.4703711             -12.7994
        25        2.0000           -0.4504328             -12.2569
        26        2.0000           -0.4496068             -12.2344
        27        2.0000           -0.4391942             -11.9511
        28        2.0000           -0.4243445             -11.5470
        29        2.0000           -0.4127368             -11.2311
        30        2.0000           -0.3743943             -10.1878
        31        2.0000           -0.3215383              -8.7495 (HOMO)
        32                         -0.2435639              -6.6277 (LUMO)
        33                         -0.1281129              -3.4861
        34                         -0.1157688              -3.1502
        35                         -0.1056205              -2.8741
        36                         -0.0996980              -2.7129
        37                         -0.0588952              -1.6026
        38                         -0.0539492              -1.4680
        39                         -0.0521349              -1.4187
        40                         -0.0473499              -1.2885
        41                         -0.0291617              -0.7935
        42                         -0.0272820              -0.7424
       ...                                ...                  ...
        62                          0.7030482              19.1309
      -------------------------------------------------------------
                  HL-Gap            0.0779744 Eh            2.1218 eV

Wiberg/Mayer (AO) data.
largest (>0.10) Wiberg bond orders for each atom

     #   Z sym  total        # sym  WBO       # sym  WBO       # sym  WBO
 ---------------------------------------------------------------------------
     1   6 C    3.908 --    14 H    0.987    13 H    0.981    12 H    0.981
                             2 O    0.939
     2   8 O    2.085 --     3 C    0.961     1 C    0.939
     3   6 C    3.882 --     4 O    1.489     5 C    1.250     2 O    0.961
                             7 N    0.105
     4   8 O    1.811 --     3 C    1.489
     5   6 C    3.846 --     6 N    1.367     3 C    1.250    11 O    0.931
                             7 N    0.151
     6   7 N    3.024 --     7 N    1.503     5 C    1.367
     7   7 N    2.899 --     6 N    1.503     8 C    0.977     5 C    0.151
                             3 C    0.105
     8   6 C    3.900 --     9 C    0.978    10 C    0.978     7 N    0.977
                            11 O    0.929
     9   6 C    3.995 --    16 H    0.988    15 H    0.986    17 H    0.985
                             8 C    0.978
    10   6 C    3.995 --    18 H    0.988    19 H    0.986    20 H    0.985
                             8 C    0.978
    11   8 O    2.050 --     5 C    0.931     8 C    0.929
    12   1 H    1.017 --     1 C    0.981
    13   1 H    1.016 --     1 C    0.981
    14   1 H    1.018 --     1 C    0.987
    15   1 H    1.008 --     9 C    0.986
    16   1 H    1.010 --     9 C    0.988
    17   1 H    1.014 --     9 C    0.985
    18   1 H    1.010 --    10 C    0.988
    19   1 H    1.008 --    10 C    0.986
    20   1 H    1.014 --    10 C    0.985
 ---------------------------------------------------------------------------

           -------------------------------------------------
          | TOTAL ENERGY              -38.355212345440 Eh   |
          | GRADIENT NORM               0.000562537387 Eh/α |
          | HOMO-LUMO GAP               2.121792547573 eV   |
           -------------------------------------------------

 * finished run on 2023/06/20 at 14:54:21.390
