   * xtb version 6.5.1 (579679a) compiled by 'ehlert@majestix' on 2022-07-11
          program call               : /lustre/hpc/kemi/ree/PhD/git/ReactivityQM/dep/xtb-6.5.1/bin/xtb --gfn 1 /lustre/hpc/kemi/ree/PhD/git/ReactivityQM/calculations/R03/reac02prodE10/conf03/R03_reac02prodE10_conf03_gfn1.xyz --opt --vfukui --chrg -1 --uhf 0 --alpb DMSO

   ID    Z sym.   atoms
    1    6 C      1, 3, 5, 7-10, 12, 14, 17-19, 22, 23, 25
    2    8 O      2, 4, 13, 20, 24, 26
    3    7 N      6, 11, 15, 16, 21
    4    1 H      27-46

      * Solvation model:               ALPB
        Solvent                        DMSO
        Solvent mass                       7.8130E+01 g/mol
          :  Hamiltonian                  GFN1-xTB          :
 * total energy  :   -86.9843192 Eh     change       -0.3248601E-09 Eh
 * total energy  :   -86.9977520 Eh     change       -0.1343280E-01 Eh
 * total energy  :   -87.0029174 Eh     change       -0.5165418E-02 Eh
 * total energy  :   -87.0036033 Eh     change       -0.6858442E-03 Eh
 * total energy  :   -87.0041161 Eh     change       -0.5128160E-03 Eh
 * total energy  :   -87.0042643 Eh     change       -0.1482070E-03 Eh
 * total energy  :   -87.0044078 Eh     change       -0.1435067E-03 Eh
 * total energy  :   -87.0044922 Eh     change       -0.8438937E-04 Eh
 * total energy  :   -87.0045536 Eh     change       -0.6136982E-04 Eh
 * total energy  :   -87.0045957 Eh     change       -0.4211141E-04 Eh
 * total energy  :   -87.0046815 Eh     change       -0.1656588E-04 Eh
 * total energy  :   -87.0046946 Eh     change       -0.1313361E-04 Eh
 * total energy  :   -87.0047142 Eh     change       -0.1954168E-04 Eh
 * total energy  :   -87.0047251 Eh     change       -0.1099264E-04 Eh
 * total energy  :   -87.0047338 Eh     change       -0.8681009E-05 Eh
 * total energy  :   -87.0047412 Eh     change       -0.7409448E-05 Eh
 * total energy  :   -87.0047472 Eh     change       -0.5919585E-05 Eh
 * total energy  :   -87.0047526 Eh     change       -0.5404433E-05 Eh
 * total energy  :   -87.0047567 Eh     change       -0.4110834E-05 Eh
   *** GEOMETRY OPTIMIZATION CONVERGED AFTER 22 ITERATIONS ***

 final structure:
================
46
 xtb: 6.5.1 (579679a)
C            6.49379182066578        2.47923234675994        0.02117066078187
O            5.54565053747461        1.53420537479106        0.50524269410853
C            4.43306110729183        1.35952595362001       -0.29452475933590
O            4.31883147733278        1.99610597261098       -1.34129782757450
C            3.48746346461352        0.39586190185556        0.21306007259210
N            2.38726677252992        0.21394276848982       -0.59998292831252
C            1.44206612023850       -0.61180401005322       -0.30302743774585
C            0.31920441631172       -0.74569578647744       -1.33548242652722
C            0.47658093389117       -2.10007775509323       -2.04903667541505
C            0.45755133731528        0.39069695038365       -2.36580366607199
N           -0.96811814234416       -0.65183043194698       -0.64226968319903
C           -2.18039074725119       -0.64115174563180       -1.39970788282568
O           -2.24386040350523       -1.08297192752416       -2.57818762028259
C           -3.27340461001578       -0.16735036967711       -0.67737004035238
N           -4.58762403715586       -0.06179702935584       -1.08292702366120
N           -5.21013180120938        0.45140872111503       -0.02519549393214
C           -6.63155174705355        0.69769989067560       -0.09250830770591
C           -4.41132773469014        0.67980922519792        0.99365971344676
C           -4.75720725662049        1.22645122024750        2.32606094953582
O           -3.15170587982393        0.31173442001315        0.66766501845432
N            1.48048340397452       -1.37024562847261        0.84576056213044
C            0.47203346599340       -2.34072482119867        1.26407758786891
C            2.56733907589540       -1.28396270981098        1.75127449932448
O            2.55813947259816       -2.00989985239542        2.76114598632735
C            3.58228937749015       -0.35204385910079        1.39847549169507
O            4.62603553373537       -0.26329103498668        2.28146978122704
H            6.85109352403711        2.19247433803658       -0.97310922119202
H            7.32570544478433        2.48729970690404        0.72344755344934
H            6.04800929466694        3.47748138764072       -0.03571104705628
H           -0.20076478075865       -2.16186499304691       -2.89927407973394
H            1.50102039172515       -2.20009740722668       -2.40844626107796
H            0.26103629853342       -2.92703254784790       -1.37504066849590
H            1.42340657748122        0.32581567887077       -2.86565864966810
H           -0.33201286896376        0.31359783535986       -3.11164253753983
H            0.38666346426805        1.35728787657211       -1.86821267543226
H           -0.96553494001434        0.07943721337577        0.05882116136880
H           -6.82603686220738        1.76027627377007        0.04533234910719
H           -6.98160876468290        0.37821139378239       -1.07113615601555
H           -7.13777743249982        0.13341761240930        0.68896412183276
H           -5.26107248196228        0.47506342326620        2.93792579984585
H           -5.42525167756607        2.08141615661650        2.22725992019420
H           -3.84653638221949        1.53598323788486        2.83500795163640
H            0.90480489293644       -3.34386433238122        1.24581171811820
H            0.16963313621039       -2.11284376593583        2.28847025933718
H           -0.40074439986609       -2.30256678041777        0.62034077610158
H            5.27350060841596        0.39667690833654        1.98545644067450

          :  Hamiltonian                  GFN1-xTB          :
         :: total energy             -87.004756672144 Eh    ::
         :: gradient norm              0.000488802802 Eh/a0 ::
         :: HOMO-LUMO gap              0.039567237876 eV    ::
         :: SCC energy               -87.794484003316 Eh    ::
         :: -> Gsolv                  -0.128431002740 Eh    ::
         :: repulsion energy           0.818162112675 Eh    ::

    * Orbital Energies and Occupations

         #    Occupation            Energy/Eh            Energy/eV
      -------------------------------------------------------------
         1        2.0000           -0.8382615             -22.8103
       ...           ...                  ...                  ...
        59        2.0000           -0.4705156             -12.8034
        60        2.0000           -0.4646534             -12.6439
        61        2.0000           -0.4628800             -12.5956
        62        2.0000           -0.4461030             -12.1391
        63        2.0000           -0.4368926             -11.8885
        64        2.0000           -0.4267643             -11.6128
        65        2.0000           -0.4179586             -11.3732
        66        2.0000           -0.4132042             -11.2439
        67        2.0000           -0.4030149             -10.9666
        68        2.0000           -0.4018523             -10.9350
        69        2.0000           -0.3872831             -10.5385
        70        2.0000           -0.3816517             -10.3853
        71        1.3650           -0.2895173              -7.8782 (HOMO)
        72        0.6350           -0.2880633              -7.8386 (LUMO)
        73                         -0.2596827              -7.0663
        74                         -0.2361585              -6.4262
        75                         -0.1947556              -5.2996
        76                         -0.1531440              -4.1673
        77                         -0.1458170              -3.9679
        78                         -0.1383333              -3.7642
        79                         -0.1199957              -3.2653
        80                         -0.1150395              -3.1304
        81                         -0.1108806              -3.0172
        82                         -0.1003924              -2.7318
       ...                                ...                  ...
       144                          0.6986005              19.0099
      -------------------------------------------------------------
                  HL-Gap            0.0014541 Eh            0.0396 eV

Wiberg/Mayer (AO) data.
largest (>0.10) Wiberg bond orders for each atom

     #   Z sym  total        # sym  WBO       # sym  WBO       # sym  WBO
 ---------------------------------------------------------------------------
     1   6 C    3.893 --    28 H    0.987    29 H    0.981    27 H    0.981
                             2 O    0.918
     2   8 O    2.115 --     3 C    0.987     1 C    0.918
     3   6 C    3.732 --     4 O    1.542     5 C    1.137     2 O    0.987
     4   8 O    1.765 --     3 C    1.542
     5   6 C    3.818 --    25 C    1.309     6 N    1.148     3 C    1.137
     6   7 N    3.009 --     7 C    1.596     5 C    1.148
     7   6 C    3.903 --     6 N    1.596    21 N    1.145     8 C    0.971
     8   6 C    3.956 --    10 C    0.990     9 C    0.985     7 C    0.971
                            11 N    0.953
     9   6 C    3.992 --    31 H    0.988     8 C    0.985    32 H    0.983
                            30 H    0.978
    10   6 C    3.993 --     8 C    0.990    35 H    0.986    33 H    0.985
                            34 H    0.982
    11   7 N    3.111 --    12 C    1.007     8 C    0.953    36 H    0.926
    12   6 C    3.808 --    13 O    1.389    14 C    1.309    11 N    1.007
    13   8 O    1.653 --    12 C    1.389
    14   6 C    3.565 --    12 C    1.309    15 N    1.195    20 O    0.878
    15   7 N    2.694 --    14 C    1.195    16 N    1.174    18 C    0.206
    16   7 N    3.638 --    18 C    1.395    15 N    1.174    17 C    0.940
    17   6 C    3.937 --    38 H    0.983    39 H    0.979    37 H    0.978
                            16 N    0.940
    18   6 C    3.770 --    16 N    1.395    20 O    1.062    19 C    1.029
                            15 N    0.206
    19   6 C    3.987 --    18 C    1.029    42 H    0.979    41 H    0.973
                            40 H    0.962
    20   8 O    2.108 --    18 C    1.062    14 C    0.878
    21   7 N    3.361 --     7 C    1.145    23 C    1.034    22 C    0.945
                            24 O    0.103
    22   6 C    3.942 --    43 H    0.980    44 H    0.979    45 H    0.974
                            21 N    0.945
    23   6 C    3.839 --    24 O    1.477    25 C    1.205    21 N    1.034
    24   8 O    1.753 --    23 C    1.477    21 N    0.103
    25   6 C    3.728 --     5 C    1.309    23 C    1.205    26 O    1.032
    26   8 O    1.980 --    25 C    1.032    46 H    0.824
    27   1 H    1.013 --     1 C    0.981
    28   1 H    1.014 --     1 C    0.987
    29   1 H    1.012 --     1 C    0.981
    30   1 H    1.024 --     9 C    0.978
    31   1 H    1.007 --     9 C    0.988
    32   1 H    1.007 --     9 C    0.983
    33   1 H    1.019 --    10 C    0.985
    34   1 H    1.017 --    10 C    0.982
    35   1 H    1.013 --    10 C    0.986
    36   1 H    0.966 --    11 N    0.926
    37   1 H    0.999 --    17 C    0.978
    38   1 H    1.007 --    17 C    0.983
    39   1 H    0.999 --    17 C    0.979
    40   1 H    0.995 --    19 C    0.962
    41   1 H    0.997 --    19 C    0.973
    42   1 H    0.997 --    19 C    0.979
    43   1 H    1.009 --    22 C    0.980
    44   1 H    1.012 --    22 C    0.979
    45   1 H    1.026 --    22 C    0.974
    46   1 H    0.879 --    26 O    0.824
 ---------------------------------------------------------------------------

           -------------------------------------------------
          | TOTAL ENERGY              -87.004756672144 Eh   |
          | GRADIENT NORM               0.000488802802 Eh/α |
          | HOMO-LUMO GAP               0.039567237876 eV   |
           -------------------------------------------------

 * finished run on 2023/06/20 at 15:30:01.445
