   * xtb version 6.5.1 (579679a) compiled by 'ehlert@majestix' on 2022-07-11
          program call               : /lustre/hpc/kemi/ree/PhD/git/ReactivityQM/dep/xtb-6.5.1/bin/xtb --gfn 1 /lustre/hpc/kemi/ree/PhD/git/ReactivityQM/calculations/R03/reac01prodE03/conf01/R03_reac01prodE03_conf01_gfn1.xyz --opt --vfukui --chrg -1 --uhf 0 --alpb DMSO

   ID    Z sym.   atoms
    1    6 C      1-5, 7-9
    2    7 N      6
    3    9 F      10
    4    1 H      11-21

      * Solvation model:               ALPB
        Solvent                        DMSO
        Solvent mass                       7.8130E+01 g/mol
          :  Hamiltonian                  GFN1-xTB          :
 * total energy  :   -31.4512244 Eh     change       -0.2980727E-11 Eh
 * total energy  :   -31.4568851 Eh     change       -0.5660639E-02 Eh
 * total energy  :   -31.4580640 Eh     change       -0.1178900E-02 Eh
 * total energy  :   -31.4582097 Eh     change       -0.1457541E-03 Eh
 * total energy  :   -31.4582842 Eh     change       -0.7447983E-04 Eh
 * total energy  :   -31.4583353 Eh     change       -0.5110291E-04 Eh
 * total energy  :   -31.4583842 Eh     change       -0.4892214E-04 Eh
 * total energy  :   -31.4584388 Eh     change       -0.5461291E-04 Eh
 * total energy  :   -31.4584714 Eh     change       -0.3258330E-04 Eh
 * total energy  :   -31.4584887 Eh     change       -0.1726591E-04 Eh
 * total energy  :   -31.4584932 Eh     change       -0.4471160E-05 Eh
   *** GEOMETRY OPTIMIZATION CONVERGED AFTER 11 ITERATIONS ***

 final structure:
================
21
 xtb: 6.5.1 (579679a)
C           -2.41850497395629       -1.19843102623819        0.40772477495280
C           -1.45070055288254       -0.45995821121803       -0.57329973613005
C           -0.00097499139118       -0.80699862555908       -0.29153338719442
C            0.88743972161464        0.07476715885713        0.26940785261404
C            2.29881428511040       -0.39918875913741        0.56992120915987
N            3.20602238391888       -0.17545292374949       -0.56963123408885
C            0.57307520097672        1.42933640838071        0.50528579477914
C           -0.69910396270666        1.88835432199295        0.08033888510821
C           -1.59023086258711        1.02792362484926       -0.45612122467103
F           -2.80694522568098        1.52053729398359       -0.92895166457064
H           -2.18010633900714       -0.93187063343060        1.43820640311718
H           -3.45352527155799       -0.92062730396391        0.20149763587900
H           -2.31399157512440       -2.27804263938255        0.29338964445166
H           -1.74286017192300       -0.79199212416334       -1.59053900599690
H            0.29227857514819       -1.83352076665177       -0.49748785956839
H            2.31356545978489       -1.47224114654712        0.80383512700313
H            2.71052103249934        0.13652742595645        1.43585188648231
H            2.84384990072461       -0.67921274324397       -1.37127246198079
H            3.18528638938791        0.81012530075343       -0.80728957287428
H            1.29540374091894        2.11531720056204        0.93163690199682
H           -0.94931176326760        2.94464616794941        0.14903303153131

          :  Hamiltonian                  GFN1-xTB          :
         :: total energy             -31.458493166459 Eh    ::
         :: gradient norm              0.000570198169 Eh/a0 ::
         :: HOMO-LUMO gap              2.553282083261 eV    ::
         :: SCC energy               -31.828503693286 Eh    ::
         :: -> Gsolv                  -0.077251181314 Eh    ::
         :: repulsion energy           0.380021654239 Eh    ::

    * Orbital Energies and Occupations

         #    Occupation            Energy/Eh            Energy/eV
      -------------------------------------------------------------
         1        2.0000           -0.7794672             -21.2104
       ...           ...                  ...                  ...
        16        2.0000           -0.4811039             -13.0915
        17        2.0000           -0.4770238             -12.9805
        18        2.0000           -0.4674350             -12.7196
        19        2.0000           -0.4610059             -12.5446
        20        2.0000           -0.4546656             -12.3721
        21        2.0000           -0.4454946             -12.1225
        22        2.0000           -0.4304424             -11.7129
        23        2.0000           -0.4210997             -11.4587
        24        2.0000           -0.4028189             -10.9613
        25        2.0000           -0.3990558             -10.8589
        26        2.0000           -0.3727315             -10.1425
        27        2.0000           -0.3569120              -9.7121
        28        2.0000           -0.2701652              -7.3516 (HOMO)
        29                         -0.1763338              -4.7983 (LUMO)
        30                         -0.1105569              -3.0084
        31                         -0.0825338              -2.2459
        32                         -0.0766234              -2.0850
        33                         -0.0667017              -1.8150
        34                         -0.0601451              -1.6366
        35                         -0.0489982              -1.3333
        36                         -0.0447598              -1.2180
        37                         -0.0328865              -0.8949
        38                         -0.0219307              -0.5968
        39                         -0.0140065              -0.3811
       ...                                ...                  ...
        62                          0.6661612              18.1272
      -------------------------------------------------------------
                  HL-Gap            0.0938314 Eh            2.5533 eV

Wiberg/Mayer (AO) data.
largest (>0.10) Wiberg bond orders for each atom

     #   Z sym  total        # sym  WBO       # sym  WBO       # sym  WBO
 ---------------------------------------------------------------------------
     1   6 C    3.992 --    11 H    0.989    13 H    0.988    12 H    0.988
                             2 C    0.963
     2   6 C    3.993 --     9 C    1.008     3 C    1.001    14 H    0.967
                             1 C    0.963
     3   6 C    3.905 --     4 C    1.577     2 C    1.001    15 H    0.975
                             7 C    0.117
     4   6 C    3.986 --     3 C    1.577     7 C    1.316     5 C    0.989
     5   6 C    3.967 --     4 C    0.989    16 H    0.982    17 H    0.981
                             6 N    0.976
     6   7 N    2.946 --     5 C    0.976    18 H    0.957    19 H    0.956
     7   6 C    3.881 --     4 C    1.316     8 C    1.271    20 H    0.976
                             3 C    0.117     9 C    0.108
     8   6 C    3.989 --     9 C    1.628     7 C    1.271    21 H    0.972
     9   6 C    3.768 --     8 C    1.628     2 C    1.008    10 F    0.833
                             7 C    0.108
    10   9 F    0.941 --     9 C    0.833
    11   1 H    1.025 --     1 C    0.989
    12   1 H    1.014 --     1 C    0.988
    13   1 H    1.015 --     1 C    0.988
    14   1 H    1.024 --     2 C    0.967
    15   1 H    1.002 --     3 C    0.975
    16   1 H    1.017 --     5 C    0.982
    17   1 H    1.018 --     5 C    0.981
    18   1 H    0.977 --     6 N    0.957
    19   1 H    0.977 --     6 N    0.956
    20   1 H    1.003 --     7 C    0.976
    21   1 H    1.008 --     8 C    0.972
 ---------------------------------------------------------------------------

           -------------------------------------------------
          | TOTAL ENERGY              -31.458493166459 Eh   |
          | GRADIENT NORM               0.000570198169 Eh/α |
          | HOMO-LUMO GAP               2.553282083261 eV   |
           -------------------------------------------------

 * finished run on 2023/06/20 at 15:13:24.963
