   * xtb version 6.5.1 (579679a) compiled by 'ehlert@majestix' on 2022-07-11
          program call               : /lustre/hpc/kemi/ree/PhD/git/ReactivityQM/dep/xtb-6.5.1/bin/xtb --gfn 1 /lustre/hpc/kemi/ree/PhD/git/ReactivityQM/calculations/R02oxygendeprot/reac01prodN10/conf18/R02oxygendeprot_reac01prodN10_conf18_gfn1.xyz --opt --vfukui --chrg 0 --uhf 0 --alpb DMSO

   ID    Z sym.   atoms
    1    6 C      1, 3, 5, 6, 8, 11-15, 17, 19, 22, 23
    2    8 O      2, 4, 7, 9, 18, 24
    3    7 N      10, 16, 20, 21, 25
    4    1 H      26-42

      * Solvation model:               ALPB
        Solvent                        DMSO
        Solvent mass                       7.8130E+01 g/mol
          :  Hamiltonian                  GFN1-xTB          :
 * total energy  :   -82.9629322 Eh     change       -0.1483613E-10 Eh
 * total energy  :   -82.9752350 Eh     change       -0.1230283E-01 Eh
 * total energy  :   -82.9807796 Eh     change       -0.5544642E-02 Eh
 * total energy  :   -82.9819957 Eh     change       -0.1216001E-02 Eh
 * total energy  :   -82.9826746 Eh     change       -0.6789705E-03 Eh
 * total energy  :   -82.9830148 Eh     change       -0.3402194E-03 Eh
 * total energy  :   -82.9831988 Eh     change       -0.1839350E-03 Eh
 * total energy  :   -82.9833059 Eh     change       -0.1071698E-03 Eh
 * total energy  :   -82.9833947 Eh     change       -0.8874547E-04 Eh
 * total energy  :   -82.9834760 Eh     change       -0.8129494E-04 Eh
 * total energy  :   -82.9837463 Eh     change       -0.1805638E-04 Eh
 * total energy  :   -82.9837585 Eh     change       -0.1226762E-04 Eh
 * total energy  :   -82.9837673 Eh     change       -0.8779524E-05 Eh
 * total energy  :   -82.9837734 Eh     change       -0.6141452E-05 Eh
 * total energy  :   -82.9837839 Eh     change       -0.1041642E-04 Eh
 * total energy  :   -82.9837887 Eh     change       -0.4851098E-05 Eh
 * total energy  :   -82.9837960 Eh     change       -0.7290612E-05 Eh
 * total energy  :   -82.9838022 Eh     change       -0.6177641E-05 Eh
 * total energy  :   -82.9838060 Eh     change       -0.3857746E-05 Eh
   *** GEOMETRY OPTIMIZATION CONVERGED AFTER 29 ITERATIONS ***

 final structure:
================
42
 xtb: 6.5.1 (579679a)
C            4.30711829451274       -0.15525909193632        3.47117511963601
O            3.97874790597154        0.07149346360381        2.09390037744971
C            2.73540173104592        0.42186269040095        1.82513977642245
O            1.86407930601658        0.55518554995498        2.64635987011937
C            2.50471405166505        0.62612117738114        0.33968844378639
C            3.63575438293489        0.91823264675510       -0.58800075424500
O            4.67884644724819        1.41132183507796       -0.24435254131153
C            3.33339678017327        0.58096209610797       -2.05035110596125
O            4.20087461049907        0.38292979664840       -2.87577363574638
N            2.01594152414222        0.50493712805911       -2.33194159540730
C            0.92191021481325        0.76980186859355       -1.41812687328096
C            0.49514712797627        2.24133880436185       -1.54585371688807
C           -0.24868055622231       -0.22443446814535       -1.70794128879855
C            0.27058785235257       -1.66390539385200       -1.61127620543315
C           -0.89806203249805        0.03648418373491       -3.06780629757367
N           -1.22087309743630        0.00690682926556       -0.64024103866083
C           -2.39798835187478       -0.64974691272653       -0.54357379655095
O           -2.87490437482080       -1.38900980661538       -1.38511202981894
C           -3.06614742386095       -0.33330080832820        0.74542764922170
N           -2.58348281235509        0.40860560983359        1.69617011560249
N           -3.51055296742193        0.42028651273141        2.69441122619507
C           -4.49954188726366       -0.31759380606204        2.28919630678706
C           -5.75185461209586       -0.62593442517135        3.01405932547693
O           -4.27758748703609       -0.82270124645440        1.06685287036017
N            1.29234906946879        0.57301584218947       -0.05048925034014
H            4.09994516829535        0.74380858362925        4.05493982461227
H            5.36759484560972       -0.39489927009824        3.50002411497503
H            3.71618147409588       -0.98678166490552        3.86014771166798
H            1.78183072059390        0.39677153307250       -3.30693061014727
H           -0.40112727444616        2.42112635393752       -0.95667553641438
H            0.29915585745019        2.47614851411913       -2.58865414871090
H            1.29976343621979        2.87795977055434       -1.18246095468262
H            1.02869596749556       -1.83680241849986       -2.37208288157584
H           -0.55141804221102       -2.36048846889052       -1.76742729258432
H            0.70409358825633       -1.83729430888928       -0.62714213770571
H           -1.62376747950554       -0.74610657282095       -3.28304147313629
H           -0.14640707389645        0.03156297332817       -3.85425944710830
H           -1.41189531139318        0.99568577457878       -3.07135775418583
H           -0.87101301993765        0.46072447075133        0.19615279048778
H           -6.61126575783333       -0.42308956309371        2.37621544704302
H           -5.81092218994111       -0.02101023316850        3.91550113984983
H           -5.77464260478952       -1.68178854901138        3.28551025657252

          :  Hamiltonian                  GFN1-xTB          :
         :: total energy             -82.983806033829 Eh    ::
         :: gradient norm              0.000526806840 Eh/a0 ::
         :: HOMO-LUMO gap              1.760233134905 eV    ::
         :: SCC energy               -83.764755566845 Eh    ::
         :: -> Gsolv                  -0.053343574819 Eh    ::
         :: repulsion energy           0.808252962299 Eh    ::

    * Orbital Energies and Occupations

         #    Occupation            Energy/Eh            Energy/eV
      -------------------------------------------------------------
         1        2.0000           -0.8651129             -23.5409
       ...           ...                  ...                  ...
        55        2.0000           -0.5083477             -13.8328
        56        2.0000           -0.5072612             -13.8033
        57        2.0000           -0.5056470             -13.7594
        58        2.0000           -0.5023838             -13.6706
        59        2.0000           -0.4976779             -13.5425
        60        2.0000           -0.4843223             -13.1791
        61        2.0000           -0.4836914             -13.1619
        62        2.0000           -0.4713860             -12.8271
        63        2.0000           -0.4656738             -12.6716
        64        2.0000           -0.4610945             -12.5470
        65        2.0000           -0.4538145             -12.3489
        66        2.0000           -0.4485184             -12.2048
        67        2.0000           -0.4402278             -11.9792 (HOMO)
        68                         -0.3755405             -10.2190 (LUMO)
        69                         -0.3216159              -8.7516
        70                         -0.3126664              -8.5081
        71                         -0.2582881              -7.0284
        72                         -0.2526187              -6.8741
        73                         -0.2070050              -5.6329
        74                         -0.2009560              -5.4683
        75                         -0.1441098              -3.9214
        76                         -0.1435301              -3.9057
        77                         -0.1433002              -3.8994
        78                         -0.1392917              -3.7903
       ...                                ...                  ...
       134                          0.7653154              20.8253
      -------------------------------------------------------------
                  HL-Gap            0.0646874 Eh            1.7602 eV

Wiberg/Mayer (AO) data.
largest (>0.10) Wiberg bond orders for each atom

     #   Z sym  total        # sym  WBO       # sym  WBO       # sym  WBO
 ---------------------------------------------------------------------------
     1   6 C    3.859 --    27 H    0.985    26 H    0.979    28 H    0.978
                             2 O    0.884
     2   8 O    2.226 --     3 C    1.149     1 C    0.884     4 O    0.147
     3   6 C    3.854 --     4 O    1.684     2 O    1.149     5 C    0.944
     4   8 O    1.948 --     3 C    1.684     2 O    0.147
     5   6 C    3.952 --    25 N    1.790     6 C    0.992     3 C    0.944
     6   6 C    3.856 --     7 O    1.806     5 C    0.992     8 C    0.906
     7   8 O    2.011 --     6 C    1.806
     8   6 C    3.904 --     9 O    1.635    10 N    1.248     6 C    0.906
     9   8 O    1.929 --     8 C    1.635    10 N    0.185
    10   7 N    3.363 --     8 C    1.248    11 C    0.940    29 H    0.882
                             9 O    0.185
    11   6 C    3.913 --    25 N    1.000    12 C    0.947    10 N    0.940
                            13 C    0.929
    12   6 C    3.982 --    32 H    0.982    30 H    0.981    31 H    0.980
                            11 C    0.947
    13   6 C    3.929 --    15 C    0.999    14 C    0.991    16 N    0.934
                            11 C    0.929
    14   6 C    3.990 --    13 C    0.991    33 H    0.984    35 H    0.984
                            34 H    0.981
    15   6 C    3.989 --    13 C    0.999    38 H    0.982    37 H    0.981
                            36 H    0.974
    16   7 N    3.339 --    17 C    1.244    13 C    0.934    39 H    0.886
                            18 O    0.175
    17   6 C    3.916 --    18 O    1.599    16 N    1.244    19 C    0.989
    18   8 O    1.915 --    17 C    1.599    16 N    0.175
    19   6 C    3.875 --    20 N    1.611    24 O    1.064    17 C    0.989
    20   7 N    3.017 --    19 C    1.611    21 N    1.200
    21   7 N    2.981 --    22 C    1.604    20 N    1.200
    22   6 C    3.871 --    21 N    1.604    24 O    1.083    23 C    1.031
    23   6 C    3.986 --    22 C    1.031    41 H    0.982    40 H    0.967
                            42 H    0.960
    24   8 O    2.330 --    22 C    1.083    19 C    1.064
    25   7 N    3.064 --     5 C    1.790    11 C    1.000
    26   1 H    1.004 --     1 C    0.979
    27   1 H    1.008 --     1 C    0.985
    28   1 H    1.004 --     1 C    0.978
    29   1 H    0.929 --    10 N    0.882
    30   1 H    0.999 --    12 C    0.981
    31   1 H    0.999 --    12 C    0.980
    32   1 H    0.999 --    12 C    0.982
    33   1 H    1.002 --    14 C    0.984
    34   1 H    1.004 --    14 C    0.981
    35   1 H    1.004 --    14 C    0.984
    36   1 H    1.009 --    15 C    0.974
    37   1 H    0.998 --    15 C    0.981
    38   1 H    1.001 --    15 C    0.982
    39   1 H    0.969 --    16 N    0.886
    40   1 H    0.997 --    23 C    0.967
    41   1 H    0.998 --    23 C    0.982
    42   1 H    0.997 --    23 C    0.960
 ---------------------------------------------------------------------------

           -------------------------------------------------
          | TOTAL ENERGY              -82.983806033829 Eh   |
          | GRADIENT NORM               0.000526806840 Eh/α |
          | HOMO-LUMO GAP               1.760233134905 eV   |
           -------------------------------------------------

 * finished run on 2023/06/21 at 17:25:36.333
