   * xtb version 6.5.1 (579679a) compiled by 'ehlert@majestix' on 2022-07-11
          program call               : /lustre/hpc/kemi/ree/PhD/git/ReactivityQM/dep/xtb-6.5.1/bin/xtb --gfn 1 /lustre/hpc/kemi/ree/PhD/git/ReactivityQM/calculations/R01/reac01prodN05/conf16/R01_reac01prodN05_conf16_gfn1.xyz --opt --vfukui --chrg 1 --uhf 0 --alpb DMSO

   ID    Z sym.   atoms
    1    6 C      1, 3, 4, 6, 9, 10
    2    8 O      2, 5, 11
    3    7 N      7, 8
    4    1 H      12-20

      * Solvation model:               ALPB
        Solvent                        DMSO
        Solvent mass                       7.8130E+01 g/mol
          :  Hamiltonian                  GFN1-xTB          :
 * total energy  :   -37.4468804 Eh     change       -0.3026912E-10 Eh
 * total energy  :   -37.4641645 Eh     change       -0.1728413E-01 Eh
 * total energy  :   -37.4784115 Eh     change       -0.1424693E-01 Eh
 * total energy  :   -37.4846676 Eh     change       -0.6256130E-02 Eh
 * total energy  :   -37.5003753 Eh     change       -0.1570772E-01 Eh
 * total energy  :   -37.4954331 Eh     change        0.4942280E-02 Eh
 * total energy  :   -37.5152584 Eh     change       -0.1982536E-01 Eh
 * total energy  :   -37.5177844 Eh     change       -0.2525949E-02 Eh
 * total energy  :   -37.5382264 Eh     change       -0.2044201E-01 Eh
 * total energy  :   -37.5498826 Eh     change       -0.1165619E-01 Eh
 * total energy  :   -37.6263038 Eh     change       -0.9389380E-05 Eh
 * total energy  :   -37.6263362 Eh     change       -0.3237333E-04 Eh
 * total energy  :   -37.6263383 Eh     change       -0.2119717E-05 Eh
 * total energy  :   -37.6263492 Eh     change       -0.1088182E-04 Eh
 * total energy  :   -37.6263556 Eh     change       -0.6390882E-05 Eh
 * total energy  :   -37.6263623 Eh     change       -0.6690226E-05 Eh
 * total energy  :   -37.6263604 Eh     change        0.1858228E-05 Eh
 * total energy  :   -37.6263706 Eh     change       -0.1021698E-04 Eh
 * total energy  :   -37.6263730 Eh     change       -0.2320055E-05 Eh
   *** GEOMETRY OPTIMIZATION CONVERGED AFTER 81 ITERATIONS ***

 final structure:
================
20
 xtb: 6.5.1 (579679a)
C           -2.95204366060726        1.75676323866734       -0.03955043484070
O           -2.90414733246254        0.33327484769698       -0.28420734485977
C           -1.81592565705846       -0.31342474985451       -0.26461011618272
C           -1.83214038200881       -1.75810337066332       -0.53213426084879
O           -0.72715528028593        0.35454784167234       -0.00645051266316
C            0.52479408558630       -0.16372528752792        0.04601695854951
N            0.91223625813384       -1.37725335592261       -0.15011474721498
N            2.26600701361219       -1.35389843978931        0.02273690086665
C            2.59675079056170       -0.13318785163257        0.30978145602050
C            3.94069714758419        0.41063263985443        0.58609199237957
O            1.51406676996832        0.67799902134764        0.33839919156443
H           -2.29646949900745        2.26250751055227       -0.74798154435861
H           -3.99098902082845        2.04383535981134       -0.18198706144932
H           -2.62235447721470        1.95201758491097        0.98066156212405
H           -1.39162085325049       -2.28646223911301        0.31658397152767
H           -2.84919376158760       -2.09691475175739       -0.71555581443136
H           -1.19112344722134       -1.96932641987535       -1.39127081021250
H            4.17605982541898        1.19660992711828       -0.13186202240715
H            4.67819076055994       -0.38556784693665        0.51624226773399
H            3.96436272010761        0.84967634144177        1.58382936870299

          :  Hamiltonian                  GFN1-xTB          :
         :: total energy             -37.626372957427 Eh    ::
         :: gradient norm              0.000451113833 Eh/a0 ::
         :: HOMO-LUMO gap              2.892490474496 eV    ::
         :: SCC energy               -37.972829910196 Eh    ::
         :: -> Gsolv                  -0.079132007882 Eh    ::
         :: repulsion energy           0.354346595368 Eh    ::

    * Orbital Energies and Occupations

         #    Occupation            Energy/Eh            Energy/eV
      -------------------------------------------------------------
         1        2.0000           -0.9508629             -25.8743
       ...           ...                  ...                  ...
        18        2.0000           -0.6237240             -16.9724
        19        2.0000           -0.5976724             -16.2635
        20        2.0000           -0.5957106             -16.2101
        21        2.0000           -0.5870885             -15.9755
        22        2.0000           -0.5693989             -15.4941
        23        2.0000           -0.5646196             -15.3641
        24        2.0000           -0.5617477             -15.2859
        25        2.0000           -0.5587788             -15.2051
        26        2.0000           -0.5507868             -14.9877
        27        2.0000           -0.5436034             -14.7922
        28        2.0000           -0.5188045             -14.1174
        29        2.0000           -0.4933879             -13.4258
        30        2.0000           -0.4863469             -13.2342 (HOMO)
        31                         -0.3800498             -10.3417 (LUMO)
        32                         -0.2949288              -8.0254
        33                         -0.2830309              -7.7017
        34                         -0.1815328              -4.9398
        35                         -0.1673094              -4.5527
        36                         -0.1544243              -4.2021
        37                         -0.1157145              -3.1488
        38                         -0.1080259              -2.9395
        39                         -0.1076072              -2.9281
        40                         -0.1037159              -2.8223
        41                         -0.0858360              -2.3357
       ...                                ...                  ...
        62                          0.5786116              15.7448
      -------------------------------------------------------------
                  HL-Gap            0.1062971 Eh            2.8925 eV

Wiberg/Mayer (AO) data.
largest (>0.10) Wiberg bond orders for each atom

     #   Z sym  total        # sym  WBO       # sym  WBO       # sym  WBO
 ---------------------------------------------------------------------------
     1   6 C    3.799 --    13 H    0.980    12 H    0.970    14 H    0.968
                             2 O    0.831
     2   8 O    2.352 --     3 C    1.348     1 C    0.831
     3   6 C    3.768 --     2 O    1.348     5 O    1.182     4 C    1.051
     4   6 C    3.960 --     3 C    1.051    16 H    0.972    15 H    0.927
                            17 H    0.926
     5   8 O    2.359 --     3 C    1.182     6 C    0.961
     6   6 C    3.818 --     7 N    1.594    11 O    1.086     5 O    0.961
     7   7 N    3.022 --     6 C    1.594     8 N    1.177
     8   7 N    2.979 --     9 C    1.622     7 N    1.177
     9   6 C    3.842 --     8 N    1.622    11 O    1.041    10 C    1.037
    10   6 C    3.977 --     9 C    1.037    19 H    0.979    18 H    0.957
                            20 H    0.957
    11   8 O    2.330 --     6 C    1.086     9 C    1.041
    12   1 H    0.994 --     1 C    0.970
    13   1 H    0.998 --     1 C    0.980
    14   1 H    0.993 --     1 C    0.968
    15   1 H    0.993 --     4 C    0.927
    16   1 H    0.985 --     4 C    0.972
    17   1 H    0.993 --     4 C    0.926
    18   1 H    0.992 --    10 C    0.957
    19   1 H    0.994 --    10 C    0.979
    20   1 H    0.992 --    10 C    0.957
 ---------------------------------------------------------------------------

           -------------------------------------------------
          | TOTAL ENERGY              -37.626372957427 Eh   |
          | GRADIENT NORM               0.000451113833 Eh/α |
          | HOMO-LUMO GAP               2.892490474496 eV   |
           -------------------------------------------------

 * finished run on 2023/06/20 at 14:56:07.743
