                         Program Version 5.0.1 -  RELEASE  -
|  1> # ORCA input file
|  2> ! SP r2SCAN-3c CPCM
|  3>
|  4> %maxcore 1875.0
|  5> %pal nprocs 4 end
|  6> %cpcm smd true SMDsolvent "DMSO" end
|  7>
|  8> *xyz 1 1
|  9> C      -5.799812    1.510152   -2.358017
| 10> O      -4.652534    1.009961   -1.657338
| 11> C      -4.672003    1.098622   -0.341113
| 12> O      -5.594119    1.582230    0.290728
| 13> C      -3.459848    0.548047    0.319136
| 14> N      -2.474990    0.048159   -0.482158
| 15> C      -1.413525   -0.446643    0.066362
| 16> C      -0.338074   -1.057296   -0.802653
| 17> C      -0.464847   -2.582895   -0.770462
| 18> C      -0.437663   -0.517294   -2.232564
| 19> N       0.974236   -0.705843   -0.246718
| 20> C       1.293350    0.567424    0.036662
| 21> O       0.552351    1.524690   -0.020665
| 22> C       2.727146    0.711481    0.465622
| 23> N       3.311973    1.890186    0.832786
| 24> N       4.527033    1.653325    1.090491
| 25> C       4.813689    0.273359    0.892783
| 26> C       5.257934   -0.390863    2.201185
| 27> C       5.836753    0.087139   -0.235444
| 28> O       3.553717   -0.265299    0.483700
| 29> N      -1.244771   -0.500331    1.413151
| 30> C      -2.152477   -0.003423    2.337294
| 31> O      -1.928406   -0.059270    3.528919
| 32> C      -3.351936    0.557440    1.696089
| 33> O      -4.276290    1.046420    2.506790
| 34> H      -5.571461    1.430447   -3.418704
| 35> H      -5.981593    2.550707   -2.080534
| 36> H      -6.675742    0.907612   -2.108402
| 37> H      -1.439193   -2.876495   -1.158129
| 38> H       0.311670   -3.029906   -1.387714
| 39> H      -0.362746   -2.946448    0.250196
| 40> H      -1.398681   -0.806116   -2.654899
| 41> H      -0.364673    0.569270   -2.227946
| 42> H       0.365898   -0.931684   -2.836686
| 43> H       1.681953   -1.418979   -0.205916
| 44> H       4.496917   -0.230683    2.961703
| 45> H       6.199804    0.050953    2.517537
| 46> H       5.385554   -1.455941    2.025345
| 47> H       5.463843    0.563793   -1.139513
| 48> H       5.973581   -0.977327   -0.409561
| 49> H       6.777709    0.541468    0.065216
| 50> H      -0.404500   -0.912361    1.786859
| 51> H      -5.045224    1.392213    1.987828
| 52> **                         ****END OF INPUT****

CARTESIAN COORDINATES (ANGSTROEM)
---------------------------------
  C     -5.799812    1.510152   -2.358017
  O     -4.652534    1.009961   -1.657338
  C     -4.672003    1.098622   -0.341113
  O     -5.594119    1.582230    0.290728
  C     -3.459848    0.548047    0.319136
  N     -2.474990    0.048159   -0.482158
  C     -1.413525   -0.446643    0.066362
  C     -0.338074   -1.057296   -0.802653
  C     -0.464847   -2.582895   -0.770462
  C     -0.437663   -0.517294   -2.232564
  N      0.974236   -0.705843   -0.246718
  C      1.293350    0.567424    0.036662
  O      0.552351    1.524690   -0.020665
  C      2.727146    0.711481    0.465622
  N      3.311973    1.890186    0.832786
  N      4.527033    1.653325    1.090491
  C      4.813689    0.273359    0.892783
  C      5.257934   -0.390863    2.201185
  C      5.836753    0.087139   -0.235444
  O      3.553717   -0.265299    0.483700
  N     -1.244771   -0.500331    1.413151
  C     -2.152477   -0.003423    2.337294
  O     -1.928406   -0.059270    3.528919
  C     -3.351936    0.557440    1.696089
  O     -4.276290    1.046420    2.506790
  H     -5.571461    1.430447   -3.418704
  H     -5.981593    2.550707   -2.080534
  H     -6.675742    0.907612   -2.108402
  H     -1.439193   -2.876495   -1.158129
  H      0.311670   -3.029906   -1.387714
  H     -0.362746   -2.946448    0.250196
  H     -1.398681   -0.806116   -2.654899
  H     -0.364673    0.569270   -2.227946
  H      0.365898   -0.931684   -2.836686
  H      1.681953   -1.418979   -0.205916
  H      4.496917   -0.230683    2.961703
  H      6.199804    0.050953    2.517537
  H      5.385554   -1.455941    2.025345
  H      5.463843    0.563793   -1.139513
  H      5.973581   -0.977327   -0.409561
  H      6.777709    0.541468    0.065216
  H     -0.404500   -0.912361    1.786859
  H     -5.045224    1.392213    1.987828

 Total Charge           Charge          ....    1
 Multiplicity           Mult            ....    1
 Number of Electrons    NEL             ....  184
 Basis Dimension        Dim             ....  620

ORBITAL ENERGIES
----------------

  NO   OCC          E(Eh)            E(eV)
   0   2.0000     -19.118949      -520.2530
   1   2.0000     -19.017549      -517.4938
   2   2.0000     -19.010123      -517.2917
   3   2.0000     -18.972099      -516.2571
   4   2.0000     -18.964732      -516.0566
   5   2.0000     -18.943389      -515.4758
   6   2.0000     -14.288845      -388.8192
   7   2.0000     -14.277407      -388.5080
   8   2.0000     -14.236163      -387.3857
   9   2.0000     -14.236050      -387.3826
  10   2.0000     -14.178480      -385.8161
  11   2.0000     -10.235327      -278.5174
  12   2.0000     -10.193771      -277.3866
  13   2.0000     -10.190768      -277.3049
  14   2.0000     -10.182324      -277.0751
  15   2.0000     -10.161914      -276.5197
  16   2.0000     -10.140335      -275.9326
  17   2.0000     -10.138773      -275.8900
  18   2.0000     -10.120560      -275.3944
  19   2.0000     -10.105869      -274.9947
  20   2.0000     -10.084107      -274.4025
  21   2.0000     -10.063337      -273.8373
  22   2.0000     -10.063147      -273.8321
  23   2.0000     -10.036902      -273.1180
  24   2.0000     -10.029334      -272.9120
  25   2.0000      -1.212742       -33.0004
  26   2.0000      -1.098080       -29.8803
  27   2.0000      -1.066937       -29.0328
  28   2.0000      -1.063535       -28.9403
  29   2.0000      -1.063212       -28.9315
  30   2.0000      -1.033003       -28.1094
  31   2.0000      -1.006493       -27.3881
  32   2.0000      -0.981532       -26.7089
  33   2.0000      -0.944522       -25.7017
  34   2.0000      -0.893025       -24.3005
  35   2.0000      -0.877140       -23.8682
  36   2.0000      -0.805367       -21.9152
  37   2.0000      -0.761937       -20.7333
  38   2.0000      -0.750236       -20.4150
  39   2.0000      -0.721452       -19.6317
  40   2.0000      -0.704627       -19.1739
  41   2.0000      -0.700109       -19.0509
  42   2.0000      -0.677577       -18.4378
  43   2.0000      -0.665371       -18.1057
  44   2.0000      -0.655931       -17.8488
  45   2.0000      -0.650697       -17.7064
  46   2.0000      -0.630641       -17.1606
  47   2.0000      -0.582322       -15.8458
  48   2.0000      -0.576852       -15.6969
  49   2.0000      -0.569362       -15.4931
  50   2.0000      -0.556997       -15.1567
  51   2.0000      -0.549293       -14.9470
  52   2.0000      -0.540318       -14.7028
  53   2.0000      -0.507953       -13.8221
  54   2.0000      -0.498669       -13.5695
  55   2.0000      -0.490460       -13.3461
  56   2.0000      -0.472450       -12.8560
  57   2.0000      -0.466378       -12.6908
  58   2.0000      -0.463564       -12.6142
  59   2.0000      -0.459334       -12.4991
  60   2.0000      -0.453475       -12.3397
  61   2.0000      -0.447438       -12.1754
  62   2.0000      -0.435965       -11.8632
  63   2.0000      -0.431521       -11.7423
  64   2.0000      -0.426665       -11.6102
  65   2.0000      -0.419836       -11.4243
  66   2.0000      -0.406228       -11.0540
  67   2.0000      -0.403738       -10.9863
  68   2.0000      -0.400396       -10.8953
  69   2.0000      -0.397668       -10.8211
  70   2.0000      -0.395690       -10.7673
  71   2.0000      -0.388483       -10.5712
  72   2.0000      -0.381312       -10.3760
  73   2.0000      -0.379684       -10.3317
  74   2.0000      -0.378764       -10.3067
  75   2.0000      -0.372323       -10.1314
  76   2.0000      -0.367928       -10.0118
  77   2.0000      -0.364138        -9.9087
  78   2.0000      -0.359368        -9.7789
  79   2.0000      -0.353459        -9.6181
  80   2.0000      -0.349498        -9.5103
  81   2.0000      -0.336178        -9.1479
  82   2.0000      -0.333820        -9.0837
  83   2.0000      -0.303095        -8.2476
  84   2.0000      -0.297943        -8.1075
  85   2.0000      -0.291709        -7.9378
  86   2.0000      -0.289778        -7.8852
  87   2.0000      -0.281361        -7.6562
  88   2.0000      -0.277093        -7.5401
  89   2.0000      -0.256222        -6.9721
  90   2.0000      -0.253853        -6.9077
  91   2.0000      -0.220626        -6.0035
  92   0.0000      -0.216628        -5.8947
  93   0.0000      -0.112669        -3.0659
  94   0.0000      -0.104347        -2.8394
  95   0.0000      -0.050085        -1.3629
  96   0.0000      -0.000718        -0.0195

MULLIKEN ATOMIC CHARGES
-----------------------
   0 C :   -0.308554
   1 O :   -0.184654
   2 C :    0.218627
   3 O :   -0.480396
   4 C :    0.163203
   5 N :   -0.112570
   6 C :    0.226627
   7 C :    0.030360
   8 C :   -0.525970
   9 C :   -0.568073
  10 N :   -0.148224
  11 C :   -0.075602
  12 O :   -0.398652
  13 C :    0.571030
  14 N :   -0.017941
  15 N :   -0.020403
  16 C :    0.056095
  17 C :   -0.420449
  18 C :   -0.411097
  19 O :   -0.004084
  20 N :   -0.041917
  21 C :    0.074996
  22 O :   -0.382615
  23 C :    0.075009
  24 O :   -0.344522
  25 H :    0.182668
  26 H :    0.181811
  27 H :    0.183285
  28 H :    0.202436
  29 H :    0.195688
  30 H :    0.195106
  31 H :    0.194676
  32 H :    0.196880
  33 H :    0.192069
  34 H :    0.334450
  35 H :    0.197797
  36 H :    0.216843
  37 H :    0.213369
  38 H :    0.197509
  39 H :    0.213863
  40 H :    0.216888
  41 H :    0.331594
  42 H :    0.382841
Sum of atomic charges:    1.0000000

LOEWDIN ATOMIC CHARGES
----------------------
   0 C :   -0.028486
   1 O :   -0.550193
   2 C :    0.410187
   3 O :   -0.456983
   4 C :    0.211062
   5 N :   -0.535865
   6 C :    0.362582
   7 C :    0.110046
   8 C :   -0.329297
   9 C :   -0.329847
  10 N :   -0.535088
  11 C :    0.377632
  12 O :   -0.389132
  13 C :    0.550614
  14 N :   -0.195079
  15 N :   -0.201290
  16 C :    0.275331
  17 C :   -0.268968
  18 C :   -0.268239
  19 O :   -0.358732
  20 N :   -0.432828
  21 C :    0.378191
  22 O :   -0.418470
  23 C :    0.295725
  24 O :   -0.419822
  25 H :    0.189878
  26 H :    0.186579
  27 H :    0.185895
  28 H :    0.183072
  29 H :    0.179154
  30 H :    0.178038
  31 H :    0.183047
  32 H :    0.181952
  33 H :    0.173867
  34 H :    0.307935
  35 H :    0.189804
  36 H :    0.198784
  37 H :    0.193887
  38 H :    0.189826
  39 H :    0.193977
  40 H :    0.198620
  41 H :    0.312312
  42 H :    0.320326

  Mayer bond orders larger than 0.100000
B(  0-C ,  1-O ) :   0.8200 B(  0-C , 25-H ) :   0.9599 B(  0-C , 26-H ) :   0.9542
B(  0-C , 27-H ) :   0.9516 B(  1-O ,  2-C ) :   1.2158 B(  2-C ,  3-O ) :   1.7179
B(  2-C ,  4-C ) :   1.0654 B(  4-C ,  5-N ) :   1.0386 B(  4-C , 23-C ) :   1.2798
B(  5-N ,  6-C ) :   1.6528 B(  6-C ,  7-C ) :   0.7892 B(  6-C , 12-O ) :   0.1030
B(  6-C , 20-N ) :   1.0813 B(  6-C , 23-C ) :   0.1066 B(  7-C ,  8-C ) :   0.9513
B(  7-C ,  9-C ) :   0.9333 B(  7-C , 10-N ) :   0.7738 B(  8-C , 28-H ) :   0.9593
B(  8-C , 29-H ) :   0.9569 B(  8-C , 30-H ) :   0.9477 B(  9-C , 31-H ) :   0.9530
B(  9-C , 32-H ) :   0.9532 B(  9-C , 33-H ) :   0.9677 B( 10-N , 11-C ) :   1.1981
B( 10-N , 12-O ) :   0.1229 B( 10-N , 34-H ) :   0.8838 B( 11-C , 12-O ) :   1.7895
B( 11-C , 13-C ) :   0.9048 B( 11-C , 15-N ) :   0.1114 B( 13-C , 14-N ) :   1.1391
B( 13-C , 19-O ) :   1.3289 B( 14-N , 15-N ) :   1.6836 B( 15-N , 16-C ) :   0.8047
B( 16-C , 17-C ) :   0.9562 B( 16-C , 18-C ) :   0.9589 B( 16-C , 19-O ) :   0.7235
B( 17-C , 35-H ) :   0.9181 B( 17-C , 36-H ) :   0.9331 B( 17-C , 37-H ) :   0.9419
B( 18-C , 38-H ) :   0.9146 B( 18-C , 39-H ) :   0.9424 B( 18-C , 40-H ) :   0.9345
B( 20-N , 21-C ) :   1.0092 B( 20-N , 41-H ) :   0.8826 B( 21-C , 22-O ) :   2.0566
B( 21-C , 23-C ) :   0.9744 B( 23-C , 24-O ) :   1.1791 B( 24-O , 42-H ) :   0.7568

Dispersion correction           -0.018846154
FINAL SINGLE POINT ENERGY     -1269.038826206405

DIPOLE MOMENT
-------------
                                X             Y             Z
Electronic contribution:     -8.04915       8.73256      11.32218
Nuclear contribution   :     15.56044     -12.21203     -13.51989
                        -----------------------------------------
Total Dipole Moment    :      7.51129      -3.47947      -2.19771
                        -----------------------------------------
Magnitude (a.u.)       :      8.56482
Magnitude (Debye)      :     21.77004

Rotational constants in cm-1:     0.015404     0.003496     0.003250
Rotational constants in MHz :   461.802588   104.798239    97.442904

                             ****ORCA TERMINATED NORMALLY****
TOTAL RUN TIME: 0 days 0 hours 6 minutes 54 seconds 597 msec
