   * xtb version 6.5.1 (579679a) compiled by 'ehlert@majestix' on 2022-07-11
          program call               : /lustre/hpc/kemi/ree/PhD/git/ReactivityQM/dep/xtb-6.5.1/bin/xtb --gfn 1 /lustre/hpc/kemi/ree/PhD/git/ReactivityQM/calculations/R02/reac01prodN13/conf03/R02_reac01prodN13_conf03_gfn1.xyz --opt --vfukui --chrg 1 --uhf 0 --alpb DMSO

   ID    Z sym.   atoms
    1    6 C      1, 3, 5, 7-10, 12, 14, 17-19, 22, 24
    2    8 O      2, 4, 13, 20, 23, 25
    3    7 N      6, 11, 15, 16, 21
    4    1 H      26-43

      * Solvation model:               ALPB
        Solvent                        DMSO
        Solvent mass                       7.8130E+01 g/mol
          :  Hamiltonian                  GFN1-xTB          :
 * total energy  :   -83.1021919 Eh     change       -0.6949108E-11 Eh
 * total energy  :   -83.1164200 Eh     change       -0.1422815E-01 Eh
 * total energy  :   -83.1217685 Eh     change       -0.5348474E-02 Eh
 * total energy  :   -83.1227040 Eh     change       -0.9354757E-03 Eh
 * total energy  :   -83.1234500 Eh     change       -0.7460131E-03 Eh
 * total energy  :   -83.1237975 Eh     change       -0.3475261E-03 Eh
 * total energy  :   -83.1241261 Eh     change       -0.3285948E-03 Eh
 * total energy  :   -83.1243736 Eh     change       -0.2474860E-03 Eh
 * total energy  :   -83.1245233 Eh     change       -0.1496815E-03 Eh
 * total energy  :   -83.1245946 Eh     change       -0.7134336E-04 Eh
 * total energy  :   -83.1261061 Eh     change       -0.2282330E-04 Eh
 * total energy  :   -83.1261306 Eh     change       -0.2452008E-04 Eh
 * total energy  :   -83.1261462 Eh     change       -0.1561853E-04 Eh
 * total energy  :   -83.1261596 Eh     change       -0.1335542E-04 Eh
 * total energy  :   -83.1261757 Eh     change       -0.1611632E-04 Eh
 * total energy  :   -83.1261713 Eh     change        0.4447637E-05 Eh
 * total energy  :   -83.1261837 Eh     change       -0.1247756E-04 Eh
 * total energy  :   -83.1261958 Eh     change       -0.1204323E-04 Eh
 * total energy  :   -83.1262007 Eh     change       -0.4875387E-05 Eh
   *** GEOMETRY OPTIMIZATION CONVERGED AFTER 46 ITERATIONS ***

 final structure:
================
43
 xtb: 6.5.1 (579679a)
C           -5.79981220116857        1.51015209674422       -2.35801683632676
O           -4.65253358628669        1.00996104185559       -1.65733824727271
C           -4.67200310452516        1.09862152468864       -0.34111291808858
O           -5.59411902157728        1.58222953964765        0.29072800467364
C           -3.45984824745890        0.54804651596525        0.31913562747120
N           -2.47498976338626        0.04815942992962       -0.48215759525043
C           -1.41352534802289       -0.44664272911240        0.06636202513658
C           -0.33807395254693       -1.05729577677653       -0.80265291335575
C           -0.46484679413448       -2.58289524822421       -0.77046239379336
C           -0.43766283507029       -0.51729380388586       -2.23256420361949
N            0.97423643652650       -0.70584301155965       -0.24671820604022
C            1.29334953984774        0.56742419029658        0.03666246237625
O            0.55235107396617        1.52468975135585       -0.02066524405927
C            2.72714630583181        0.71148134647319        0.46562159391537
N            3.31197281557146        1.89018563169297        0.83278591051845
N            4.52703290261961        1.65332475776460        1.09049051299308
C            4.81368877417979        0.27335904131081        0.89278295753555
C            5.25793431373593       -0.39086344886975        2.20118538244494
C            5.83675348530674        0.08713854610542       -0.23544353846877
O            3.55371658699697       -0.26529881077225        0.48370031184392
N           -1.24477133589782       -0.50033139042638        1.41315145038190
C           -2.15247658343431       -0.00342304544796        2.33729360116289
O           -1.92840627402072       -0.05926985540402        3.52891941573107
C           -3.35193581424775        0.55744042337044        1.69608937236015
O           -4.27629027538020        1.04642038017486        2.50678999232089
H           -5.57146089340713        1.43044714384136       -3.41870361662081
H           -5.98159282814821        2.55070680790195       -2.08053428451026
H           -6.67574151426764        0.90761165258953       -2.10840170271052
H           -1.43919312394999       -2.87649491306199       -1.15812865185697
H            0.31166960622586       -3.02990551321634       -1.38771438458393
H           -0.36274625357387       -2.94644847170447        0.25019622639798
H           -1.39868128518557       -0.80611638100304       -2.65489923779907
H           -0.36467259155461        0.56926987702936       -2.22794630073502
H            0.36589750569074       -0.93168353357836       -2.83668557600452
H            1.68195335803233       -1.41897867298493       -0.20591565815410
H            4.49691701711578       -0.23068325887010        2.96170256954329
H            6.19980378833710        0.05095333723468        2.51753672563087
H            5.38555404011333       -1.45594083499392        2.02534508208235
H            5.46384257331387        0.56379258517347       -1.13951253965913
H            5.97358130751621       -0.97732668560737       -0.40956109006667
H            6.77770933630330        0.54146769382393        0.06521553756599
H           -0.40450042164113       -0.91236089523307        1.78685935597077
H           -5.04522371836243        1.39221296574435        1.98782802093300

          :  Hamiltonian                  GFN1-xTB          :
         :: total energy             -83.126200659053 Eh    ::
         :: gradient norm              0.000676131715 Eh/a0 ::
         :: HOMO-LUMO gap              0.138179167136 eV    ::
         :: SCC energy               -83.911516454625 Eh    ::
         :: -> Gsolv                  -0.123914244932 Eh    ::
         :: repulsion energy           0.811758112948 Eh    ::

    * Orbital Energies and Occupations

         #    Occupation            Energy/Eh            Energy/eV
      -------------------------------------------------------------
         1        2.0000           -0.9337833             -25.4095
       ...           ...                  ...                  ...
        55        2.0000           -0.5375156             -14.6265
        56        2.0000           -0.5283681             -14.3776
        57        2.0000           -0.5241499             -14.2628
        58        2.0000           -0.5222957             -14.2124
        59        2.0000           -0.5156072             -14.0304
        60        2.0000           -0.5108578             -13.9011
        61        2.0000           -0.5061279             -13.7724
        62        2.0000           -0.5046744             -13.7329
        63        2.0000           -0.5023185             -13.6688
        64        2.0000           -0.4956190             -13.4865
        65        2.0000           -0.4782493             -13.0138
        66        2.0000           -0.4644944             -12.6395
        67        1.8708           -0.4472288             -12.1697 (HOMO)
        68        0.1292           -0.4421508             -12.0315 (LUMO)
        69                         -0.3586637              -9.7597
        70                         -0.3423214              -9.3150
        71                         -0.3038406              -8.2679
        72                         -0.2587769              -7.0417
        73                         -0.2577000              -7.0124
        74                         -0.1782447              -4.8503
        75                         -0.1607987              -4.3756
        76                         -0.1552211              -4.2238
        77                         -0.1494106              -4.0657
        78                         -0.1435655              -3.9066
       ...                                ...                  ...
       136                          0.7117850              19.3687
      -------------------------------------------------------------
                  HL-Gap            0.0050780 Eh            0.1382 eV

Wiberg/Mayer (AO) data.
largest (>0.10) Wiberg bond orders for each atom

     #   Z sym  total        # sym  WBO       # sym  WBO       # sym  WBO
 ---------------------------------------------------------------------------
     1   6 C    3.858 --    26 H    0.986    27 H    0.978    28 H    0.978
                             2 O    0.885
     2   8 O    2.226 --     3 C    1.151     1 C    0.885     4 O    0.134
     3   6 C    3.850 --     4 O    1.610     2 O    1.151     5 C    1.008
     4   8 O    1.950 --     3 C    1.610     2 O    0.134
     5   6 C    3.920 --    24 C    1.438     6 N    1.210     3 C    1.008
     6   7 N    2.990 --     7 C    1.545     5 C    1.210
     7   6 C    3.899 --     6 N    1.545    21 N    1.194     8 C    0.977
     8   6 C    3.914 --     9 C    0.979    10 C    0.978     7 C    0.977
                            11 N    0.913
     9   6 C    3.981 --    31 H    0.983    29 H    0.981    30 H    0.980
                             8 C    0.979
    10   6 C    3.979 --    34 H    0.984    33 H    0.981    32 H    0.980
                             8 C    0.978
    11   7 N    3.399 --    12 C    1.279     8 C    0.913    35 H    0.879
                            13 O    0.211
    12   6 C    3.925 --    13 O    1.609    11 N    1.279    14 C    0.954
    13   8 O    1.929 --    12 C    1.609    11 N    0.211
    14   6 C    3.731 --    20 O    1.309    15 N    1.225    12 C    0.954
    15   7 N    3.012 --    16 N    1.647    14 C    1.225
    16   7 N    2.899 --    15 N    1.647    17 C    1.056
    17   6 C    3.815 --    16 N    1.056    18 C    0.907    19 C    0.904
                            20 O    0.859
    18   6 C    3.940 --    36 H    0.979    37 H    0.977    38 H    0.976
                            17 C    0.907
    19   6 C    3.939 --    39 H    0.979    41 H    0.977    40 H    0.976
                            17 C    0.904
    20   8 O    2.348 --    14 C    1.309    17 C    0.859
    21   7 N    3.455 --     7 C    1.194    22 C    1.104    42 H    0.881
                            23 O    0.127
    22   6 C    3.896 --    23 O    1.626    21 N    1.104    24 C    1.043
    23   8 O    1.894 --    22 C    1.626    21 N    0.127
    24   6 C    3.862 --     5 C    1.438    25 O    1.161    22 C    1.043
    25   8 O    2.093 --    24 C    1.161    43 H    0.760
    26   1 H    1.009 --     1 C    0.986
    27   1 H    1.005 --     1 C    0.978
    28   1 H    1.004 --     1 C    0.978
    29   1 H    0.997 --     9 C    0.981
    30   1 H    0.993 --     9 C    0.980
    31   1 H    0.996 --     9 C    0.983
    32   1 H    1.005 --    10 C    0.980
    33   1 H    1.004 --    10 C    0.981
    34   1 H    0.998 --    10 C    0.984
    35   1 H    0.916 --    11 N    0.879
    36   1 H    0.991 --    18 C    0.979
    37   1 H    0.992 --    18 C    0.977
    38   1 H    0.991 --    18 C    0.976
    39   1 H    0.991 --    19 C    0.979
    40   1 H    0.991 --    19 C    0.976
    41   1 H    0.992 --    19 C    0.977
    42   1 H    0.925 --    21 N    0.881
    43   1 H    0.842 --    25 O    0.760
 ---------------------------------------------------------------------------

           -------------------------------------------------
          | TOTAL ENERGY              -83.126200659053 Eh   |
          | GRADIENT NORM               0.000676131715 Eh/α |
          | HOMO-LUMO GAP               0.138179167136 eV   |
           -------------------------------------------------

 * finished run on 2023/06/20 at 15:35:58.771
