   * xtb version 6.5.1 (579679a) compiled by 'ehlert@majestix' on 2022-07-11
          program call               : /lustre/hpc/kemi/ree/PhD/git/ReactivityQM/dep/xtb-6.5.1/bin/xtb --gfn 1 /lustre/hpc/kemi/ree/PhD/git/ReactivityQM/calculations/R02/reac01prodE03/conf02/R02_reac01prodE03_conf02_gfn1.xyz --opt --vfukui --chrg -1 --uhf 0 --alpb DMSO

   ID    Z sym.   atoms
    1    6 C      1, 3, 5, 6, 8-11, 13, 15, 18, 19, 22, 24
    2    8 O      2, 4, 14, 20, 23, 25
    3    7 N      7, 12, 16, 17, 21
    4    1 H      26-43

      * Solvation model:               ALPB
        Solvent                        DMSO
        Solvent mass                       7.8130E+01 g/mol
          :  Hamiltonian                  GFN1-xTB          :
 * total energy  :   -83.8161707 Eh     change       -0.3028333E-10 Eh
 * total energy  :   -83.8308876 Eh     change       -0.1471682E-01 Eh
 * total energy  :   -83.8364385 Eh     change       -0.5550944E-02 Eh
 * total energy  :   -83.8376629 Eh     change       -0.1224410E-02 Eh
 * total energy  :   -83.8383486 Eh     change       -0.6856991E-03 Eh
 * total energy  :   -83.8386865 Eh     change       -0.3378848E-03 Eh
 * total energy  :   -83.8390142 Eh     change       -0.3277024E-03 Eh
 * total energy  :   -83.8393390 Eh     change       -0.3247966E-03 Eh
 * total energy  :   -83.8396301 Eh     change       -0.2911183E-03 Eh
 * total energy  :   -83.8398549 Eh     change       -0.2247366E-03 Eh
 * total energy  :   -83.8459582 Eh     change       -0.5456608E-04 Eh
 * total energy  :   -83.8459753 Eh     change       -0.1704133E-04 Eh
 * total energy  :   -83.8459885 Eh     change       -0.1323324E-04 Eh
 * total energy  :   -83.8459962 Eh     change       -0.7650509E-05 Eh
 * total energy  :   -83.8460116 Eh     change       -0.1541916E-04 Eh
 * total energy  :   -83.8460050 Eh     change        0.6587864E-05 Eh
 * total energy  :   -83.8460145 Eh     change       -0.9488943E-05 Eh
 * total energy  :   -83.8460203 Eh     change       -0.5829460E-05 Eh
 * total energy  :   -83.8460241 Eh     change       -0.3816101E-05 Eh
   *** GEOMETRY OPTIMIZATION CONVERGED AFTER 101 ITERATIONS ***

 final structure:
================
43
 xtb: 6.5.1 (579679a)
C           -4.89454089856713        2.24729053814039       -1.56990615850014
O           -4.75386444913953        1.31965314580165       -0.49939402544700
C           -3.66900798445419        0.45638075529317       -0.58672803465380
O           -3.90891199940759       -0.69045230499497       -1.35185943259571
C           -4.33571586830376       -1.83472881353023       -0.62268509733885
C           -2.47049050974426        0.66285107340141        0.04045612516375
N           -1.53780643991197       -0.39004559650780       -0.04898041546693
C           -0.40420459461078       -0.29149194520400        0.54414448191943
C            0.56783133992672       -1.46030607179121        0.47365603342499
C            0.16259309086882       -2.41716818699346       -0.65182810022526
C            0.56979234028708       -2.17758055732004        1.83195938330687
N            1.90316856134146       -0.91144781342995        0.20033120758954
C            3.01726057348179       -1.66245058211539        0.11065228245014
O            3.07258457110757       -2.87749312162954        0.25894715732116
C            4.22709387604077       -0.86153131736522       -0.19402525357062
N            5.44302882266879       -1.29275767282341       -0.36061703982527
N            6.21682564590890       -0.19852564158889       -0.61864173660056
C            5.42975511281377        0.83066222916591       -0.59379193567837
C            5.78726367493257        2.24989017660420       -0.81132330004467
O            4.15743769218322        0.48377439161617       -0.33281580982931
N           -0.02293213146252        0.78044174311806        1.28621180785517
C           -0.85226520487867        1.93810120819382        1.41016936745455
O           -0.41854380850364        2.91797609755730        2.06702522794245
C           -2.07263842717828        1.82882004372611        0.76910405320287
O           -2.93011796997478        2.93941736754307        0.82318831912437
H           -4.03758451035903        2.93118055745511       -1.61047123981415
H           -5.80361862637495        2.82177503450648       -1.38157308658682
H           -4.98809308770259        1.73135184413039       -2.53359652787601
H           -3.54642988767998       -2.17833803901986        0.05886375172273
H           -5.24307780041062       -1.62518844942704       -0.04231246821275
H           -4.54840127752988       -2.62145189260777       -1.34914926679625
H            0.19840557961407       -1.89953511238190       -1.60979040960894
H           -0.85579733216398       -2.76253630846690       -0.47814075029310
H            0.83056464931680       -3.27574663936777       -0.68167558205346
H            1.21511834769256       -3.05351050838635        1.80254347298423
H            0.92398455559919       -1.50188140940531        2.60853248464315
H           -0.44444132058287       -2.49364753602708        2.07264030768383
H            1.97945123657466        0.07700947717825        0.02080257690981
H            6.85621525985968        2.33365562132005       -0.99022910789004
H            5.51547302228001        2.84053206477784        0.06336126617902
H            5.24205201725351        2.64578137642361       -1.66804146714439
H            0.87370764312192        0.81607685091213        1.73680869284437
H           -2.45112048392317        3.62519392351130        1.31328024632242

          :  Hamiltonian                  GFN1-xTB          :
         :: total energy             -83.846024136257 Eh    ::
         :: gradient norm              0.000401477006 Eh/a0 ::
         :: HOMO-LUMO gap              0.177833124617 eV    ::
         :: SCC energy               -84.607525327695 Eh    ::
         :: -> Gsolv                  -0.114615975686 Eh    ::
         :: repulsion energy           0.787541676726 Eh    ::

    * Orbital Energies and Occupations

         #    Occupation            Energy/Eh            Energy/eV
      -------------------------------------------------------------
         1        2.0000           -0.8539434             -23.2370
       ...           ...                  ...                  ...
        56        2.0000           -0.4710065             -12.8167
        57        2.0000           -0.4679232             -12.7328
        58        2.0000           -0.4510876             -12.2747
        59        2.0000           -0.4480535             -12.1922
        60        2.0000           -0.4397696             -11.9667
        61        2.0000           -0.4350467             -11.8382
        62        2.0000           -0.4322940             -11.7633
        63        2.0000           -0.4298763             -11.6975
        64        2.0000           -0.4250781             -11.5670
        65        2.0000           -0.3953986             -10.7593
        66        2.0000           -0.3909384             -10.6380
        67        2.0000           -0.3737429             -10.1701
        68        1.9378           -0.3049965              -8.2994 (HOMO)
        69        0.0622           -0.2984612              -8.1215 (LUMO)
        70                         -0.2474752              -6.7341
        71                         -0.2296697              -6.2496
        72                         -0.1939278              -5.2770
        73                         -0.1851922              -5.0393
        74                         -0.1373186              -3.7366
        75                         -0.1194841              -3.2513
        76                         -0.1119544              -3.0464
        77                         -0.1107084              -3.0125
        78                         -0.1053670              -2.8672
        79                         -0.0923332              -2.5125
       ...                                ...                  ...
       136                          0.7287755              19.8310
      -------------------------------------------------------------
                  HL-Gap            0.0065352 Eh            0.1778 eV

Wiberg/Mayer (AO) data.
largest (>0.10) Wiberg bond orders for each atom

     #   Z sym  total        # sym  WBO       # sym  WBO       # sym  WBO
 ---------------------------------------------------------------------------
     1   6 C    3.917 --    27 H    0.986    28 H    0.983    26 H    0.981
                             2 O    0.932
     2   8 O    2.014 --     3 C    0.952     1 C    0.932
     3   6 C    3.733 --     6 C    1.522     2 O    0.952     4 O    0.936
     4   8 O    2.001 --     5 C    0.936     3 C    0.936
     5   6 C    3.917 --    31 H    0.986    30 H    0.983    29 H    0.981
                             4 O    0.936
     6   6 C    3.952 --     3 C    1.522    24 C    1.177     7 N    1.069
     7   7 N    3.005 --     8 C    1.631     6 C    1.069    21 N    0.134
     8   6 C    3.948 --     7 N    1.631    21 N    1.185     9 C    0.971
     9   6 C    3.930 --    10 C    0.994    11 C    0.982     8 C    0.971
                            12 N    0.915
    10   6 C    3.992 --     9 C    0.994    32 H    0.986    34 H    0.984
                            33 H    0.983
    11   6 C    3.991 --    37 H    0.986    36 H    0.985     9 C    0.982
                            35 H    0.981
    12   7 N    3.345 --    13 C    1.264     9 C    0.915    38 H    0.896
                            14 O    0.175
    13   6 C    3.900 --    14 O    1.557    12 N    1.264    15 C    1.000
    14   8 O    1.867 --    13 C    1.557    12 N    0.175
    15   6 C    3.845 --    16 N    1.603    20 O    1.039    13 C    1.000
    16   7 N    2.965 --    15 C    1.603    17 N    1.193
    17   7 N    2.980 --    18 C    1.616    16 N    1.193
    18   6 C    3.863 --    17 N    1.616    20 O    1.070    19 C    1.030
    19   6 C    3.988 --    18 C    1.030    39 H    0.983    40 H    0.964
                            41 H    0.964
    20   8 O    2.301 --    18 C    1.070    15 C    1.039
    21   7 N    3.360 --     8 C    1.185    22 C    0.962    42 H    0.904
                             7 N    0.134
    22   6 C    3.901 --    23 O    1.398    24 C    1.380    21 N    0.962
    23   8 O    1.727 --    22 C    1.398    24 C    0.131
    24   6 C    3.823 --    22 C    1.380     6 C    1.177    25 O    0.965
                            23 O    0.131
    25   8 O    1.941 --    24 C    0.965    43 H    0.854
    26   1 H    1.030 --     1 C    0.981
    27   1 H    1.020 --     1 C    0.986
    28   1 H    1.017 --     1 C    0.983
    29   1 H    1.029 --     5 C    0.981
    30   1 H    1.016 --     5 C    0.983
    31   1 H    1.020 --     5 C    0.986
    32   1 H    1.010 --    10 C    0.986
    33   1 H    1.019 --    10 C    0.983
    34   1 H    1.012 --    10 C    0.984
    35   1 H    1.012 --    11 C    0.981
    36   1 H    1.005 --    11 C    0.985
    37   1 H    1.005 --    11 C    0.986
    38   1 H    0.946 --    12 N    0.896
    39   1 H    1.000 --    19 C    0.983
    40   1 H    0.997 --    19 C    0.964
    41   1 H    0.997 --    19 C    0.964
    42   1 H    0.951 --    21 N    0.904
    43   1 H    0.891 --    25 O    0.854
 ---------------------------------------------------------------------------

           -------------------------------------------------
          | TOTAL ENERGY              -83.846024136257 Eh   |
          | GRADIENT NORM               0.000401477006 Eh/α |
          | HOMO-LUMO GAP               0.177833124617 eV   |
           -------------------------------------------------

 * finished run on 2023/06/20 at 14:55:27.875
