                         Program Version 5.0.1 -  RELEASE  -
|  1> # ORCA input file
|  2> ! SP r2SCAN-3c CPCM
|  3>
|  4> %maxcore 1875.0
|  5> %pal nprocs 4 end
|  6> %cpcm smd true SMDsolvent "DMSO" end
|  7>
|  8> *xyz 1 1
|  9> C      -3.540816   -2.573502   -2.724723
| 10> O      -2.705938   -2.003181   -1.703523
| 11> C      -3.308076   -1.299782   -0.769965
| 12> O      -4.498762   -1.112539   -0.705659
| 13> C      -2.340603   -0.697408    0.227018
| 14> C      -2.917235   -0.149957    1.516309
| 15> O      -3.943010   -0.963542    2.009369
| 16> C      -1.817468   -0.100733    2.585029
| 17> C      -3.430541    1.283429    1.268045
| 18> O      -2.047600   -0.190820    3.769263
| 19> N      -0.549318    0.135834    2.120349
| 20> C       0.513840    0.112919    3.137692
| 21> C      -0.150748    0.005719    0.739769
| 22> C       0.353413    1.343063    0.063636
| 23> C       0.299322    2.568603    0.969964
| 24> C      -0.328595    1.609218   -1.278086
| 25> N       1.754364    0.991897   -0.195402
| 26> C       2.028269   -0.229121    0.169892
| 27> O       1.017639   -0.858056    0.708348
| 28> C       3.302604   -0.854172    0.024286
| 29> N       3.670153   -2.064714    0.352237
| 30> N       4.961816   -2.178410    0.020187
| 31> C       5.333393   -1.033613   -0.497845
| 32> C       6.662801   -0.662216   -1.012733
| 33> O       4.323656   -0.160527   -0.520800
| 34> N      -1.118915   -0.626094   -0.104622
| 35> H      -4.123599   -1.784757   -3.203912
| 36> H      -4.214462   -3.309639   -2.281421
| 37> H      -2.870684   -3.045816   -3.439653
| 38> H      -4.705627   -0.945329    1.409831
| 39> H      -4.234135    1.252313    0.534936
| 40> H      -2.630593    1.916402    0.895721
| 41> H      -3.809442    1.688096    2.204945
| 42> H       1.407015    0.580587    2.738619
| 43> H       0.159613    0.671094    4.002985
| 44> H       0.733028   -0.916857    3.424964
| 45> H       0.989093    2.467225    1.803899
| 46> H      -0.709909    2.697729    1.355612
| 47> H       0.573365    3.452549    0.397378
| 48> H      -1.378822    1.844541   -1.117099
| 49> H       0.151889    2.455679   -1.763958
| 50> H      -0.250164    0.734943   -1.921881
| 51> H       2.417128    1.623392   -0.613709
| 52> H       7.353930   -1.493375   -0.893731
| 53> H       6.585396   -0.391384   -2.066210
| 54> H       7.033334    0.210309   -0.473961
| 55> **                         ****END OF INPUT****

CARTESIAN COORDINATES (ANGSTROEM)
---------------------------------
  C     -3.540816   -2.573502   -2.724723
  O     -2.705938   -2.003181   -1.703523
  C     -3.308076   -1.299782   -0.769965
  O     -4.498762   -1.112539   -0.705659
  C     -2.340603   -0.697408    0.227018
  C     -2.917235   -0.149957    1.516309
  O     -3.943010   -0.963542    2.009369
  C     -1.817468   -0.100733    2.585029
  C     -3.430541    1.283429    1.268045
  O     -2.047600   -0.190820    3.769263
  N     -0.549318    0.135834    2.120349
  C      0.513840    0.112919    3.137692
  C     -0.150748    0.005719    0.739769
  C      0.353413    1.343063    0.063636
  C      0.299322    2.568603    0.969964
  C     -0.328595    1.609218   -1.278086
  N      1.754364    0.991897   -0.195402
  C      2.028269   -0.229121    0.169892
  O      1.017639   -0.858056    0.708348
  C      3.302604   -0.854172    0.024286
  N      3.670153   -2.064714    0.352237
  N      4.961816   -2.178410    0.020187
  C      5.333393   -1.033613   -0.497845
  C      6.662801   -0.662216   -1.012733
  O      4.323656   -0.160527   -0.520800
  N     -1.118915   -0.626094   -0.104622
  H     -4.123599   -1.784757   -3.203912
  H     -4.214462   -3.309639   -2.281421
  H     -2.870684   -3.045816   -3.439653
  H     -4.705627   -0.945329    1.409831
  H     -4.234135    1.252313    0.534936
  H     -2.630593    1.916402    0.895721
  H     -3.809442    1.688096    2.204945
  H      1.407015    0.580587    2.738619
  H      0.159613    0.671094    4.002985
  H      0.733028   -0.916857    3.424964
  H      0.989093    2.467225    1.803899
  H     -0.709909    2.697729    1.355612
  H      0.573365    3.452549    0.397378
  H     -1.378822    1.844541   -1.117099
  H      0.151889    2.455679   -1.763958
  H     -0.250164    0.734943   -1.921881
  H      2.417128    1.623392   -0.613709
  H      7.353930   -1.493375   -0.893731
  H      6.585396   -0.391384   -2.066210
  H      7.033334    0.210309   -0.473961

 Total Charge           Charge          ....    1
 Multiplicity           Mult            ....    1
 Number of Electrons    NEL             ....  192
 Basis Dimension        Dim             ....  649

ORBITAL ENERGIES
----------------

  NO   OCC          E(Eh)            E(eV)
   0   2.0000     -19.094317      -519.5828
   1   2.0000     -19.071204      -518.9538
   2   2.0000     -19.021733      -517.6077
   3   2.0000     -18.966424      -516.1026
   4   2.0000     -18.965462      -516.0765
   5   2.0000     -18.940514      -515.3976
   6   2.0000     -14.268413      -388.2633
   7   2.0000     -14.240672      -387.5084
   8   2.0000     -14.224358      -387.0645
   9   2.0000     -14.222050      -387.0017
  10   2.0000     -14.203705      -386.5025
  11   2.0000     -10.230918      -278.3974
  12   2.0000     -10.216014      -277.9919
  13   2.0000     -10.186223      -277.1812
  14   2.0000     -10.181966      -277.0654
  15   2.0000     -10.174948      -276.8744
  16   2.0000     -10.152455      -276.2624
  17   2.0000     -10.133535      -275.7475
  18   2.0000     -10.130678      -275.6698
  19   2.0000     -10.129228      -275.6303
  20   2.0000     -10.086212      -274.4598
  21   2.0000     -10.067715      -273.9565
  22   2.0000     -10.055613      -273.6271
  23   2.0000     -10.037553      -273.1357
  24   2.0000     -10.036237      -273.0999
  25   2.0000     -10.036179      -273.0983
  26   2.0000      -1.186815       -32.2949
  27   2.0000      -1.157678       -31.5020
  28   2.0000      -1.102029       -29.9877
  29   2.0000      -1.040688       -28.3186
  30   2.0000      -1.016366       -27.6567
  31   2.0000      -1.009955       -27.4823
  32   2.0000      -1.003481       -27.3061
  33   2.0000      -0.985232       -26.8095
  34   2.0000      -0.969099       -26.3705
  35   2.0000      -0.908745       -24.7282
  36   2.0000      -0.867126       -23.5957
  37   2.0000      -0.814373       -22.1602
  38   2.0000      -0.765593       -20.8328
  39   2.0000      -0.744562       -20.2606
  40   2.0000      -0.737520       -20.0690
  41   2.0000      -0.715118       -19.4594
  42   2.0000      -0.701386       -19.0857
  43   2.0000      -0.687319       -18.7029
  44   2.0000      -0.680031       -18.5046
  45   2.0000      -0.657553       -17.8929
  46   2.0000      -0.648047       -17.6343
  47   2.0000      -0.625807       -17.0291
  48   2.0000      -0.622977       -16.9521
  49   2.0000      -0.615017       -16.7355
  50   2.0000      -0.588722       -16.0199
  51   2.0000      -0.570743       -15.5307
  52   2.0000      -0.548955       -14.9378
  53   2.0000      -0.535452       -14.5704
  54   2.0000      -0.524888       -14.2829
  55   2.0000      -0.510950       -13.9037
  56   2.0000      -0.505098       -13.7444
  57   2.0000      -0.486453       -13.2371
  58   2.0000      -0.482525       -13.1302
  59   2.0000      -0.474525       -12.9125
  60   2.0000      -0.471045       -12.8178
  61   2.0000      -0.463158       -12.6032
  62   2.0000      -0.459191       -12.4952
  63   2.0000      -0.444972       -12.1083
  64   2.0000      -0.436633       -11.8814
  65   2.0000      -0.428790       -11.6680
  66   2.0000      -0.424877       -11.5615
  67   2.0000      -0.423789       -11.5319
  68   2.0000      -0.417124       -11.3505
  69   2.0000      -0.408803       -11.1241
  70   2.0000      -0.401037       -10.9128
  71   2.0000      -0.399191       -10.8625
  72   2.0000      -0.396672       -10.7940
  73   2.0000      -0.392478       -10.6799
  74   2.0000      -0.386967       -10.5299
  75   2.0000      -0.376909       -10.2562
  76   2.0000      -0.372817       -10.1449
  77   2.0000      -0.371904       -10.1200
  78   2.0000      -0.366547        -9.9743
  79   2.0000      -0.364298        -9.9130
  80   2.0000      -0.354950        -9.6587
  81   2.0000      -0.351927        -9.5764
  82   2.0000      -0.345141        -9.3918
  83   2.0000      -0.341807        -9.3011
  84   2.0000      -0.338799        -9.2192
  85   2.0000      -0.334229        -9.0948
  86   2.0000      -0.323025        -8.7900
  87   2.0000      -0.315187        -8.5767
  88   2.0000      -0.301241        -8.1972
  89   2.0000      -0.292844        -7.9687
  90   2.0000      -0.285070        -7.7571
  91   2.0000      -0.284401        -7.7390
  92   2.0000      -0.276910        -7.5351
  93   2.0000      -0.256424        -6.9777
  94   2.0000      -0.245745        -6.6871
  95   2.0000      -0.239076        -6.5056
  96   0.0000      -0.145260        -3.9527
  97   0.0000      -0.117123        -3.1871
  98   0.0000      -0.044566        -1.2127
  99   0.0000      -0.035525        -0.9667
 100   0.0000       0.007636         0.2078

MULLIKEN ATOMIC CHARGES
-----------------------
   0 C :   -0.305006
   1 O :   -0.167101
   2 C :    0.239362
   3 O :   -0.429164
   4 C :    0.320694
   5 C :    0.259223
   6 O :   -0.435520
   7 C :    0.069955
   8 C :   -0.557329
   9 O :   -0.388110
  10 N :    0.336342
  11 C :   -0.403523
  12 C :   -0.414824
  13 C :    0.217289
  14 C :   -0.551007
  15 C :   -0.548949
  16 N :    0.064670
  17 C :    0.132394
  18 O :   -0.027120
  19 C :   -0.053869
  20 N :   -0.086404
  21 N :   -0.250071
  22 C :    0.439693
  23 C :   -0.618793
  24 O :   -0.023780
  25 N :   -0.083735
  26 H :    0.183417
  27 H :    0.185067
  28 H :    0.184063
  29 H :    0.337168
  30 H :    0.195107
  31 H :    0.201763
  32 H :    0.197826
  33 H :    0.187583
  34 H :    0.199439
  35 H :    0.202294
  36 H :    0.188746
  37 H :    0.209108
  38 H :    0.197725
  39 H :    0.205925
  40 H :    0.193034
  41 H :    0.198128
  42 H :    0.360560
  43 H :    0.213474
  44 H :    0.212697
  45 H :    0.211558
Sum of atomic charges:    1.0000000

LOEWDIN ATOMIC CHARGES
----------------------
   0 C :   -0.026468
   1 O :   -0.543972
   2 C :    0.402032
   3 O :   -0.415929
   4 C :    0.304652
   5 C :    0.167580
   6 O :   -0.533709
   7 C :    0.394051
   8 C :   -0.326585
   9 O :   -0.412695
  10 N :   -0.679279
  11 C :   -0.077001
  12 C :    0.481570
  13 C :    0.138494
  14 C :   -0.327541
  15 C :   -0.318487
  16 N :   -0.438064
  17 C :    0.492009
  18 O :   -0.380303
  19 C :    0.413199
  20 N :   -0.287017
  21 N :   -0.318350
  22 C :    0.412059
  23 C :   -0.307105
  24 O :   -0.354485
  25 N :   -0.481764
  26 H :    0.187773
  27 H :    0.187166
  28 H :    0.190914
  29 H :    0.296675
  30 H :    0.180856
  31 H :    0.179194
  32 H :    0.182890
  33 H :    0.195190
  34 H :    0.205501
  35 H :    0.193970
  36 H :    0.181490
  37 H :    0.186694
  38 H :    0.181572
  39 H :    0.186251
  40 H :    0.178462
  41 H :    0.188020
  42 H :    0.323037
  43 H :    0.196876
  44 H :    0.200514
  45 H :    0.200068

  Mayer bond orders larger than 0.100000
B(  0-C ,  1-O ) :   0.8195 B(  0-C , 26-H ) :   0.9537 B(  0-C , 27-H ) :   0.9506
B(  0-C , 28-H ) :   0.9586 B(  1-O ,  2-C ) :   1.1883 B(  2-C ,  3-O ) :   1.7760
B(  2-C ,  4-C ) :   0.9707 B(  4-C ,  5-C ) :   0.8891 B(  4-C , 25-N ) :   1.6450
B(  5-C ,  6-O ) :   0.9618 B(  5-C ,  7-C ) :   0.8890 B(  5-C ,  8-C ) :   0.9780
B(  5-C , 12-C ) :   0.1002 B(  6-O , 29-H ) :   0.8459 B(  7-C ,  9-O ) :   1.9937
B(  7-C , 10-N ) :   1.0743 B(  8-C , 30-H ) :   0.9257 B(  8-C , 31-H ) :   0.9492
B(  8-C , 32-H ) :   0.9532 B( 10-N , 11-C ) :   0.7895 B( 10-N , 12-C ) :   1.1208
B( 11-C , 33-H ) :   0.9315 B( 11-C , 34-H ) :   0.9423 B( 11-C , 35-H ) :   0.9406
B( 12-C , 13-C ) :   0.7831 B( 12-C , 14-C ) :   0.1084 B( 12-C , 17-C ) :   0.2759
B( 12-C , 18-O ) :   0.9145 B( 12-C , 19-C ) :  -0.1519 B( 12-C , 25-N ) :   0.9684
B( 13-C , 14-C ) :   0.8257 B( 13-C , 15-C ) :   0.8477 B( 13-C , 16-N ) :   0.7485
B( 13-C , 19-C ) :   0.1639 B( 14-C , 36-H ) :   0.9415 B( 14-C , 37-H ) :   0.9616
B( 14-C , 38-H ) :   0.9445 B( 15-C , 39-H ) :   0.9591 B( 15-C , 40-H ) :   0.9489
B( 15-C , 41-H ) :   0.9516 B( 16-N , 17-C ) :   1.4459 B( 16-N , 18-O ) :   0.1028
B( 16-N , 42-H ) :   0.8627 B( 17-C , 18-O ) :   1.1211 B( 17-C , 19-C ) :   1.2749
B( 17-C , 21-N ) :   0.1686 B( 18-O , 19-C ) :   0.1041 B( 19-C , 20-N ) :   1.6227
B( 19-C , 22-C ) :   0.1521 B( 19-C , 24-O ) :   1.0785 B( 20-N , 21-N ) :   1.2504
B( 21-N , 22-C ) :   1.4790 B( 22-C , 23-C ) :   0.8271 B( 22-C , 24-O ) :   1.0733
B( 23-C , 43-H ) :   0.9833 B( 23-C , 44-H ) :   0.9342 B( 23-C , 45-H ) :   0.9360

Dispersion correction           -0.021986127
FINAL SINGLE POINT ENERGY     -1308.345922313086

DIPOLE MOMENT
-------------
                                X             Y             Z
Electronic contribution:      6.03214     -11.82362       2.72938
Nuclear contribution   :     -1.64417      15.98508      -6.30536
                        -----------------------------------------
Total Dipole Moment    :      4.38797       4.16146      -3.57598
                        -----------------------------------------
Magnitude (a.u.)       :      7.02564
Magnitude (Debye)      :     17.85777

Rotational constants in cm-1:     0.012051     0.004117     0.003655
Rotational constants in MHz :   361.286630   123.412308   109.578764

                             ****ORCA TERMINATED NORMALLY****
TOTAL RUN TIME: 0 days 0 hours 1 minutes 54 seconds 279 msec
