   * xtb version 6.5.1 (579679a) compiled by 'ehlert@majestix' on 2022-07-11
          program call               : /lustre/hpc/kemi/ree/PhD/git/ReactivityQM/dep/xtb-6.5.1/bin/xtb --gfn 1 /lustre/hpc/kemi/ree/PhD/git/ReactivityQM/calculations/R03/reac02prodN14/conf12/R03_reac02prodN14_conf12_gfn1.xyz --opt --vfukui --chrg 1 --uhf 0 --alpb DMSO

   ID    Z sym.   atoms
    1    6 C      1, 3, 5, 6, 8, 9, 12-16, 18, 20, 23, 24
    2    8 O      2, 4, 7, 10, 19, 25
    3    7 N      11, 17, 21, 22, 26
    4    1 H      27-46

      * Solvation model:               ALPB
        Solvent                        DMSO
        Solvent mass                       7.8130E+01 g/mol
          :  Hamiltonian                  GFN1-xTB          :
 * total energy  :   -86.2123240 Eh     change       -0.1484182E-09 Eh
 * total energy  :   -86.2351861 Eh     change       -0.2286211E-01 Eh
 * total energy  :   -86.2498009 Eh     change       -0.1461479E-01 Eh
 * total energy  :   -86.2549076 Eh     change       -0.5106712E-02 Eh
 * total energy  :   -86.2593568 Eh     change       -0.4449203E-02 Eh
 * total energy  :   -86.2621409 Eh     change       -0.2784141E-02 Eh
 * total energy  :   -86.2642116 Eh     change       -0.2070635E-02 Eh
 * total energy  :   -86.2656455 Eh     change       -0.1433984E-02 Eh
 * total energy  :   -86.2666009 Eh     change       -0.9553057E-03 Eh
 * total energy  :   -86.2672176 Eh     change       -0.6167140E-03 Eh
 * total energy  :   -86.3503322 Eh     change       -0.1823317E-04 Eh
 * total energy  :   -86.3503484 Eh     change       -0.1617045E-04 Eh
 * total energy  :   -86.3503629 Eh     change       -0.1452940E-04 Eh
 * total energy  :   -86.3503741 Eh     change       -0.1110955E-04 Eh
 * total energy  :   -86.3503831 Eh     change       -0.9059806E-05 Eh
 * total energy  :   -86.3503908 Eh     change       -0.7680520E-05 Eh
 * total energy  :   -86.3504003 Eh     change       -0.9486041E-05 Eh
 * total energy  :   -86.3504069 Eh     change       -0.6578821E-05 Eh
 * total energy  :   -86.3504107 Eh     change       -0.3862100E-05 Eh
   *** GEOMETRY OPTIMIZATION CONVERGED AFTER 93 ITERATIONS ***

 final structure:
================
46
 xtb: 6.5.1 (579679a)
C           -3.54081575322695       -2.57350244894747       -2.72472326204311
O           -2.70593764624068       -2.00318084302347       -1.70352270595253
C           -3.30807638546587       -1.29978204338840       -0.76996509354166
O           -4.49876179723108       -1.11253904488762       -0.70565894265010
C           -2.34060308035474       -0.69740807450848        0.22701830800809
C           -2.91723480146455       -0.14995654551818        1.51630880540648
O           -3.94300989633028       -0.96354181652917        2.00936879145018
C           -1.81746826038937       -0.10073266454121        2.58502893656373
C           -3.43054129783584        1.28342935322561        1.26804526128328
O           -2.04760033736742       -0.19081986450670        3.76926307653003
N           -0.54931827244129        0.13583418954098        2.12034860992072
C            0.51384009924589        0.11291866163579        3.13769190653743
C           -0.15074836979239        0.00571878983128        0.73976878767898
C            0.35341322129933        1.34306313341798        0.06363572355292
C            0.29932173935304        2.56860276245584        0.96996414088421
C           -0.32859500821719        1.60921849220384       -1.27808625662419
N            1.75436401457017        0.99189664247255       -0.19540186248043
C            2.02826926329657       -0.22912072535598        0.16989156047145
O            1.01763865381988       -0.85805612907313        0.70834791903407
C            3.30260391384968       -0.85417183996005        0.02428567779729
N            3.67015342544877       -2.06471354959896        0.35223661219596
N            4.96181603701003       -2.17841037365891        0.02018669273966
C            5.33339257522788       -1.03361277436907       -0.49784472232416
C            6.66280129234914       -0.66221564216399       -1.01273322836662
O            4.32365559188564       -0.16052691437592       -0.52080029811754
N           -1.11891502567332       -0.62609402936487       -0.10462220742041
H           -4.12359930841153       -1.78475655753135       -3.20391160119867
H           -4.21446215809002       -3.30963896335739       -2.28142149373320
H           -2.87068426820240       -3.04581629885230       -3.43965322368140
H           -4.70562708230524       -0.94532926743570        1.40983055578729
H           -4.23413475453279        1.25231284600863        0.53493587316307
H           -2.63059317979054        1.91640242676220        0.89572061785949
H           -3.80944219451942        1.68809603289380        2.20494481234346
H            1.40701511956332        0.58058661092250        2.73861946211129
H            0.15961341637810        0.67109378934564        4.00298465146385
H            0.73302833083688       -0.91685720484325        3.42496434569868
H            0.98909305815814        2.46722469569741        1.80389931758192
H           -0.70990904160578        2.69772901361589        1.35561204025644
H            0.57336521458881        3.45254879030160        0.39737772054152
H           -1.37882208020034        1.84454101523079       -1.11709929086943
H            0.15188851330170        2.45567943271097       -1.76395792183346
H           -0.25016353237532        0.73494250518301       -1.92188129940582
H            2.41712845560489        1.62339189660085       -0.61370949253156
H            7.35392958596670       -1.49337470626616       -0.89373082618938
H            6.58539635446769       -0.39138376915906       -2.06620998529968
H            7.03333365583879        0.21030901117296       -0.47396149259812

          :  Hamiltonian                  GFN1-xTB          :
         :: total energy             -86.350410719198 Eh    ::
         :: gradient norm              0.000846950602 Eh/a0 ::
         :: HOMO-LUMO gap              1.949030744194 eV    ::
         :: SCC energy               -87.153933893998 Eh    ::
         :: -> Gsolv                  -0.117289773969 Eh    ::
         :: repulsion energy           0.834494123048 Eh    ::

    * Orbital Energies and Occupations

         #    Occupation            Energy/Eh            Energy/eV
      -------------------------------------------------------------
         1        2.0000           -0.9164944             -24.9391
       ...           ...                  ...                  ...
        58        2.0000           -0.5368325             -14.6080
        59        2.0000           -0.5306713             -14.4403
        60        2.0000           -0.5261778             -14.3180
        61        2.0000           -0.5233967             -14.2424
        62        2.0000           -0.5214488             -14.1893
        63        2.0000           -0.5158312             -14.0365
        64        2.0000           -0.5142478             -13.9934
        65        2.0000           -0.5062184             -13.7749
        66        2.0000           -0.4927871             -13.4094
        67        2.0000           -0.4925623             -13.4033
        68        2.0000           -0.4764305             -12.9643
        69        2.0000           -0.4696787             -12.7806
        70        2.0000           -0.4581467             -12.4668 (HOMO)
        71                         -0.3865211             -10.5178 (LUMO)
        72                         -0.3597516              -9.7893
        73                         -0.2944645              -8.0128
        74                         -0.2816337              -7.6636
        75                         -0.2596296              -7.0649
        76                         -0.2500084              -6.8031
        77                         -0.1649143              -4.4875
        78                         -0.1575244              -4.2865
        79                         -0.1562344              -4.2514
        80                         -0.1507947              -4.1033
        81                         -0.1484276              -4.0389
       ...                                ...                  ...
       144                          0.7231391              19.6776
      -------------------------------------------------------------
                  HL-Gap            0.0716256 Eh            1.9490 eV

Wiberg/Mayer (AO) data.
largest (>0.10) Wiberg bond orders for each atom

     #   Z sym  total        # sym  WBO       # sym  WBO       # sym  WBO
 ---------------------------------------------------------------------------
     1   6 C    3.851 --    29 H    0.985    27 H    0.978    28 H    0.977
                             2 O    0.877
     2   8 O    2.235 --     3 C    1.164     1 C    0.877     4 O    0.147
     3   6 C    3.852 --     4 O    1.669     2 O    1.164     5 C    0.947
     4   8 O    1.965 --     3 C    1.669     2 O    0.147
     5   6 C    3.935 --    26 N    1.829     6 C    0.964     3 C    0.947
     6   6 C    3.933 --     7 O    0.983     5 C    0.964     9 C    0.940
                             8 C    0.926
     7   8 O    1.907 --     6 C    0.983    30 H    0.831
     8   6 C    3.889 --    10 O    1.668    11 N    1.183     6 C    0.926
     9   6 C    3.984 --    32 H    0.979    31 H    0.979    33 H    0.978
                             6 C    0.940
    10   8 O    1.947 --     8 C    1.668    11 N    0.154
    11   7 N    3.316 --     8 C    1.183    13 C    0.959    12 C    0.920
                            10 O    0.154
    12   6 C    3.921 --    34 H    0.986    35 H    0.980    36 H    0.980
                            11 N    0.920
    13   6 C    3.852 --    26 N    0.996    11 N    0.959    14 C    0.913
                            19 O    0.854
    14   6 C    3.899 --    15 C    0.994    16 C    0.989    13 C    0.913
                            17 N    0.909
    15   6 C    3.978 --    14 C    0.994    37 H    0.978    39 H    0.977
                            38 H    0.974
    16   6 C    3.977 --    14 C    0.989    42 H    0.980    41 H    0.979
                            40 H    0.978
    17   7 N    3.481 --    18 C    1.458    14 C    0.909    43 H    0.857
                            19 O    0.106
    18   6 C    3.886 --    17 N    1.458    19 O    1.168    20 C    1.111
    19   8 O    2.247 --    18 C    1.168    13 C    0.854    17 N    0.106
    20   6 C    3.886 --    21 N    1.525    18 C    1.111    25 O    1.044
    21   7 N    3.015 --    20 C    1.525    22 N    1.281
    22   7 N    2.990 --    23 C    1.521    21 N    1.281
    23   6 C    3.846 --    22 N    1.521    25 O    1.100    24 C    1.043
    24   6 C    3.977 --    23 C    1.043    44 H    0.979    46 H    0.952
                            45 H    0.951
    25   8 O    2.336 --    23 C    1.100    20 C    1.044
    26   7 N    3.052 --     5 C    1.829    13 C    0.996
    27   1 H    1.003 --     1 C    0.978
    28   1 H    1.003 --     1 C    0.977
    29   1 H    1.008 --     1 C    0.985
    30   1 H    0.867 --     7 O    0.831
    31   1 H    1.002 --     9 C    0.979
    32   1 H    1.005 --     9 C    0.979
    33   1 H    0.998 --     9 C    0.978
    34   1 H    1.002 --    12 C    0.986
    35   1 H    1.005 --    12 C    0.980
    36   1 H    1.000 --    12 C    0.980
    37   1 H    0.998 --    15 C    0.978
    38   1 H    1.002 --    15 C    0.974
    39   1 H    0.993 --    15 C    0.977
    40   1 H    0.999 --    16 C    0.978
    41   1 H    0.994 --    16 C    0.979
    42   1 H    1.005 --    16 C    0.980
    43   1 H    0.891 --    17 N    0.857
    44   1 H    0.994 --    24 C    0.979
    45   1 H    0.990 --    24 C    0.951
    46   1 H    0.990 --    24 C    0.952
 ---------------------------------------------------------------------------

           -------------------------------------------------
          | TOTAL ENERGY              -86.350410719198 Eh   |
          | GRADIENT NORM               0.000846950602 Eh/α |
          | HOMO-LUMO GAP               1.949030744194 eV   |
           -------------------------------------------------

 * finished run on 2023/06/20 at 15:50:45.328
