   * xtb version 6.5.1 (579679a) compiled by 'ehlert@majestix' on 2022-07-11
          program call               : /lustre/hpc/kemi/ree/PhD/git/ReactivityQM/dep/xtb-6.5.1/bin/xtb --gfn 1 /lustre/hpc/kemi/ree/PhD/git/ReactivityQM/calculations/R01/reac02prodN02/conf18/R01_reac02prodN02_conf18_gfn1.xyz --opt --vfukui --chrg 1 --uhf 0 --alpb DMSO

   ID    Z sym.   atoms
    1    6 C      1, 3-6, 8, 9, 12, 13, 15
    2    7 N      2, 7, 17
    3    8 O      10, 11, 14, 16
    4    1 H      18-33

      * Solvation model:               ALPB
        Solvent                        DMSO
        Solvent mass                       7.8130E+01 g/mol
          :  Hamiltonian                  GFN1-xTB          :
 * total energy  :   -57.8559570 Eh     change       -0.4632739E-11 Eh
 * total energy  :   -57.8660610 Eh     change       -0.1010397E-01 Eh
 * total energy  :   -57.8693139 Eh     change       -0.3252964E-02 Eh
 * total energy  :   -57.8702282 Eh     change       -0.9142960E-03 Eh
 * total energy  :   -57.8706667 Eh     change       -0.4384977E-03 Eh
 * total energy  :   -57.8708443 Eh     change       -0.1776133E-03 Eh
 * total energy  :   -57.8709990 Eh     change       -0.1546417E-03 Eh
 * total energy  :   -57.8711637 Eh     change       -0.1647573E-03 Eh
 * total energy  :   -57.8713881 Eh     change       -0.2244176E-03 Eh
 * total energy  :   -57.8716450 Eh     change       -0.2568859E-03 Eh
 * total energy  :   -57.8736211 Eh     change       -0.3305411E-04 Eh
 * total energy  :   -57.8736411 Eh     change       -0.2000457E-04 Eh
 * total energy  :   -57.8736541 Eh     change       -0.1298986E-04 Eh
 * total energy  :   -57.8736652 Eh     change       -0.1109038E-04 Eh
 * total energy  :   -57.8736756 Eh     change       -0.1036277E-04 Eh
 * total energy  :   -57.8736856 Eh     change       -0.1004026E-04 Eh
 * total energy  :   -57.8736951 Eh     change       -0.9492860E-05 Eh
 * total energy  :   -57.8737042 Eh     change       -0.9080783E-05 Eh
 * total energy  :   -57.8737086 Eh     change       -0.4393792E-05 Eh
   *** GEOMETRY OPTIMIZATION CONVERGED AFTER 44 ITERATIONS ***

 final structure:
================
33
 xtb: 6.5.1 (579679a)
C           -0.98315728661581       -0.89825945106408       -2.20343644260425
N           -1.64330654576082        0.12210035065684       -1.34955277971004
C           -1.89343321833936       -0.24154208492180        0.09124643847584
C           -2.52400927708117       -1.62989408926124        0.18920241219152
C           -2.83342825610119        0.83335406897657        0.64500380134217
C           -0.55435649081652       -0.17875165069035        0.78634802768783
N            0.49264098436097        0.13652293210451        0.10776967965723
C            1.72195336014759        0.20015786797322        0.72643912179802
C            2.88066639678015        0.48955130050929       -0.17012542059156
O            4.00163637812244        0.73059997675880        0.20493110764645
O            2.52922053183422        0.42904057287938       -1.45578262925672
C            3.56681400158002        0.66724158341681       -2.41566326491097
C            1.83325158886155       -0.02884238541853        2.07068337514744
O            2.98390983833383        0.01739109637568        2.73902610050141
C            0.64773007882620       -0.37190565661780        2.86001753760643
O            0.67761780095309       -0.59118191826664        4.05671842279799
N           -0.51694491569781       -0.44035962740755        2.12159429280318
H           -0.84238569593567       -0.44663349131483       -3.18252806516254
H           -0.02254866851581       -1.14971248448134       -1.76040768786812
H           -1.62363749319868       -1.77071095317670       -2.28223243945052
H           -1.04275170751397        0.94918332264304       -1.34540935415552
H           -2.52919894301162        0.37420627907844       -1.77795198716727
H           -3.38324888246504       -1.69627898229679       -0.47557018938153
H           -1.80540854049480       -2.40685600532443       -0.06488282144509
H           -2.86326310534768       -1.79226218463426        1.21076723629989
H           -2.39353059221645        1.82171193043604        0.52197697631951
H           -3.00774664502417        0.65453829123421        1.70434277001422
H           -3.78824949213893        0.79631201697118        0.12390474385847
H            3.12833707819075        0.48131717474494       -3.39347360599265
H            4.40528561898062       -0.01114005843635       -2.23822552903351
H            3.91123095884634        1.70173579270782       -2.34403182572775
H            2.82762663927060       -0.19381608999840        3.67761375311307
H           -1.35731249881222       -0.68613444415647        2.62168724519710

          :  Hamiltonian                  GFN1-xTB          :
         :: total energy             -57.873708562992 Eh    ::
         :: gradient norm              0.000209968531 Eh/a0 ::
         :: HOMO-LUMO gap              3.012209183600 eV    ::
         :: SCC energy               -58.456517099769 Eh    ::
         :: -> Gsolv                  -0.124380377155 Eh    ::
         :: repulsion energy           0.602222202090 Eh    ::

    * Orbital Energies and Occupations

         #    Occupation            Energy/Eh            Energy/eV
      -------------------------------------------------------------
         1        2.0000           -0.8875894             -24.1525
       ...           ...                  ...                  ...
        35        2.0000           -0.5606240             -15.2554
        36        2.0000           -0.5528615             -15.0441
        37        2.0000           -0.5489875             -14.9387
        38        2.0000           -0.5469944             -14.8845
        39        2.0000           -0.5358631             -14.5816
        40        2.0000           -0.5313166             -14.4579
        41        2.0000           -0.5220951             -14.2069
        42        2.0000           -0.5090060             -13.8508
        43        2.0000           -0.5031244             -13.6907
        44        2.0000           -0.4988216             -13.5736
        45        2.0000           -0.4823911             -13.1265
        46        2.0000           -0.4685842             -12.7508
        47        2.0000           -0.4497947             -12.2395 (HOMO)
        48                         -0.3390980              -9.2273 (LUMO)
        49                         -0.3076916              -8.3727
        50                         -0.2543850              -6.9222
        51                         -0.1822840              -4.9602
        52                         -0.1764571              -4.8016
        53                         -0.1717872              -4.6746
        54                         -0.1643640              -4.4726
        55                         -0.1471516              -4.0042
        56                         -0.1435656              -3.9066
        57                         -0.1377055              -3.7472
        58                         -0.1263309              -3.4376
       ...                                ...                  ...
       100                          0.7377054              20.0740
      -------------------------------------------------------------
                  HL-Gap            0.1106967 Eh            3.0122 eV

Wiberg/Mayer (AO) data.
largest (>0.10) Wiberg bond orders for each atom

     #   Z sym  total        # sym  WBO       # sym  WBO       # sym  WBO
 ---------------------------------------------------------------------------
     1   6 C    3.891 --    20 H    0.984    18 H    0.981    19 H    0.979
                             2 N    0.914
     2   7 N    3.603 --     1 C    0.914    22 H    0.892     3 C    0.888
                            21 H    0.884
     3   6 C    3.905 --     4 C    0.991     6 C    0.986     5 C    0.986
                             2 N    0.888
     4   6 C    3.982 --     3 C    0.991    24 H    0.981    23 H    0.980
                            25 H    0.976
     5   6 C    3.981 --     3 C    0.986    26 H    0.981    28 H    0.979
                            27 H    0.977
     6   6 C    3.943 --     7 N    1.591    17 N    1.178     3 C    0.986
     7   7 N    3.047 --     6 C    1.591     8 C    1.161
     8   6 C    3.957 --    13 C    1.507     7 N    1.161     9 C    0.995
     9   6 C    3.855 --    10 O    1.671    11 O    1.111     8 C    0.995
    10   8 O    1.936 --     9 C    1.671    11 O    0.136
    11   8 O    2.198 --     9 C    1.111    12 C    0.892    10 O    0.136
    12   6 C    3.866 --    29 H    0.986    30 H    0.979    31 H    0.979
                            11 O    0.892
    13   6 C    3.922 --     8 C    1.507    14 O    1.125    15 C    1.053
    14   8 O    2.103 --    13 C    1.125    32 H    0.802
    15   6 C    3.906 --    16 O    1.604    17 N    1.119    13 C    1.053
    16   8 O    1.925 --    15 C    1.604    17 N    0.132
    17   7 N    3.465 --     6 C    1.178    15 C    1.119    33 H    0.878
                            16 O    0.132
    18   1 H    0.990 --     1 C    0.981
    19   1 H    1.012 --     1 C    0.979
    20   1 H    0.994 --     1 C    0.984
    21   1 H    0.937 --     2 N    0.884
    22   1 H    0.918 --     2 N    0.892
    23   1 H    0.992 --     4 C    0.980
    24   1 H    0.996 --     4 C    0.981
    25   1 H    0.994 --     4 C    0.976
    26   1 H    0.993 --     5 C    0.981
    27   1 H    0.994 --     5 C    0.977
    28   1 H    0.992 --     5 C    0.979
    29   1 H    1.010 --    12 C    0.986
    30   1 H    1.006 --    12 C    0.979
    31   1 H    1.005 --    12 C    0.979
    32   1 H    0.838 --    14 O    0.802
    33   1 H    0.919 --    17 N    0.878
 ---------------------------------------------------------------------------

           -------------------------------------------------
          | TOTAL ENERGY              -57.873708562992 Eh   |
          | GRADIENT NORM               0.000209968531 Eh/α |
          | HOMO-LUMO GAP               3.012209183600 eV   |
           -------------------------------------------------

 * finished run on 2023/06/20 at 15:03:41.471
