   * xtb version 6.5.1 (579679a) compiled by 'ehlert@majestix' on 2022-07-11
          program call               : /lustre/hpc/kemi/ree/PhD/git/ReactivityQM/dep/xtb-6.5.1/bin/xtb --gfn 1 /lustre/hpc/kemi/ree/PhD/git/ReactivityQM/calculations/R02deprot/reac02prodN01/conf12/R02deprot_reac02prodN01_conf12_gfn1.xyz --opt --vfukui --chrg 1 --uhf 0 --alpb DMSO

   ID    Z sym.   atoms
    1    6 C      1, 4
    2    8 O      2, 5
    3    5 B      3
    4    1 H      6-13

      * Solvation model:               ALPB
        Solvent                        DMSO
        Solvent mass                       7.8130E+01 g/mol
          :  Hamiltonian                  GFN1-xTB          :
 * total energy  :   -19.0505613 Eh     change       -0.6486545E-10 Eh
 * total energy  :   -19.0615720 Eh     change       -0.1101073E-01 Eh
 * total energy  :   -19.0643130 Eh     change       -0.2741053E-02 Eh
 * total energy  :   -19.0649003 Eh     change       -0.5872181E-03 Eh
 * total energy  :   -19.0652317 Eh     change       -0.3314574E-03 Eh
 * total energy  :   -19.0652756 Eh     change       -0.4384789E-04 Eh
 * total energy  :   -19.0652996 Eh     change       -0.2397908E-04 Eh
 * total energy  :   -19.0653184 Eh     change       -0.1886032E-04 Eh
 * total energy  :   -19.0653296 Eh     change       -0.1121763E-04 Eh
 * total energy  :   -19.0653386 Eh     change       -0.8957036E-05 Eh
 * total energy  :   -19.0653439 Eh     change       -0.5277477E-05 Eh
 * total energy  :   -19.0653578 Eh     change       -0.1390302E-04 Eh
 * total energy  :   -19.0653658 Eh     change       -0.8043498E-05 Eh
 * total energy  :   -19.0653675 Eh     change       -0.1707470E-05 Eh
 * total energy  :   -19.0653753 Eh     change       -0.7812203E-05 Eh
 * total energy  :   -19.0653778 Eh     change       -0.2481466E-05 Eh
   *** GEOMETRY OPTIMIZATION CONVERGED AFTER 16 ITERATIONS ***

 final structure:
================
13
 xtb: 6.5.1 (579679a)
C            1.97177954540580       -0.51234939038675        0.06976094741016
O            0.77192193091847        0.25725525507298       -0.23693358443305
B           -0.60176129660635       -0.08386401282045        0.17296671885530
C           -1.71729784224923        0.85611837915100       -0.34916930475323
O           -0.63262467717995       -1.17944194048072        0.92081300834055
H            2.69560995658954        0.15449535963928        0.53474659294782
H            1.66911046547423       -1.29799700154391        0.75768334098486
H            2.35905361294688       -0.93320942551098       -0.85688606726732
H            0.93459812922882        1.02602007700019       -0.79887946848171
H           -2.58728328965254        0.84793105433003        0.30347129237619
H           -2.04510099242474        0.52332253403332       -1.33522878262767
H           -1.37011263861413        1.88139436802999       -0.45282289583928
H           -1.44789390383730       -1.53967625651446        1.27047720248777

          :  Hamiltonian                  GFN1-xTB          :
         :: total energy             -19.065377810730 Eh    ::
         :: gradient norm              0.000500993144 Eh/a0 ::
         :: HOMO-LUMO gap              7.486927014143 eV    ::
         :: SCC energy               -19.256815686252 Eh    ::
         :: -> Gsolv                  -0.095131718156 Eh    ::
         :: repulsion energy           0.194917722770 Eh    ::

    * Orbital Energies and Occupations

         #    Occupation            Energy/Eh            Energy/eV
      -------------------------------------------------------------
         1        2.0000           -0.9095933             -24.7513
       ...           ...                  ...                  ...
         3        2.0000           -0.7656102             -20.8333
         4        2.0000           -0.7556580             -20.5625
         5        2.0000           -0.6870333             -18.6951
         6        2.0000           -0.6733949             -18.3240
         7        2.0000           -0.6640076             -18.0686
         8        2.0000           -0.6502082             -17.6931
         9        2.0000           -0.6221752             -16.9302
        10        2.0000           -0.6043491             -16.4452
        11        2.0000           -0.5660924             -15.4042
        12        2.0000           -0.5532919             -15.0558
        13        2.0000           -0.5444695             -14.8158
        14        2.0000           -0.5432043             -14.7813
        15        2.0000           -0.5240335             -14.2597 (HOMO)
        16                         -0.2488940              -6.7728 (LUMO)
        17                         -0.1893043              -5.1512
        18                         -0.1756906              -4.7808
        19                         -0.1496403              -4.0719
        20                         -0.1266648              -3.4467
        21                         -0.1081430              -2.9427
        22                         -0.0952971              -2.5932
        23                         -0.0795070              -2.1635
        24                         -0.0715097              -1.9459
        25                         -0.0513567              -1.3975
        26                          0.0905835               2.4649
       ...                                ...                  ...
        36                          0.6462285              17.5848
      -------------------------------------------------------------
                  HL-Gap            0.2751395 Eh            7.4869 eV

Wiberg/Mayer (AO) data.
largest (>0.10) Wiberg bond orders for each atom

     #   Z sym  total        # sym  WBO       # sym  WBO       # sym  WBO
 ---------------------------------------------------------------------------
     1   6 C    3.783 --     6 H    0.982     8 H    0.982     7 H    0.978
                             2 O    0.809
     2   8 O    2.394 --     1 C    0.809     3 B    0.766     9 H    0.760
     3   5 B    3.138 --     5 O    1.257     4 C    1.034     2 O    0.766
     4   6 C    3.986 --     3 B    1.034    12 H    0.971    10 H    0.970
                            11 H    0.948
     5   8 O    2.145 --     3 B    1.257    13 H    0.792
     6   1 H    0.995 --     1 C    0.982
     7   1 H    1.000 --     1 C    0.978
     8   1 H    0.995 --     1 C    0.982
     9   1 H    0.790 --     2 O    0.760
    10   1 H    0.992 --     4 C    0.970
    11   1 H    0.991 --     4 C    0.948
    12   1 H    0.992 --     4 C    0.971
    13   1 H    0.812 --     5 O    0.792
 ---------------------------------------------------------------------------

           -------------------------------------------------
          | TOTAL ENERGY              -19.065377810730 Eh   |
          | GRADIENT NORM               0.000500993144 Eh/α |
          | HOMO-LUMO GAP               7.486927014143 eV   |
           -------------------------------------------------

 * finished run on 2023/06/20 at 18:32:01.909
