   * xtb version 6.5.1 (579679a) compiled by 'ehlert@majestix' on 2022-07-11
          program call               : /lustre/hpc/kemi/ree/PhD/git/ReactivityQM/dep/xtb-6.5.1/bin/xtb --gfn 1 /lustre/hpc/kemi/ree/PhD/git/ReactivityQM/calculations/R02deprot/reac01prodN10/conf15/R02deprot_reac01prodN10_conf15_gfn1.xyz --opt --vfukui --chrg 0 --uhf 0 --alpb DMSO

   ID    Z sym.   atoms
    1    6 C      1, 3, 5, 6, 8-11, 13, 15, 18, 19, 22, 24
    2    8 O      2, 4, 14, 20, 23, 25
    3    7 N      7, 12, 16, 17, 21
    4    1 H      26-42

      * Solvation model:               ALPB
        Solvent                        DMSO
        Solvent mass                       7.8130E+01 g/mol
          :  Hamiltonian                  GFN1-xTB          :
 * total energy  :   -82.9309881 Eh     change       -0.3339551E-11 Eh
 * total energy  :   -82.9439672 Eh     change       -0.1297918E-01 Eh
 * total energy  :   -82.9492754 Eh     change       -0.5308138E-02 Eh
 * total energy  :   -82.9504588 Eh     change       -0.1183373E-02 Eh
 * total energy  :   -82.9511311 Eh     change       -0.6723352E-03 Eh
 * total energy  :   -82.9513502 Eh     change       -0.2190828E-03 Eh
 * total energy  :   -82.9514736 Eh     change       -0.1234326E-03 Eh
 * total energy  :   -82.9515563 Eh     change       -0.8264631E-04 Eh
 * total energy  :   -82.9516207 Eh     change       -0.6444154E-04 Eh
 * total energy  :   -82.9516792 Eh     change       -0.5851161E-04 Eh
 * total energy  :   -82.9545598 Eh     change       -0.6378886E-05 Eh
 * total energy  :   -82.9545657 Eh     change       -0.5957064E-05 Eh
 * total energy  :   -82.9545714 Eh     change       -0.5689425E-05 Eh
 * total energy  :   -82.9545771 Eh     change       -0.5731212E-05 Eh
 * total energy  :   -82.9545830 Eh     change       -0.5865484E-05 Eh
 * total energy  :   -82.9545890 Eh     change       -0.5985378E-05 Eh
 * total energy  :   -82.9545949 Eh     change       -0.5923506E-05 Eh
 * total energy  :   -82.9546003 Eh     change       -0.5406759E-05 Eh
 * total energy  :   -82.9546029 Eh     change       -0.2612524E-05 Eh
   *** GEOMETRY OPTIMIZATION CONVERGED AFTER 94 ITERATIONS ***

 final structure:
================
42
 xtb: 6.5.1 (579679a)
C           -5.94407630967644       -0.97590443515259        0.96877822140608
O           -4.99270691321604       -0.03992744024110        0.42660893903627
C           -3.73779991016455       -0.39863600489863        0.38062994121174
O           -3.26474117935664       -1.42573884273611        0.76225906048569
C           -2.85951798315175        0.76379402530808       -0.26805961924315
C           -3.68772670522617        1.50000663185353       -1.32697776742796
N           -1.73679308044595        0.11674360680158       -0.85477868428987
C           -0.60796100620295        0.08607402534367       -0.21811644780474
C            0.49660132240944       -0.73832528498064       -0.86178530622421
C            0.49212377398181       -0.53912927134211       -2.38107835507523
C            0.24319821428663       -2.21065082033553       -0.49746289606222
N            1.76969181949121       -0.29724843403237       -0.29922178733198
C            2.96164155762104       -0.81789820786098       -0.63121511221977
O            3.15136966121519       -1.70912240412573       -1.44389772671697
C            4.06126147870149       -0.15547850450368        0.12300252993340
N            3.92855162005939        0.77683672338489        1.01750572834410
N            5.18444477096009        1.09597743371239        1.44241857223043
C            6.00251483885020        0.33743422826489        0.77903998851931
C            7.47892627118875        0.30372527563001        0.87074695210781
O            5.35467197523158       -0.47546964107337       -0.06884504752560
N           -0.29618602405013        0.66334978415586        0.96773139340460
C           -1.19912034298785        1.42534829184825        1.58498154636118
O           -1.06752962499284        2.06863115196193        2.62999658967617
C           -2.52740778616105        1.54710036586245        0.91755725237302
O           -3.36935294427087        2.32082717656352        1.50079282486543
H           -5.52625868520250       -1.45831724822293        1.85367035517262
H           -6.82772661479313       -0.39545096088129        1.22291032774054
H           -6.18302410886707       -1.72411115640698        0.21188782184525
H           -4.05422275841827        0.78677848897733       -2.06105704534423
H           -4.52493664692823        2.01125754558461       -0.85891925845254
H           -3.04868240314514        2.22745427547707       -1.82288418212740
H           -0.49272729350054       -0.78996318207874       -2.77105701722803
H            1.23610120294490       -1.18026678147834       -2.85020776208322
H            0.71194902692189        0.50027246630794       -2.62035579406366
H            0.98201787046702       -2.84982360933316       -0.97786959291111
H            0.30289299872746       -2.34117139146526        0.58232929992702
H           -0.75230439647066       -2.49468401608524       -0.83515985661456
H            1.72308814494223        0.41624835781319        0.42081827647695
H            7.91701383943562        0.55313330442214       -0.09557922159036
H            7.81517178935034        1.01858704638396        1.61760634167142
H            7.81396130078738       -0.69647470236046        1.14444310958097
H           -2.92639276035342        2.68076013393877        2.31881440796279

          :  Hamiltonian                  GFN1-xTB          :
         :: total energy             -82.954602922825 Eh    ::
         :: gradient norm              0.000210581495 Eh/a0 ::
         :: HOMO-LUMO gap              1.249037990732 eV    ::
         :: SCC energy               -83.726046343614 Eh    ::
         :: -> Gsolv                  -0.054333360679 Eh    ::
         :: repulsion energy           0.797696665720 Eh    ::

    * Orbital Energies and Occupations

         #    Occupation            Energy/Eh            Energy/eV
      -------------------------------------------------------------
         1        2.0000           -0.8764439             -23.8493
       ...           ...                  ...                  ...
        55        2.0000           -0.5030313             -13.6882
        56        2.0000           -0.4992238             -13.5846
        57        2.0000           -0.4966853             -13.5155
        58        2.0000           -0.4891728             -13.3111
        59        2.0000           -0.4876232             -13.2689
        60        2.0000           -0.4796470             -13.0519
        61        2.0000           -0.4621714             -12.5763
        62        2.0000           -0.4566698             -12.4266
        63        2.0000           -0.4526259             -12.3166
        64        2.0000           -0.4471286             -12.1670
        65        2.0000           -0.4409283             -11.9983
        66        2.0000           -0.4332539             -11.7894
        67        2.0000           -0.4264491             -11.6043 (HOMO)
        68                         -0.3805478             -10.3552 (LUMO)
        69                         -0.3055103              -8.3134
        70                         -0.2944178              -8.0115
        71                         -0.2723328              -7.4106
        72                         -0.2547610              -6.9324
        73                         -0.1998691              -5.4387
        74                         -0.1936284              -5.2689
        75                         -0.1528527              -4.1593
        76                         -0.1418757              -3.8606
        77                         -0.1352953              -3.6816
        78                         -0.1200244              -3.2660
       ...                                ...                  ...
       134                          0.7334140              19.9572
      -------------------------------------------------------------
                  HL-Gap            0.0459013 Eh            1.2490 eV

Wiberg/Mayer (AO) data.
largest (>0.10) Wiberg bond orders for each atom

     #   Z sym  total        # sym  WBO       # sym  WBO       # sym  WBO
 ---------------------------------------------------------------------------
     1   6 C    3.839 --    27 H    0.982    26 H    0.980    28 H    0.978
                             2 O    0.860
     2   8 O    2.242 --     3 C    1.178     1 C    0.860     4 O    0.142
     3   6 C    3.851 --     4 O    1.726     2 O    1.178     5 C    0.774
     4   8 O    2.024 --     3 C    1.726     2 O    0.142
     5   6 C    3.969 --    24 C    1.058     7 N    1.027     6 C    0.950
                             3 C    0.774
     6   6 C    3.978 --    29 H    0.984    30 H    0.983    31 H    0.981
                             5 C    0.950
     7   7 N    3.002 --     8 C    1.596     5 C    1.027
     8   6 C    3.943 --     7 N    1.596    21 N    1.243     9 C    0.978
     9   6 C    3.936 --    10 C    0.988     8 C    0.978    11 C    0.972
                            12 N    0.929
    10   6 C    3.991 --     9 C    0.988    34 H    0.986    32 H    0.983
                            33 H    0.982
    11   6 C    3.990 --    36 H    0.986    37 H    0.985    35 H    0.981
                             9 C    0.972
    12   7 N    3.365 --    13 C    1.276     9 C    0.929    38 H    0.879
                            14 O    0.183
    13   6 C    3.921 --    14 O    1.578    12 N    1.276    15 C    0.985
    14   8 O    1.898 --    13 C    1.578    12 N    0.183
    15   6 C    3.873 --    16 N    1.615    20 O    1.063    13 C    0.985
    16   7 N    3.013 --    15 C    1.615    17 N    1.196
    17   7 N    2.980 --    18 C    1.609    16 N    1.196
    18   6 C    3.872 --    17 N    1.609    20 O    1.082    19 C    1.031
    19   6 C    3.987 --    18 C    1.031    40 H    0.983    41 H    0.964
                            39 H    0.963
    20   8 O    2.328 --    18 C    1.082    15 C    1.063
    21   7 N    3.025 --    22 C    1.311     8 C    1.243    23 O    0.163
                            24 C    0.109
    22   6 C    3.934 --    23 O    1.511    21 N    1.311    24 C    0.989
    23   8 O    1.884 --    22 C    1.511    21 N    0.163
    24   6 C    3.786 --    25 O    1.330     5 C    1.058    22 C    0.989
                            21 N    0.109
    25   8 O    2.252 --    24 C    1.330    42 H    0.745
    26   1 H    1.002 --     1 C    0.980
    27   1 H    1.005 --     1 C    0.982
    28   1 H    1.001 --     1 C    0.978
    29   1 H    1.001 --     6 C    0.984
    30   1 H    1.004 --     6 C    0.983
    31   1 H    0.999 --     6 C    0.981
    32   1 H    1.014 --    10 C    0.983
    33   1 H    1.011 --    10 C    0.982
    34   1 H    1.004 --    10 C    0.986
    35   1 H    1.009 --    11 C    0.981
    36   1 H    1.003 --    11 C    0.986
    37   1 H    1.007 --    11 C    0.985
    38   1 H    0.970 --    12 N    0.879
    39   1 H    0.997 --    19 C    0.963
    40   1 H    0.999 --    19 C    0.983
    41   1 H    0.997 --    19 C    0.964
    42   1 H    0.822 --    25 O    0.745
 ---------------------------------------------------------------------------

           -------------------------------------------------
          | TOTAL ENERGY              -82.954602922825 Eh   |
          | GRADIENT NORM               0.000210581495 Eh/α |
          | HOMO-LUMO GAP               1.249037990732 eV   |
           -------------------------------------------------

 * finished run on 2023/06/20 at 18:17:55.716
