   * xtb version 6.5.1 (579679a) compiled by 'ehlert@majestix' on 2022-07-11
          program call               : /lustre/hpc/kemi/ree/PhD/git/ReactivityQM/dep/xtb-6.5.1/bin/xtb --gfn 1 /lustre/hpc/kemi/ree/PhD/git/ReactivityQM/calculations/R02oxygendeprot/reac01prodE08/conf06/R02oxygendeprot_reac01prodE08_conf06_gfn1.xyz --opt --vfukui --chrg -2 --uhf 0 --alpb DMSO

   ID    Z sym.   atoms
    1    6 C      1, 3, 5, 7-10, 12, 14, 15, 18, 19, 22, 24
    2    8 O      2, 4, 13, 20, 23, 25
    3    7 N      6, 11, 16, 17, 21
    4    1 H      26-42

      * Solvation model:               ALPB
        Solvent                        DMSO
        Solvent mass                       7.8130E+01 g/mol
          :  Hamiltonian                  GFN1-xTB          :
 * total energy  :   -83.6238712 Eh     change       -0.2069100E-10 Eh
 * total energy  :   -83.6375556 Eh     change       -0.1368434E-01 Eh
 * total energy  :   -83.6429171 Eh     change       -0.5361520E-02 Eh
 * total energy  :   -83.6440434 Eh     change       -0.1126294E-02 Eh
 * total energy  :   -83.6449029 Eh     change       -0.8594656E-03 Eh
 * total energy  :   -83.6453680 Eh     change       -0.4651578E-03 Eh
 * total energy  :   -83.6458093 Eh     change       -0.4412415E-03 Eh
 * total energy  :   -83.6462833 Eh     change       -0.4740930E-03 Eh
 * total energy  :   -83.6468060 Eh     change       -0.5226911E-03 Eh
 * total energy  :   -83.6474069 Eh     change       -0.6008616E-03 Eh
 * total energy  :   -83.6652335 Eh     change       -0.1747533E-04 Eh
 * total energy  :   -83.6652606 Eh     change       -0.2713604E-04 Eh
 * total energy  :   -83.6652851 Eh     change       -0.2447279E-04 Eh
 * total energy  :   -83.6653096 Eh     change       -0.2452010E-04 Eh
 * total energy  :   -83.6653288 Eh     change       -0.1914145E-04 Eh
 * total energy  :   -83.6653418 Eh     change       -0.1304448E-04 Eh
 * total energy  :   -83.6653513 Eh     change       -0.9530445E-05 Eh
 * total energy  :   -83.6653613 Eh     change       -0.1000046E-04 Eh
 * total energy  :   -83.6653651 Eh     change       -0.3713646E-05 Eh
   *** GEOMETRY OPTIMIZATION CONVERGED AFTER 44 ITERATIONS ***

 final structure:
================
42
 xtb: 6.5.1 (579679a)
C            6.16296138735691        1.15479661218272       -0.00063786746897
O            4.79301403674945        0.80755383304076       -0.01280959833713
C            4.52644045345904       -0.55096107656448       -0.15354849462550
O            5.47371058404124       -1.32920865495599       -0.26373540268899
C            3.12206356614268       -0.84754951811444       -0.14885112715885
N            2.27091280863626        0.24517311212023        0.00391621964133
C            0.99122570883744        0.02835717622605        0.00099107713962
C            0.10976976960213        1.26423774265023        0.22691752255511
C            0.64470621483193        2.46602545601562       -0.55548128642532
C            0.09245011729148        1.58405030897487        1.72675906650757
N           -1.27054698143332        0.95226769448016       -0.16525625370489
C           -1.59471985621630        0.49406126556774       -1.38527325994978
O           -0.97785927324844        0.70934864935099       -2.41956358124798
C           -2.83378224187173       -0.43076220496368       -1.37970359867717
C           -3.42342852505409       -0.59025121941922       -2.77864376786442
N           -2.38835905228319       -1.73480101239496       -0.84158094477289
N           -3.18259174652956       -1.97238056320876        0.30872813688978
C           -3.97047209176597       -0.99178218492314        0.44755494578850
C           -5.01794665181752       -0.84069677722419        1.48904968298171
O           -3.83454849934294        0.01557299834132       -0.46852768819338
N            0.35975260756159       -1.15593393316098       -0.12700590755850
C            1.09756806916884       -2.27987957491351       -0.28556051723420
O            0.53906895956183       -3.39244240162857       -0.42439108227276
C            2.61127182631033       -2.16715640392800       -0.29518927721148
O            3.30794841844596       -3.20368696713685       -0.43331144720313
H            6.22241174253808        2.23873482018904        0.10129478922665
H            6.68450845023497        0.68328225551501        0.84101000252442
H            6.65986965619317        0.85056905029043       -0.92987781013277
H            0.63822810117301        2.26526614463153       -1.62604894241133
H            0.04078296459022        3.35057160179464       -0.35737520776332
H            1.67198324678904        2.65536718223511       -0.24314127314588
H           -0.51921541996293        2.46223606994044        1.92942746005765
H            1.11029926590029        1.77676057179951        2.06461650256596
H           -0.30790459368583        0.74006923438446        2.28873612142814
H           -1.87171191854020        0.66399500983360        0.59125405938309
H           -3.80151374241543        0.36756951260308       -3.12962045169012
H           -4.23860097952904       -1.30952012471474       -2.75170132642600
H           -2.65002904568533       -0.94240545380387       -3.45913540962831
H           -4.90407173328910        0.11429521197568        1.99956204789512
H           -6.00561423663609       -0.85889357886636        1.02852559733388
H           -4.94247343596180       -1.65173995916985        2.20934693692262
H           -1.39555593019231       -1.64011090502724       -0.48900764503031

          :  Hamiltonian                  GFN1-xTB          :
         :: total energy             -83.665365054259 Eh    ::
         :: gradient norm              0.000405174112 Eh/a0 ::
         :: HOMO-LUMO gap              2.206332281637 eV    ::
         :: SCC energy               -84.397905361703 Eh    ::
         :: -> Gsolv                  -0.298747449949 Eh    ::
         :: repulsion energy           0.760523654870 Eh    ::

    * Orbital Energies and Occupations

         #    Occupation            Energy/Eh            Energy/eV
      -------------------------------------------------------------
         1        2.0000           -0.8057010             -21.9242
       ...           ...                  ...                  ...
        56        2.0000           -0.4411993             -12.0056
        57        2.0000           -0.4368015             -11.8860
        58        2.0000           -0.4306590             -11.7188
        59        2.0000           -0.4247980             -11.5593
        60        2.0000           -0.4134419             -11.2503
        61        2.0000           -0.4040477             -10.9947
        62        2.0000           -0.4005797             -10.9003
        63        2.0000           -0.3870575             -10.5324
        64        2.0000           -0.3689371             -10.0393
        65        2.0000           -0.3665421              -9.9741
        66        2.0000           -0.3583785              -9.7520
        67        2.0000           -0.3145554              -8.5595
        68        2.0000           -0.3122648              -8.4972 (HOMO)
        69                         -0.2311836              -6.2908 (LUMO)
        70                         -0.2239388              -6.0937
        71                         -0.2226847              -6.0596
        72                         -0.1801417              -4.9019
        73                         -0.1441683              -3.9230
        74                         -0.1287825              -3.5043
        75                         -0.1103757              -3.0035
        76                         -0.1097134              -2.9855
        77                         -0.1056090              -2.8738
        78                         -0.0959807              -2.6118
        79                         -0.0695189              -1.8917
       ...                                ...                  ...
       134                          0.7724499              21.0194
      -------------------------------------------------------------
                  HL-Gap            0.0810812 Eh            2.2063 eV

Wiberg/Mayer (AO) data.
largest (>0.10) Wiberg bond orders for each atom

     #   Z sym  total        # sym  WBO       # sym  WBO       # sym  WBO
 ---------------------------------------------------------------------------
     1   6 C    3.915 --    26 H    0.987    27 H    0.980    28 H    0.980
                             2 O    0.945
     2   8 O    2.104 --     3 C    0.976     1 C    0.945
     3   6 C    3.845 --     4 O    1.544     5 C    1.184     2 O    0.976
     4   8 O    1.832 --     3 C    1.544
     5   6 C    3.918 --    24 C    1.262     3 C    1.184     6 N    1.131
                            25 O    0.113
     6   7 N    2.995 --     7 C    1.551     5 C    1.131
     7   6 C    3.959 --     6 N    1.551    21 N    1.266     8 C    0.949
     8   6 C    3.921 --     9 C    0.996    10 C    0.991     7 C    0.949
                            11 N    0.909
     9   6 C    3.995 --     8 C    0.996    30 H    0.988    31 H    0.984
                            29 H    0.981
    10   6 C    3.995 --     8 C    0.991    32 H    0.987    34 H    0.984
                            33 H    0.984
    11   7 N    3.340 --    12 C    1.284    35 H    0.914     8 C    0.909
                            13 O    0.164
    12   6 C    3.899 --    13 O    1.593    11 N    1.284    14 C    0.916
    13   8 O    1.892 --    12 C    1.593    11 N    0.164
    14   6 C    3.879 --    15 C    0.992    16 N    0.953    12 C    0.916
                            20 O    0.908
    15   6 C    3.995 --    14 C    0.992    37 H    0.986    36 H    0.985
                            38 H    0.983
    16   7 N    3.032 --    17 N    1.015    14 C    0.953    42 H    0.854
    17   7 N    2.992 --    18 C    1.771    16 N    1.015    20 O    0.113
    18   6 C    3.896 --    17 N    1.771    19 C    1.021    20 O    1.003
    19   6 C    3.993 --    18 C    1.021    41 H    0.985    39 H    0.972
                            40 H    0.968
    20   8 O    2.124 --    18 C    1.003    14 C    0.908    17 N    0.113
    21   7 N    3.034 --    22 C    1.286     7 C    1.266    23 O    0.133
                            42 H    0.105
    22   6 C    3.910 --    23 O    1.478    21 N    1.286    24 C    0.975
    23   8 O    1.761 --    22 C    1.478    21 N    0.133
    24   6 C    3.933 --    25 O    1.486     5 C    1.262    22 C    0.975
    25   8 O    1.777 --    24 C    1.486     5 C    0.113
    26   1 H    1.019 --     1 C    0.987
    27   1 H    1.018 --     1 C    0.980
    28   1 H    1.019 --     1 C    0.980
    29   1 H    1.023 --     9 C    0.981
    30   1 H    1.006 --     9 C    0.988
    31   1 H    1.026 --     9 C    0.984
    32   1 H    1.003 --    10 C    0.987
    33   1 H    1.012 --    10 C    0.984
    34   1 H    1.005 --    10 C    0.984
    35   1 H    0.960 --    11 N    0.914
    36   1 H    1.006 --    15 C    0.985
    37   1 H    1.009 --    15 C    0.986
    38   1 H    1.013 --    15 C    0.983
    39   1 H    1.001 --    19 C    0.972
    40   1 H    1.002 --    19 C    0.968
    41   1 H    1.003 --    19 C    0.985
    42   1 H    1.016 --    16 N    0.854    21 N    0.105
 ---------------------------------------------------------------------------

           -------------------------------------------------
          | TOTAL ENERGY              -83.665365054259 Eh   |
          | GRADIENT NORM               0.000405174112 Eh/α |
          | HOMO-LUMO GAP               2.206332281637 eV   |
           -------------------------------------------------

 * finished run on 2023/06/21 at 17:10:33.187
