   * xtb version 6.5.1 (579679a) compiled by 'ehlert@majestix' on 2022-07-11
          program call               : /lustre/hpc/kemi/ree/PhD/git/ReactivityQM/dep/xtb-6.5.1/bin/xtb --gfn 1 /lustre/hpc/kemi/ree/PhD/git/ReactivityQM/calculations/R02deprot/reac01prodE05/conf01/R02deprot_reac01prodE05_conf01_gfn1.xyz --opt --vfukui --chrg -2 --uhf 0 --alpb DMSO

   ID    Z sym.   atoms
    1    6 C      1, 3, 5, 6, 8, 11-14, 16, 18, 21, 22, 25
    2    8 O      2, 4, 7, 9, 17, 23
    3    7 N      10, 15, 19, 20, 24
    4    1 H      26-42

      * Solvation model:               ALPB
        Solvent                        DMSO
        Solvent mass                       7.8130E+01 g/mol
          :  Hamiltonian                  GFN1-xTB          :
 * total energy  :   -83.5590057 Eh     change       -0.1449507E-10 Eh
 * total energy  :   -83.5732029 Eh     change       -0.1419726E-01 Eh
 * total energy  :   -83.5787546 Eh     change       -0.5551703E-02 Eh
 * total energy  :   -83.5798499 Eh     change       -0.1095302E-02 Eh
 * total energy  :   -83.5805737 Eh     change       -0.7237344E-03 Eh
 * total energy  :   -83.5808989 Eh     change       -0.3252255E-03 Eh
 * total energy  :   -83.5811912 Eh     change       -0.2922869E-03 Eh
 * total energy  :   -83.5814474 Eh     change       -0.2561754E-03 Eh
 * total energy  :   -83.5816981 Eh     change       -0.2507454E-03 Eh
 * total energy  :   -83.5819249 Eh     change       -0.2267550E-03 Eh
 * total energy  :   -83.5833844 Eh     change       -0.1094960E-04 Eh
 * total energy  :   -83.5834084 Eh     change       -0.2401965E-04 Eh
 * total energy  :   -83.5834272 Eh     change       -0.1879994E-04 Eh
 * total energy  :   -83.5834465 Eh     change       -0.1928371E-04 Eh
 * total energy  :   -83.5834537 Eh     change       -0.7202395E-05 Eh
 * total energy  :   -83.5834621 Eh     change       -0.8443124E-05 Eh
 * total energy  :   -83.5834681 Eh     change       -0.5909451E-05 Eh
 * total energy  :   -83.5834740 Eh     change       -0.5973226E-05 Eh
 * total energy  :   -83.5834784 Eh     change       -0.4416958E-05 Eh
   *** GEOMETRY OPTIMIZATION CONVERGED AFTER 41 ITERATIONS ***

 final structure:
================
42
 xtb: 6.5.1 (579679a)
C           -2.66786986903512        3.70714876081147        0.30823062379602
O           -2.29777147586618        2.34392122727374        0.32357204062234
C           -3.30239828845146        1.46007781388652       -0.13786267498943
O           -4.37791045481716        1.95266356872282       -0.53968755230949
C           -2.95435977153720        0.09952368470469       -0.07182995145385
C           -3.73968541185772       -0.95624886474348       -0.60616877437256
O           -5.05247135903820       -0.74056833893636       -0.98658500531642
C           -3.23971753636431       -2.25080297028582       -0.80880226688114
O           -3.95421949114527       -3.19584179697325       -1.26840912260151
N           -1.87457081248999       -2.45289770177400       -0.52897369996312
C           -1.18747944259397       -1.55429860117413        0.08886353085219
C            0.27969321501481       -1.91760505222189        0.35126878869868
C            0.36141845608947       -2.81566494164570        1.59702549224618
C            0.80447560154513       -2.70504311421588       -0.86717258845430
N            1.05354390272205       -0.68921262341844        0.52137812918803
C            2.45509272124279       -0.73781864256804        0.64228541070111
O            3.06707940709849       -1.71902871804538        1.12139909527877
C            3.05191228050596        0.48107083122837        0.20760419359450
N            2.40966842003828        1.52006672467406       -0.34413085799780
N            3.36650406810096        2.45239185239808       -0.64245071563255
C            4.50707807474018        1.96604907298138       -0.27887112448868
C            5.83709663359286        2.61375508335249       -0.40571629846190
O            4.41198948795085        0.72856474925558        0.26759220285266
N           -1.67025715193601       -0.31387378764705        0.45178978128190
C           -1.28053742969075        0.27537267856733        1.73797690208027
H           -3.55740141563891        3.88700549971395        0.92532147063696
H           -2.88056422212441        4.05440881869474       -0.71141799033574
H           -1.83119846360552        4.27852201442433        0.71415419593640
H           -5.37086692822954       -1.60274005572358       -1.31108600275561
H           -0.37292869619687       -3.61624431437694        1.50541009917108
H            1.35266649330165       -3.25651146146160        1.68926244191572
H            0.15200276310145       -2.25013860481008        2.50367558246087
H            0.19187525706511       -3.59302239600795       -1.02042048373637
H            1.83650490734073       -3.01047654753760       -0.70128737907751
H            0.75570462033379       -2.08811144777622       -1.76439577910625
H            0.76101008754234        0.04410794084940       -0.12144105884996
H            6.28141463239946        2.76846249460349        0.57760432773752
H            6.51286786138222        1.98269267166677       -0.98358385207693
H            5.72800959129176        3.57402306265959       -0.90482515616795
H           -2.17715647938718        0.61463966874843        2.26136053658923
H           -0.61126388789073        1.12629257518184        1.59761750741385
H           -0.77698189448486       -0.46461081305415        2.35755198197408

          :  Hamiltonian                  GFN1-xTB          :
         :: total energy             -83.583478440690 Eh    ::
         :: gradient norm              0.000976952930 Eh/a0 ::
         :: HOMO-LUMO gap              0.038819162063 eV    ::
         :: SCC energy               -84.306074958166 Eh    ::
         :: -> Gsolv                  -0.261963284613 Eh    ::
         :: repulsion energy           0.749554139246 Eh    ::

    * Orbital Energies and Occupations

         #    Occupation            Energy/Eh            Energy/eV
      -------------------------------------------------------------
         1        2.0000           -0.7981927             -21.7199
       ...           ...                  ...                  ...
        56        2.0000           -0.4346411             -11.8272
        57        2.0000           -0.4296904             -11.6925
        58        2.0000           -0.4271644             -11.6237
        59        2.0000           -0.4060049             -11.0480
        60        2.0000           -0.4023483             -10.9485
        61        2.0000           -0.4000364             -10.8855
        62        2.0000           -0.3986980             -10.8491
        63        2.0000           -0.3950885             -10.7509
        64        2.0000           -0.3910532             -10.6411
        65        2.0000           -0.3836745             -10.4403
        66        2.0000           -0.3555981              -9.6763
        67        2.0000           -0.3505656              -9.5394
        68        1.3587           -0.2667361              -7.2583 (HOMO)
        69        0.6413           -0.2653095              -7.2194 (LUMO)
        70                         -0.2225080              -6.0548
        71                         -0.2079505              -5.6586
        72                         -0.1542182              -4.1965
        73                         -0.1381567              -3.7594
        74                         -0.1237575              -3.3676
        75                         -0.1099426              -2.9917
        76                         -0.1066725              -2.9027
        77                         -0.0956390              -2.6025
        78                         -0.0907774              -2.4702
        79                         -0.0803949              -2.1877
       ...                                ...                  ...
       134                          0.7074340              19.2503
      -------------------------------------------------------------
                  HL-Gap            0.0014266 Eh            0.0388 eV

Wiberg/Mayer (AO) data.
largest (>0.10) Wiberg bond orders for each atom

     #   Z sym  total        # sym  WBO       # sym  WBO       # sym  WBO
 ---------------------------------------------------------------------------
     1   6 C    3.917 --    28 H    0.987    27 H    0.980    26 H    0.980
                             2 O    0.949
     2   8 O    2.054 --     1 C    0.949     3 C    0.919
     3   6 C    3.753 --     4 O    1.439     5 C    1.298     2 O    0.919
     4   8 O    1.683 --     3 C    1.439
     5   6 C    3.738 --     3 C    1.298     6 C    1.239    24 N    0.958
     6   6 C    3.738 --     8 C    1.289     5 C    1.239     7 O    1.003
     7   8 O    1.958 --     6 C    1.003    29 H    0.844
     8   6 C    3.818 --     9 O    1.368     6 C    1.289    10 N    1.050
     9   8 O    1.621 --     8 C    1.368
    10   7 N    2.990 --    11 C    1.618     8 C    1.050    24 N    0.116
    11   6 C    3.918 --    10 N    1.618    24 N    1.153    12 C    0.969
    12   6 C    3.950 --    13 C    0.986    14 C    0.983    11 C    0.969
                            15 N    0.948
    13   6 C    3.993 --    30 H    0.987    12 C    0.986    31 H    0.980
                            32 H    0.979
    14   6 C    3.992 --    35 H    0.987    34 H    0.984    33 H    0.984
                            12 C    0.983
    15   7 N    3.142 --    16 C    1.066    12 C    0.948    36 H    0.919
                            17 O    0.103
    16   6 C    3.744 --    17 O    1.440    18 C    1.167    15 N    1.066
    17   8 O    1.678 --    16 C    1.440    15 N    0.103
    18   6 C    3.691 --    19 N    1.379    16 C    1.167    23 O    0.972
    19   7 N    2.735 --    18 C    1.379    20 N    1.184
    20   7 N    2.980 --    21 C    1.630    19 N    1.184
    21   6 C    3.818 --    20 N    1.630    23 O    1.047    22 C    1.023
    22   6 C    3.994 --    21 C    1.023    39 H    0.986    38 H    0.972
                            37 H    0.971
    23   8 O    2.176 --    21 C    1.047    18 C    0.972
    24   7 N    3.276 --    11 C    1.153     5 C    0.958    25 C    0.941
                            10 N    0.116
    25   6 C    3.956 --    41 H    0.983    40 H    0.983    42 H    0.980
                            24 N    0.941
    26   1 H    1.020 --     1 C    0.980
    27   1 H    1.021 --     1 C    0.980
    28   1 H    1.019 --     1 C    0.987
    29   1 H    0.899 --     7 O    0.844
    30   1 H    1.012 --    13 C    0.987
    31   1 H    1.024 --    13 C    0.980
    32   1 H    1.012 --    13 C    0.979
    33   1 H    1.026 --    14 C    0.984
    34   1 H    1.013 --    14 C    0.984
    35   1 H    1.009 --    14 C    0.987
    36   1 H    0.986 --    15 N    0.919
    37   1 H    1.001 --    22 C    0.971
    38   1 H    1.001 --    22 C    0.972
    39   1 H    1.004 --    22 C    0.986
    40   1 H    1.016 --    25 C    0.983
    41   1 H    1.032 --    25 C    0.983
    42   1 H    1.018 --    25 C    0.980
 ---------------------------------------------------------------------------

           -------------------------------------------------
          | TOTAL ENERGY              -83.583478440690 Eh   |
          | GRADIENT NORM               0.000976952930 Eh/α |
          | HOMO-LUMO GAP               0.038819162063 eV   |
           -------------------------------------------------

 * finished run on 2023/06/20 at 17:41:18.441
