   * xtb version 6.5.1 (579679a) compiled by 'ehlert@majestix' on 2022-07-11
          program call               : /lustre/hpc/kemi/ree/PhD/git/ReactivityQM/dep/xtb-6.5.1/bin/xtb --gfn 1 /lustre/hpc/kemi/ree/PhD/git/ReactivityQM/calculations/R01/reac02prodN01/conf19/R01_reac02prodN01_conf19_gfn1.xyz --opt --vfukui --chrg 1 --uhf 0 --alpb DMSO

   ID    Z sym.   atoms
    1    6 C      1, 3, 5, 6, 8-11, 14, 16
    2    8 O      2, 4, 15, 17
    3    7 N      7, 12, 13
    4    1 H      18-33

      * Solvation model:               ALPB
        Solvent                        DMSO
        Solvent mass                       7.8130E+01 g/mol
          :  Hamiltonian                  GFN1-xTB          :
 * total energy  :   -57.8139393 Eh     change       -0.1119815E-10 Eh
 * total energy  :   -57.8382872 Eh     change       -0.2434793E-01 Eh
 * total energy  :   -57.8452545 Eh     change       -0.6967339E-02 Eh
 * total energy  :   -57.8466868 Eh     change       -0.1432217E-02 Eh
 * total energy  :   -57.8471877 Eh     change       -0.5009703E-03 Eh
 * total energy  :   -57.8473050 Eh     change       -0.1172747E-03 Eh
 * total energy  :   -57.8474067 Eh     change       -0.1016816E-03 Eh
 * total energy  :   -57.8474752 Eh     change       -0.6850864E-04 Eh
 * total energy  :   -57.8475226 Eh     change       -0.4743238E-04 Eh
 * total energy  :   -57.8475541 Eh     change       -0.3149992E-04 Eh
 * total energy  :   -57.8476393 Eh     change       -0.9678433E-05 Eh
 * total energy  :   -57.8476482 Eh     change       -0.8939891E-05 Eh
 * total energy  :   -57.8476614 Eh     change       -0.1316160E-04 Eh
 * total energy  :   -57.8476761 Eh     change       -0.1473733E-04 Eh
 * total energy  :   -57.8476960 Eh     change       -0.1988567E-04 Eh
 * total energy  :   -57.8477152 Eh     change       -0.1924000E-04 Eh
 * total energy  :   -57.8477439 Eh     change       -0.2864660E-04 Eh
 * total energy  :   -57.8477492 Eh     change       -0.5302532E-05 Eh
 * total energy  :   -57.8477534 Eh     change       -0.4262239E-05 Eh
   *** GEOMETRY OPTIMIZATION CONVERGED AFTER 23 ITERATIONS ***

 final structure:
================
33
 xtb: 6.5.1 (579679a)
C           -4.71338584030682       -0.80162461529207       -0.43983439276802
O           -3.40445996605205       -0.50089769703176       -0.95671066568580
C           -2.40121363319740       -0.39032210471606       -0.15809869917026
O           -2.64615231185747       -0.55961561585789        1.09625027147396
C           -1.71542616522126       -0.46145323766777        2.18828957659131
C           -1.11129459165175       -0.08553818493578       -0.73779056294554
N           -0.04652431374942       -0.07062090328313        0.12924517309931
C            1.14529402055986        0.19702895072176       -0.28888799332004
C            2.28825029501464        0.22523799210953        0.70108227246915
C            2.60055799337561        1.69144121761536        1.03594886427485
C            3.53021689747140       -0.48220804849144        0.13471564605120
N            1.82453233141938       -0.43594061605967        1.91375755690478
N            1.39465287251241        0.49580852691074       -1.59991436412856
C            0.42767458273255        0.50516771545453       -2.56908238901591
O            0.64421131829415        0.75906874684270       -3.73874139557030
C           -0.92164180657902        0.18068083550608       -2.07877137134540
O           -1.88145250019814        0.18060135367912       -2.98251471522472
H           -5.37039862757761       -0.85040852436226       -1.30497781659741
H           -5.02392285544656       -0.01155433145081        0.24439683490260
H           -4.68518026289749       -1.75662713475570        0.08558154806571
H           -0.94409770797410       -1.22432748607375        2.09288433717088
H           -2.31137955349111       -0.62026824124785        3.08596883302763
H           -1.25102517198547        0.52405531161045        2.19811975698969
H            2.86111002314642        2.24077128713785        0.13317370517524
H            3.43803265206999        1.73358456211578        1.73040871492842
H            1.73047584511735        2.15414521238128        1.50013578445449
H            3.27388912207745       -1.48816192652841       -0.19277806100453
H            3.94639053483609        0.07234595348878       -0.70468017740023
H            4.28778281502322       -0.54837258185644        0.91366000604770
H            2.54537868111413       -0.37416310985603        2.62083177900108
H            1.66788831125297       -1.41586049713468        1.71569305673346
H            2.33307571298211        0.71248980739024       -1.90648219534514
H           -1.51186270081420        0.40553538364090       -3.86087591784101

          :  Hamiltonian                  GFN1-xTB          :
         :: total energy             -57.847753443271 Eh    ::
         :: gradient norm              0.000534811192 Eh/a0 ::
         :: HOMO-LUMO gap              1.192663588130 eV    ::
         :: SCC energy               -58.423495620075 Eh    ::
         :: -> Gsolv                  -0.090423837820 Eh    ::
         :: repulsion energy           0.594613003299 Eh    ::

    * Orbital Energies and Occupations

         #    Occupation            Energy/Eh            Energy/eV
      -------------------------------------------------------------
         1        2.0000           -0.9118427             -24.8125
       ...           ...                  ...                  ...
        35        2.0000           -0.5482714             -14.9192
        36        2.0000           -0.5467991             -14.8792
        37        2.0000           -0.5377938             -14.6341
        38        2.0000           -0.5311875             -14.4543
        39        2.0000           -0.5263300             -14.3222
        40        2.0000           -0.5175190             -14.0824
        41        2.0000           -0.5129082             -13.9569
        42        2.0000           -0.5100882             -13.8802
        43        2.0000           -0.4995213             -13.5927
        44        2.0000           -0.4887674             -13.3000
        45        2.0000           -0.4752332             -12.9318
        46        2.0000           -0.4610279             -12.5452
        47        2.0000           -0.4242423             -11.5442 (HOMO)
        48                         -0.3804127             -10.3516 (LUMO)
        49                         -0.3105932              -8.4517
        50                         -0.2893187              -7.8728
        51                         -0.1955722              -5.3218
        52                         -0.1685332              -4.5860
        53                         -0.1582288              -4.3056
        54                         -0.1472866              -4.0079
        55                         -0.1326151              -3.6086
        56                         -0.1224362              -3.3317
        57                         -0.1211183              -3.2958
        58                         -0.1068727              -2.9082
       ...                                ...                  ...
       100                          0.6898725              18.7724
      -------------------------------------------------------------
                  HL-Gap            0.0438296 Eh            1.1927 eV

Wiberg/Mayer (AO) data.
largest (>0.10) Wiberg bond orders for each atom

     #   Z sym  total        # sym  WBO       # sym  WBO       # sym  WBO
 ---------------------------------------------------------------------------
     1   6 C    3.825 --    18 H    0.982    20 H    0.973    19 H    0.973
                             2 O    0.855
     2   8 O    2.309 --     3 C    1.260     1 C    0.855
     3   6 C    3.815 --     2 O    1.260     4 O    1.252     6 C    1.117
     4   8 O    2.305 --     3 C    1.252     5 C    0.847
     5   6 C    3.813 --    22 H    0.980    23 H    0.972    21 H    0.969
                             4 O    0.847
     6   6 C    3.958 --    16 C    1.425     7 N    1.160     3 C    1.117
     7   7 N    3.036 --     8 C    1.577     6 C    1.160
     8   6 C    3.907 --     7 N    1.577    13 N    1.161     9 C    0.982
     9   6 C    3.965 --    12 N    0.993     8 C    0.982    11 C    0.980
                            10 C    0.974
    10   6 C    3.991 --    24 H    0.986    26 H    0.985    25 H    0.981
                             9 C    0.974
    11   6 C    3.991 --    27 H    0.985    29 H    0.981    28 H    0.980
                             9 C    0.980
    12   7 N    2.956 --     9 C    0.993    31 H    0.942    30 H    0.938
    13   7 N    3.477 --     8 C    1.161    14 C    1.155    32 H    0.873
                            15 O    0.143
    14   6 C    3.915 --    15 O    1.605    13 N    1.155    16 C    1.032
    15   8 O    1.931 --    14 C    1.605    13 N    0.143
    16   6 C    3.912 --     6 C    1.425    17 O    1.170    14 C    1.032
    17   8 O    2.142 --    16 C    1.170    33 H    0.784
    18   1 H    1.002 --     1 C    0.982
    19   1 H    0.998 --     1 C    0.973
    20   1 H    0.998 --     1 C    0.973
    21   1 H    1.020 --     5 C    0.969
    22   1 H    1.003 --     5 C    0.980
    23   1 H    1.015 --     5 C    0.972
    24   1 H    1.000 --    10 C    0.986
    25   1 H    0.997 --    10 C    0.981
    26   1 H    1.004 --    10 C    0.985
    27   1 H    1.000 --    11 C    0.985
    28   1 H    0.998 --    11 C    0.980
    29   1 H    1.000 --    11 C    0.981
    30   1 H    0.952 --    12 N    0.938
    31   1 H    0.960 --    12 N    0.942
    32   1 H    0.920 --    13 N    0.873
    33   1 H    0.824 --    17 O    0.784
 ---------------------------------------------------------------------------

           -------------------------------------------------
          | TOTAL ENERGY              -57.847753443271 Eh   |
          | GRADIENT NORM               0.000534811192 Eh/α |
          | HOMO-LUMO GAP               1.192663588130 eV   |
           -------------------------------------------------

 * finished run on 2023/06/20 at 15:03:33.102
