   * xtb version 6.5.1 (579679a) compiled by 'ehlert@majestix' on 2022-07-11
          program call               : /lustre/hpc/kemi/ree/PhD/git/ReactivityQM/dep/xtb-6.5.1/bin/xtb --gfn 1 /lustre/hpc/kemi/ree/PhD/git/ReactivityQM/calculations/R03/reac02prodN05/conf04/R03_reac02prodN05_conf04_gfn1.xyz --opt --vfukui --chrg 1 --uhf 0 --alpb DMSO

   ID    Z sym.   atoms
    1    6 C      1, 3, 5, 6, 8, 11-15, 17, 19, 22, 23, 26
    2    8 O      2, 4, 7, 9, 18, 24
    3    7 N      10, 16, 20, 21, 25
    4    1 H      27-46

      * Solvation model:               ALPB
        Solvent                        DMSO
        Solvent mass                       7.8130E+01 g/mol
          :  Hamiltonian                  GFN1-xTB          :
 * total energy  :   -86.3079361 Eh     change       -0.4150991E-10 Eh
 * total energy  :   -86.3277742 Eh     change       -0.1983809E-01 Eh
 * total energy  :   -86.3351513 Eh     change       -0.7377043E-02 Eh
 * total energy  :   -86.3366317 Eh     change       -0.1480465E-02 Eh
 * total energy  :   -86.3375511 Eh     change       -0.9194040E-03 Eh
 * total energy  :   -86.3379986 Eh     change       -0.4474760E-03 Eh
 * total energy  :   -86.3383126 Eh     change       -0.3139878E-03 Eh
 * total energy  :   -86.3385416 Eh     change       -0.2290255E-03 Eh
 * total energy  :   -86.3387568 Eh     change       -0.2151652E-03 Eh
 * total energy  :   -86.3389696 Eh     change       -0.2128072E-03 Eh
 * total energy  :   -86.3398748 Eh     change       -0.2126865E-04 Eh
 * total energy  :   -86.3398944 Eh     change       -0.1961215E-04 Eh
 * total energy  :   -86.3399095 Eh     change       -0.1510151E-04 Eh
 * total energy  :   -86.3399302 Eh     change       -0.2076179E-04 Eh
 * total energy  :   -86.3399436 Eh     change       -0.1340150E-04 Eh
 * total energy  :   -86.3399658 Eh     change       -0.2214410E-04 Eh
 * total energy  :   -86.3399809 Eh     change       -0.1513592E-04 Eh
 * total energy  :   -86.3399913 Eh     change       -0.1039191E-04 Eh
 * total energy  :   -86.3399960 Eh     change       -0.4717824E-05 Eh
   *** GEOMETRY OPTIMIZATION CONVERGED AFTER 31 ITERATIONS ***

 final structure:
================
46
 xtb: 6.5.1 (579679a)
C           -5.44964168675589        1.54268191087874       -1.55110220710819
O           -4.29555223406074        0.99319908177715       -0.88399652706090
C           -4.16020089420750       -0.31368688139842       -0.92135787095795
O           -4.94780483910515       -1.05290711428655       -1.47502362378135
C           -2.90681905546420       -0.85553218013711       -0.31340357725381
C           -2.51345916536333       -2.12039181892711       -0.66141473887788
O           -3.20708817851306       -2.94706758719172       -1.41359120277294
C           -1.23736650137319       -2.65290604041144       -0.17779968587392
O           -0.86150592388145       -3.78984121918459       -0.32340912288084
N           -0.42839349301830       -1.70310814948615        0.48563403607091
C            0.82568976378499       -2.30917304578788        0.96816112698225
C           -0.79522225431810       -0.43110501783709        0.72857558062219
C            0.25870736509264        0.60250287024862        1.15706284107687
C           -0.04272085476485        2.02327320582177        0.64382607775593
C            0.45852404210051        0.61144044262735        2.68122146056112
N            1.47778553879983        0.19728288460853        0.45115104498558
C            2.72115704701891        0.67217389916142        0.76628024355096
O            3.01480555732657        1.27540583028237        1.77439963830373
C            3.67793808249789        0.29588644364253       -0.29785664555335
N            3.39267480436524       -0.38674440831854       -1.36772343863200
N            4.54636783489024       -0.50337060013834       -2.07666979352689
C            5.46516046513662        0.11735407507173       -1.39587568354954
C            6.89239369641869        0.28310884932091       -1.74559140418286
O            4.97566146961577        0.64022842457684       -0.26261602474712
N           -2.05987326026787       -0.07717998200201        0.48194268692234
C           -2.69346911857786        1.03494159292150        1.21081214833299
H           -5.41535451028982        1.28095325924591       -2.60999913847771
H           -5.39079151354902        2.61958170071064       -1.41497992748045
H           -6.35779435528810        1.14137448535088       -1.09860276092243
H           -4.06779258833542       -2.53823900721359       -1.68689037901731
H            1.24465935610523       -1.72564484354740        1.77566463964573
H            0.57757208310533       -3.30727890204559        1.32994148422435
H            1.53154080002568       -2.38857647371318        0.14298497361243
H            0.90242409799349        2.56410675741161        0.60708068111614
H           -0.70323644077658        2.56931906597906        1.30988592343730
H           -0.46595904965761        1.99351577964044       -0.35766454832118
H           -0.50440235275696        0.53736146384759        3.18174019901110
H            1.08416370481269       -0.21716642307734        3.00457164553236
H            0.93831691929979        1.54193768455971        2.97850052780686
H            1.34894760840239       -0.07062448207212       -0.51491646784592
H            7.51785476493545       -0.20281014649570       -0.99628486753115
H            7.08389964382928       -0.15756384379058       -2.72114043849171
H            7.14797985996694        1.34251945125970       -1.76287239692374
H           -3.70434251128824        0.72362510742361        1.46249052888643
H           -2.72887272893260        1.93005915423888        0.59657444299702
H           -2.14655899497408        1.21708374645231        2.12886154033650

          :  Hamiltonian                  GFN1-xTB          :
         :: total energy             -86.339996021737 Eh    ::
         :: gradient norm              0.000521459055 Eh/a0 ::
         :: HOMO-LUMO gap              2.521918562347 eV    ::
         :: SCC energy               -87.169950122297 Eh    ::
         :: -> Gsolv                  -0.111420979277 Eh    ::
         :: repulsion energy           0.860657101575 Eh    ::

    * Orbital Energies and Occupations

         #    Occupation            Energy/Eh            Energy/eV
      -------------------------------------------------------------
         1        2.0000           -0.8903499             -24.2277
       ...           ...                  ...                  ...
        58        2.0000           -0.5322885             -14.4843
        59        2.0000           -0.5283348             -14.3767
        60        2.0000           -0.5258302             -14.3086
        61        2.0000           -0.5223522             -14.2139
        62        2.0000           -0.5174955             -14.0818
        63        2.0000           -0.5166763             -14.0595
        64        2.0000           -0.4983109             -13.5597
        65        2.0000           -0.4943673             -13.4524
        66        2.0000           -0.4833933             -13.1538
        67        2.0000           -0.4781302             -13.0106
        68        2.0000           -0.4757598             -12.9461
        69        2.0000           -0.4641238             -12.6295
        70        2.0000           -0.4620904             -12.5741 (HOMO)
        71                         -0.3694116             -10.0522 (LUMO)
        72                         -0.3632470              -9.8845
        73                         -0.3275240              -8.9124
        74                         -0.2851705              -7.7599
        75                         -0.2662183              -7.2442
        76                         -0.2199260              -5.9845
        77                         -0.2146647              -5.8413
        78                         -0.1672486              -4.5511
        79                         -0.1586104              -4.3160
        80                         -0.1513165              -4.1175
        81                         -0.1506558              -4.0996
       ...                                ...                  ...
       144                          0.7239939              19.7009
      -------------------------------------------------------------
                  HL-Gap            0.0926788 Eh            2.5219 eV

Wiberg/Mayer (AO) data.
largest (>0.10) Wiberg bond orders for each atom

     #   Z sym  total        # sym  WBO       # sym  WBO       # sym  WBO
 ---------------------------------------------------------------------------
     1   6 C    3.837 --    28 H    0.984    27 H    0.977    29 H    0.977
                             2 O    0.863
     2   8 O    2.237 --     3 C    1.159     1 C    0.863     4 O    0.135
     3   6 C    3.865 --     4 O    1.620     2 O    1.159     5 C    1.005
     4   8 O    1.977 --     3 C    1.620     2 O    0.135
     5   6 C    3.919 --     6 C    1.499    25 N    1.073     3 C    1.005
                             7 O    0.108
     6   6 C    3.929 --     5 C    1.499     7 O    1.179     8 C    1.036
     7   8 O    2.134 --     6 C    1.179    30 H    0.743     5 C    0.108
     8   6 C    3.902 --     9 O    1.676    10 N    1.047     6 C    1.036
     9   8 O    1.978 --     8 C    1.676    10 N    0.117
    10   7 N    3.531 --    12 C    1.303     8 C    1.047    11 C    0.906
                             9 O    0.117
    11   6 C    3.890 --    31 H    0.977    33 H    0.971    32 H    0.966
                            10 N    0.906
    12   6 C    3.897 --    25 N    1.363    10 N    1.303    13 C    0.970
    13   6 C    3.926 --    14 C    0.980    15 C    0.975    12 C    0.970
                            16 N    0.937
    14   6 C    3.982 --    36 H    0.983    13 C    0.980    35 H    0.979
                            34 H    0.976
    15   6 C    3.979 --    37 H    0.979    13 C    0.975    39 H    0.974
                            38 H    0.973
    16   7 N    3.291 --    17 C    1.185    13 C    0.937    40 H    0.892
                            18 O    0.162
    17   6 C    3.908 --    18 O    1.635    16 N    1.185    19 C    0.997
    18   8 O    1.943 --    17 C    1.635    16 N    0.162
    19   6 C    3.880 --    20 N    1.598    24 O    1.068    17 C    0.997
    20   7 N    3.025 --    19 C    1.598    21 N    1.210
    21   7 N    2.982 --    22 C    1.593    20 N    1.210
    22   6 C    3.867 --    21 N    1.593    24 O    1.085    23 C    1.033
    23   6 C    3.984 --    22 C    1.033    42 H    0.982    43 H    0.963
                            41 H    0.960
    24   8 O    2.337 --    22 C    1.085    19 C    1.068
    25   7 N    3.552 --    12 C    1.363     5 C    1.073    26 C    0.900
    26   6 C    3.890 --    46 H    0.977    44 H    0.972    45 H    0.969
                            25 N    0.900
    27   1 H    1.001 --     1 C    0.977
    28   1 H    1.005 --     1 C    0.984
    29   1 H    1.001 --     1 C    0.977
    30   1 H    0.828 --     7 O    0.743
    31   1 H    1.006 --    11 C    0.977
    32   1 H    0.999 --    11 C    0.966
    33   1 H    1.002 --    11 C    0.971
    34   1 H    0.996 --    14 C    0.976
    35   1 H    0.998 --    14 C    0.979
    36   1 H    0.995 --    14 C    0.983
    37   1 H    0.999 --    15 C    0.979
    38   1 H    1.001 --    15 C    0.973
    39   1 H    1.007 --    15 C    0.974
    40   1 H    0.950 --    16 N    0.892
    41   1 H    0.995 --    23 C    0.960
    42   1 H    0.997 --    23 C    0.982
    43   1 H    0.995 --    23 C    0.963
    44   1 H    0.996 --    26 C    0.972
    45   1 H    1.005 --    26 C    0.969
    46   1 H    1.000 --    26 C    0.977
 ---------------------------------------------------------------------------

           -------------------------------------------------
          | TOTAL ENERGY              -86.339996021737 Eh   |
          | GRADIENT NORM               0.000521459055 Eh/α |
          | HOMO-LUMO GAP               2.521918562347 eV   |
           -------------------------------------------------

 * finished run on 2023/06/20 at 15:40:24.210
