   * xtb version 6.5.1 (579679a) compiled by 'ehlert@majestix' on 2022-07-11
          program call               : /lustre/hpc/kemi/ree/PhD/git/ReactivityQM/dep/xtb-6.5.1/bin/xtb --gfn 1 /lustre/hpc/kemi/ree/PhD/git/ReactivityQM/calculations/R02methylcation/reac01prodN04/conf11/R02methylcation_reac01prodN04_conf11_gfn1.xyz --opt --vfukui --chrg 0 --uhf 0 --alpb DMSO

   ID    Z sym.   atoms
    1    6 C      1, 3, 5, 6, 8-11, 13, 15, 18, 19, 22, 24
    2    8 O      2, 4, 14, 20, 23, 25
    3    7 N      7, 12, 16, 17, 21
    4    1 H      26-42

      * Solvation model:               ALPB
        Solvent                        DMSO
        Solvent mass                       7.8130E+01 g/mol
          :  Hamiltonian                  GFN1-xTB          :
 * total energy  :   -82.9673532 Eh     change       -0.7901235E-11 Eh
 * total energy  :   -82.9846989 Eh     change       -0.1734572E-01 Eh
 * total energy  :   -82.9911016 Eh     change       -0.6402728E-02 Eh
 * total energy  :   -82.9927153 Eh     change       -0.1613645E-02 Eh
 * total energy  :   -82.9933894 Eh     change       -0.6741561E-03 Eh
 * total energy  :   -82.9936609 Eh     change       -0.2714884E-03 Eh
 * total energy  :   -82.9938806 Eh     change       -0.2196821E-03 Eh
 * total energy  :   -82.9940733 Eh     change       -0.1927525E-03 Eh
 * total energy  :   -82.9942698 Eh     change       -0.1964113E-03 Eh
 * total energy  :   -82.9944524 Eh     change       -0.1826598E-03 Eh
 * total energy  :   -82.9965592 Eh     change       -0.8804743E-05 Eh
 * total energy  :   -82.9965673 Eh     change       -0.8050277E-05 Eh
 * total energy  :   -82.9965749 Eh     change       -0.7623729E-05 Eh
 * total energy  :   -82.9965830 Eh     change       -0.8139903E-05 Eh
 * total energy  :   -82.9965917 Eh     change       -0.8609917E-05 Eh
 * total energy  :   -82.9965995 Eh     change       -0.7837661E-05 Eh
 * total energy  :   -82.9966058 Eh     change       -0.6326932E-05 Eh
 * total energy  :   -82.9966111 Eh     change       -0.5307699E-05 Eh
 * total energy  :   -82.9966161 Eh     change       -0.4989334E-05 Eh
   *** GEOMETRY OPTIMIZATION CONVERGED AFTER 60 ITERATIONS ***

 final structure:
================
42
 xtb: 6.5.1 (579679a)
C           -3.58450754253659        0.66722609788746        1.94978716243869
O           -4.02449677641429        1.53464745459660        0.90652592723021
C           -3.48831616476099        1.61668747606809       -0.29979283662069
O           -4.13288195176151        2.43579820150596       -1.10503345413070
C           -5.30788314540243        3.10123625635538       -0.63871969029966
C           -2.36512369453078        0.93785303248073       -0.78105716428534
N           -1.67258058311709        0.12670971216533        0.11578988662409
C           -0.65607652408124       -0.54440966736643       -0.27303399075441
C            0.08110758140226       -1.46466922940573        0.67827856534099
C           -0.09849761231264       -1.01347584399658        2.12990699041195
C           -0.44076398707558       -2.89164944095525        0.48040185883088
N            1.50400400105957       -1.45985683293976        0.33299308443185
C            2.22558663807800       -0.31425239886422        0.31559189882833
O            1.75476112713608        0.80386693059894        0.41526294483749
C            3.66982930028985       -0.59501950448384        0.12257991744472
N            4.21670262064110       -1.77088644199085        0.03621460443419
N            5.55303449374636       -1.57147088144990       -0.13063744415282
C            5.73779586452618       -0.28536911818308       -0.13448127622541
C            7.01840302618085        0.43981465227128       -0.28597740479355
O            4.58684916484972        0.38471136577486        0.02180355687176
N           -0.21575537649637       -0.54539233672564       -1.57605006212099
C           -0.76640195876825        0.20971174190330       -2.57444107779320
O           -0.32788029498869        0.16631439065614       -3.70995876842089
C           -1.94772325672941        1.07354164896019       -2.15785445958424
O           -2.47640030456997        1.79885148565109       -2.99326986617125
H           -4.31268797929887        0.78088436324927        2.75317765316756
H           -3.56273073885665       -0.36844811491192        1.60784091294313
H           -2.59270862068254        0.95837953450324        2.29926415527335
H           -5.06789707680038        3.74854678560201        0.20726160275209
H           -5.67207349724098        3.69378117929348       -1.47621689306640
H           -6.06114014469853        2.37144425952203       -0.33581340757759
H            0.49460545361672       -1.64538937461636        2.78795902621553
H           -1.14681021373032       -1.09666287526399        2.40838011226604
H            0.21796344539217        0.02261986870867        2.24361785424675
H           -1.50585058068210       -2.92412488987169        0.70345993616678
H           -0.28450850639429       -3.20982497731902       -0.54900540458242
H            0.08061886642421       -3.57525220706677        1.14770011613381
H            1.99610916501376       -2.33890624692977        0.34969156382219
H            7.21180298135758        1.04437588289154        0.60008170396157
H            6.96998697393784        1.10742128205353       -1.14615244842718
H            7.82698883328471       -0.27404741452054       -0.42265504138739
H            0.56554999498953       -1.13531880585013       -1.81933634428242

          :  Hamiltonian                  GFN1-xTB          :
         :: total energy             -82.996616117356 Eh    ::
         :: gradient norm              0.000258707572 Eh/a0 ::
         :: HOMO-LUMO gap              2.367828361027 eV    ::
         :: SCC energy               -83.776212268812 Eh    ::
         :: -> Gsolv                  -0.065979585247 Eh    ::
         :: repulsion energy           0.805934649902 Eh    ::

    * Orbital Energies and Occupations

         #    Occupation            Energy/Eh            Energy/eV
      -------------------------------------------------------------
         1        2.0000           -0.8640929             -23.5132
       ...           ...                  ...                  ...
        55        2.0000           -0.5063257             -13.7778
        56        2.0000           -0.5060775             -13.7711
        57        2.0000           -0.4999333             -13.6039
        58        2.0000           -0.4933130             -13.4237
        59        2.0000           -0.4834088             -13.1542
        60        2.0000           -0.4759685             -12.9518
        61        2.0000           -0.4681718             -12.7396
        62        2.0000           -0.4624982             -12.5852
        63        2.0000           -0.4537885             -12.3482
        64        2.0000           -0.4527234             -12.3192
        65        2.0000           -0.4452083             -12.1147
        66        2.0000           -0.4185086             -11.3882
        67        2.0000           -0.4121407             -11.2149 (HOMO)
        68                         -0.3251246              -8.8471 (LUMO)
        69                         -0.3123590              -8.4997
        70                         -0.2708131              -7.3692
        71                         -0.2571794              -6.9982
        72                         -0.2456635              -6.6848
        73                         -0.1999126              -5.4399
        74                         -0.1540196              -4.1911
        75                         -0.1515904              -4.1250
        76                         -0.1426535              -3.8818
        77                         -0.1422276              -3.8702
        78                         -0.1335126              -3.6331
       ...                                ...                  ...
       134                          0.7557690              20.5655
      -------------------------------------------------------------
                  HL-Gap            0.0870161 Eh            2.3678 eV

Wiberg/Mayer (AO) data.
largest (>0.10) Wiberg bond orders for each atom

     #   Z sym  total        # sym  WBO       # sym  WBO       # sym  WBO
 ---------------------------------------------------------------------------
     1   6 C    3.854 --    26 H    0.981    27 H    0.977    28 H    0.976
                             2 O    0.883
     2   8 O    2.221 --     3 C    1.129     1 C    0.883
     3   6 C    3.833 --     6 C    1.338     4 O    1.151     2 O    1.129
     4   8 O    2.237 --     3 C    1.151     5 C    0.889
     5   6 C    3.863 --    30 H    0.984    31 H    0.978    29 H    0.978
                             4 O    0.889
     6   6 C    3.923 --     3 C    1.338    24 C    1.163     7 N    1.106
     7   7 N    3.043 --     8 C    1.653     6 C    1.106
     8   6 C    3.932 --     7 N    1.653    21 N    1.108     9 C    0.976
     9   6 C    3.937 --    10 C    0.990    11 C    0.984     8 C    0.976
                            12 N    0.926
    10   6 C    3.990 --     9 C    0.990    32 H    0.985    33 H    0.983
                            34 H    0.981
    11   6 C    3.988 --    36 H    0.984     9 C    0.984    35 H    0.984
                            37 H    0.982
    12   7 N    3.333 --    13 C    1.237     9 C    0.926    38 H    0.892
                            14 O    0.174
    13   6 C    3.916 --    14 O    1.602    12 N    1.237    15 C    0.992
    14   8 O    1.902 --    13 C    1.602    12 N    0.174
    15   6 C    3.876 --    16 N    1.609    20 O    1.063    13 C    0.992
    16   7 N    3.016 --    15 C    1.609    17 N    1.203
    17   7 N    2.981 --    18 C    1.603    16 N    1.203
    18   6 C    3.871 --    17 N    1.603    20 O    1.084    19 C    1.031
    19   6 C    3.986 --    18 C    1.031    41 H    0.983    40 H    0.964
                            39 H    0.963
    20   8 O    2.330 --    18 C    1.084    15 C    1.063
    21   7 N    3.441 --    22 C    1.165     8 C    1.108    42 H    0.886
                            23 O    0.138
    22   6 C    3.884 --    23 O    1.631    21 N    1.165    24 C    0.940
    23   8 O    1.910 --    22 C    1.631    21 N    0.138
    24   6 C    3.920 --    25 O    1.631     6 C    1.163    22 C    0.940
    25   8 O    1.917 --    24 C    1.631
    26   1 H    1.008 --     1 C    0.981
    27   1 H    1.019 --     1 C    0.977
    28   1 H    1.020 --     1 C    0.976
    29   1 H    1.005 --     5 C    0.978
    30   1 H    1.009 --     5 C    0.984
    31   1 H    1.005 --     5 C    0.978
    32   1 H    1.001 --    10 C    0.985
    33   1 H    1.007 --    10 C    0.983
    34   1 H    1.009 --    10 C    0.981
    35   1 H    1.001 --    11 C    0.984
    36   1 H    0.999 --    11 C    0.984
    37   1 H    0.996 --    11 C    0.982
    38   1 H    0.945 --    12 N    0.892
    39   1 H    0.997 --    19 C    0.963
    40   1 H    0.997 --    19 C    0.964
    41   1 H    0.998 --    19 C    0.983
    42   1 H    0.938 --    21 N    0.886
 ---------------------------------------------------------------------------

           -------------------------------------------------
          | TOTAL ENERGY              -82.996616117356 Eh   |
          | GRADIENT NORM               0.000258707572 Eh/α |
          | HOMO-LUMO GAP               2.367828361027 eV   |
           -------------------------------------------------

 * finished run on 2023/06/21 at 17:33:58.924
