                         Program Version 5.0.1 -  RELEASE  -
|  1> # ORCA input file
|  2> ! SP r2SCAN-3c CPCM
|  3>
|  4> %maxcore 1875.0
|  5> %pal nprocs 4 end
|  6> %cpcm smd true SMDsolvent "DMSO" end
|  7>
|  8> *xyz 0 1
|  9> C      -6.531446    0.184846   -0.192762
| 10> O      -5.177203    0.606434    0.011509
| 11> C      -4.255386   -0.337818    0.048779
| 12> O      -4.479530   -1.515751   -0.082655
| 13> C      -2.857334    0.204848    0.272642
| 14> C      -2.565527    1.637633    0.494153
| 15> O      -3.371423    2.531674    0.639776
| 16> C      -1.100934    1.938028    0.510865
| 17> O      -0.781986    3.228931    0.561350
| 18> N      -0.190170    1.048299    0.475875
| 19> C      -0.547077   -0.343358    0.449054
| 20> C      -0.185143   -0.924884    1.829377
| 21> C       0.277957   -1.013286   -0.697550
| 22> C       0.113761   -2.533259   -0.675026
| 23> C      -0.169844   -0.435559   -2.045104
| 24> N       1.666534   -0.631724   -0.445212
| 25> C       2.713562   -1.102706   -1.150869
| 26> O       2.665950   -1.978978   -1.998519
| 27> C       3.992645   -0.450580   -0.765228
| 28> N       5.176748   -0.683111   -1.239856
| 29> N       6.034990    0.147098   -0.582260
| 30> C       5.321936    0.836057    0.253051
| 31> C       5.785150    1.873123    1.200348
| 32> O       4.021166    0.507144    0.187987
| 33> N      -1.922373   -0.667424    0.235671
| 34> H      -6.614824   -0.357786   -1.136717
| 35> H      -7.135287    1.089075   -0.217871
| 36> H      -6.846457   -0.463295    0.627753
| 37> H      -1.590346    3.767365    0.620851
| 38> H      -0.654785   -0.314904    2.597932
| 39> H       0.893962   -0.901377    1.961579
| 40> H      -0.546803   -1.946584    1.913833
| 41> H      -0.943860   -2.779140   -0.590709
| 42> H       0.502801   -2.965674   -1.595323
| 43> H       0.650857   -2.967459    0.166105
| 44> H       0.440749   -0.854832   -2.843698
| 45> H      -1.213739   -0.687888   -2.224622
| 46> H      -0.059195    0.647499   -2.045025
| 47> H       1.798036    0.207493    0.103980
| 48> H       6.865615    1.974882    1.132420
| 49> H       5.504980    1.599568    2.217315
| 50> H       5.313270    2.827379    0.966709
| 51> **                         ****END OF INPUT****

CARTESIAN COORDINATES (ANGSTROEM)
---------------------------------
  C     -6.531446    0.184846   -0.192762
  O     -5.177203    0.606434    0.011509
  C     -4.255386   -0.337818    0.048779
  O     -4.479530   -1.515751   -0.082655
  C     -2.857334    0.204848    0.272642
  C     -2.565527    1.637633    0.494153
  O     -3.371423    2.531674    0.639776
  C     -1.100934    1.938028    0.510865
  O     -0.781986    3.228931    0.561350
  N     -0.190170    1.048299    0.475875
  C     -0.547077   -0.343358    0.449054
  C     -0.185143   -0.924884    1.829377
  C      0.277957   -1.013286   -0.697550
  C      0.113761   -2.533259   -0.675026
  C     -0.169844   -0.435559   -2.045104
  N      1.666534   -0.631724   -0.445212
  C      2.713562   -1.102706   -1.150869
  O      2.665950   -1.978978   -1.998519
  C      3.992645   -0.450580   -0.765228
  N      5.176748   -0.683111   -1.239856
  N      6.034990    0.147098   -0.582260
  C      5.321936    0.836057    0.253051
  C      5.785150    1.873123    1.200348
  O      4.021166    0.507144    0.187987
  N     -1.922373   -0.667424    0.235671
  H     -6.614824   -0.357786   -1.136717
  H     -7.135287    1.089075   -0.217871
  H     -6.846457   -0.463295    0.627753
  H     -1.590346    3.767365    0.620851
  H     -0.654785   -0.314904    2.597932
  H      0.893962   -0.901377    1.961579
  H     -0.546803   -1.946584    1.913833
  H     -0.943860   -2.779140   -0.590709
  H      0.502801   -2.965674   -1.595323
  H      0.650857   -2.967459    0.166105
  H      0.440749   -0.854832   -2.843698
  H     -1.213739   -0.687888   -2.224622
  H     -0.059195    0.647499   -2.045025
  H      1.798036    0.207493    0.103980
  H      6.865615    1.974882    1.132420
  H      5.504980    1.599568    2.217315
  H      5.313270    2.827379    0.966709

 Total Charge           Charge          ....    0
 Multiplicity           Mult            ....    1
 Number of Electrons    NEL             ....  184
 Basis Dimension        Dim             ....  615

ORBITAL ENERGIES
----------------

  NO   OCC          E(Eh)            E(eV)
   0   2.0000     -19.064791      -518.7793
   1   2.0000     -19.012309      -517.3512
   2   2.0000     -19.009840      -517.2840
   3   2.0000     -18.979984      -516.4716
   4   2.0000     -18.947301      -515.5823
   5   2.0000     -18.930738      -515.1316
   6   2.0000     -14.203742      -386.5035
   7   2.0000     -14.199530      -386.3889
   8   2.0000     -14.196574      -386.3084
   9   2.0000     -14.196465      -386.3054
  10   2.0000     -14.175066      -385.7232
  11   2.0000     -10.172577      -276.8099
  12   2.0000     -10.154865      -276.3279
  13   2.0000     -10.154426      -276.3160
  14   2.0000     -10.153523      -276.2914
  15   2.0000     -10.146483      -276.0998
  16   2.0000     -10.141574      -275.9663
  17   2.0000     -10.127759      -275.5903
  18   2.0000     -10.118933      -275.3502
  19   2.0000     -10.100474      -274.8479
  20   2.0000     -10.080934      -274.3162
  21   2.0000     -10.045087      -273.3407
  22   2.0000     -10.034949      -273.0649
  23   2.0000     -10.019002      -272.6309
  24   2.0000     -10.015176      -272.5268
  25   2.0000      -1.154177       -31.4068
  26   2.0000      -1.089833       -29.6559
  27   2.0000      -1.076443       -29.2915
  28   2.0000      -1.037693       -28.2371
  29   2.0000      -1.020059       -27.7572
  30   2.0000      -0.996999       -27.1297
  31   2.0000      -0.974682       -26.5224
  32   2.0000      -0.966277       -26.2937
  33   2.0000      -0.911769       -24.8105
  34   2.0000      -0.882190       -24.0056
  35   2.0000      -0.830735       -22.6054
  36   2.0000      -0.791526       -21.5385
  37   2.0000      -0.739887       -20.1334
  38   2.0000      -0.715333       -19.4652
  39   2.0000      -0.712608       -19.3911
  40   2.0000      -0.678283       -18.4570
  41   2.0000      -0.668251       -18.1840
  42   2.0000      -0.657172       -17.8826
  43   2.0000      -0.638020       -17.3614
  44   2.0000      -0.629241       -17.1225
  45   2.0000      -0.603424       -16.4200
  46   2.0000      -0.594016       -16.1640
  47   2.0000      -0.569447       -15.4954
  48   2.0000      -0.544368       -14.8130
  49   2.0000      -0.538470       -14.6525
  50   2.0000      -0.531228       -14.4554
  51   2.0000      -0.513117       -13.9626
  52   2.0000      -0.498493       -13.5647
  53   2.0000      -0.493780       -13.4364
  54   2.0000      -0.473676       -12.8894
  55   2.0000      -0.461859       -12.5678
  56   2.0000      -0.451702       -12.2914
  57   2.0000      -0.450190       -12.2503
  58   2.0000      -0.443856       -12.0779
  59   2.0000      -0.437103       -11.8942
  60   2.0000      -0.434688       -11.8285
  61   2.0000      -0.416711       -11.3393
  62   2.0000      -0.409902       -11.1540
  63   2.0000      -0.408364       -11.1121
  64   2.0000      -0.398980       -10.8568
  65   2.0000      -0.396937       -10.8012
  66   2.0000      -0.390652       -10.6302
  67   2.0000      -0.385556       -10.4915
  68   2.0000      -0.381061       -10.3692
  69   2.0000      -0.377009       -10.2589
  70   2.0000      -0.373079       -10.1520
  71   2.0000      -0.369562       -10.0563
  72   2.0000      -0.363904        -9.9023
  73   2.0000      -0.361251        -9.8301
  74   2.0000      -0.348560        -9.4848
  75   2.0000      -0.346663        -9.4332
  76   2.0000      -0.343578        -9.3492
  77   2.0000      -0.334853        -9.1118
  78   2.0000      -0.326934        -8.8963
  79   2.0000      -0.318174        -8.6579
  80   2.0000      -0.313926        -8.5424
  81   2.0000      -0.312107        -8.4929
  82   2.0000      -0.305250        -8.3063
  83   2.0000      -0.296475        -8.0675
  84   2.0000      -0.284816        -7.7502
  85   2.0000      -0.266806        -7.2602
  86   2.0000      -0.265477        -7.2240
  87   2.0000      -0.261466        -7.1149
  88   2.0000      -0.259224        -7.0538
  89   2.0000      -0.244904        -6.6642
  90   2.0000      -0.238887        -6.5004
  91   2.0000      -0.219324        -5.9681
  92   0.0000      -0.142952        -3.8899
  93   0.0000      -0.088039        -2.3957
  94   0.0000      -0.083772        -2.2795
  95   0.0000      -0.019421        -0.5285
  96   0.0000       0.004181         0.1138

MULLIKEN ATOMIC CHARGES
-----------------------
   0 C :   -0.309811
   1 O :   -0.148249
   2 C :    0.140559
   3 O :   -0.394896
   4 C :    0.336798
   5 C :    0.186119
   6 O :   -0.354392
   7 C :    0.185348
   8 O :   -0.341916
   9 N :   -0.216806
  10 C :    0.036080
  11 C :   -0.534694
  12 C :    0.176713
  13 C :   -0.629193
  14 C :   -0.699202
  15 N :   -0.050132
  16 C :   -0.113291
  17 O :   -0.432287
  18 C :    0.418109
  19 N :   -0.180702
  20 N :   -0.280019
  21 C :    0.397330
  22 C :   -0.634989
  23 O :   -0.057118
  24 N :   -0.100670
  25 H :    0.179894
  26 H :    0.181305
  27 H :    0.180387
  28 H :    0.373054
  29 H :    0.192347
  30 H :    0.201001
  31 H :    0.200245
  32 H :    0.196216
  33 H :    0.201238
  34 H :    0.186787
  35 H :    0.196671
  36 H :    0.193902
  37 H :    0.194341
  38 H :    0.317301
  39 H :    0.204692
  40 H :    0.200230
  41 H :    0.201699
Sum of atomic charges:    0.0000000

LOEWDIN ATOMIC CHARGES
----------------------
   0 C :   -0.032035
   1 O :   -0.560012
   2 C :    0.401371
   3 O :   -0.393120
   4 C :    0.260140
   5 C :    0.325287
   6 O :   -0.408438
   7 C :    0.369512
   8 O :   -0.375227
   9 N :   -0.532436
  10 C :    0.227809
  11 C :   -0.276716
  12 C :    0.119288
  13 C :   -0.351098
  14 C :   -0.341248
  15 N :   -0.590110
  16 C :    0.380656
  17 O :   -0.457375
  18 C :    0.415722
  19 N :   -0.337224
  20 N :   -0.362503
  21 C :    0.377538
  22 C :   -0.317796
  23 O :   -0.393164
  24 N :   -0.519617
  25 H :    0.185467
  26 H :    0.188472
  27 H :    0.185422
  28 H :    0.313387
  29 H :    0.180488
  30 H :    0.184458
  31 H :    0.183046
  32 H :    0.179362
  33 H :    0.182149
  34 H :    0.175011
  35 H :    0.176539
  36 H :    0.177493
  37 H :    0.178035
  38 H :    0.307193
  39 H :    0.190911
  40 H :    0.191434
  41 H :    0.191930

  Mayer bond orders larger than 0.100000
B(  0-C ,  1-O ) :   0.8283 B(  0-C , 25-H ) :   0.9519 B(  0-C , 26-H ) :   0.9624
B(  0-C , 27-H ) :   0.9512 B(  1-O ,  2-C ) :   1.1857 B(  2-C ,  3-O ) :   1.9209
B(  2-C ,  4-C ) :   0.9965 B(  2-C , 24-N ) :   0.1193 B(  4-C ,  5-C ) :   0.8562
B(  4-C , 24-N ) :   1.5630 B(  5-C ,  6-O ) :   1.9032 B(  5-C ,  7-C ) :   0.9024
B(  7-C ,  8-O ) :   1.1983 B(  7-C ,  9-N ) :   1.8838 B(  8-O , 28-H ) :   0.8168
B(  9-N , 10-C ) :   0.8550 B( 10-C , 11-C ) :   1.0329 B( 10-C , 12-C ) :   0.8675
B( 10-C , 24-N ) :   0.8382 B( 11-C , 29-H ) :   0.9463 B( 11-C , 30-H ) :   0.9387
B( 11-C , 31-H ) :   0.9548 B( 12-C , 13-C ) :   0.8743 B( 12-C , 14-C ) :   0.8323
B( 12-C , 15-N ) :   0.9255 B( 13-C , 32-H ) :   0.9636 B( 13-C , 33-H ) :   0.9607
B( 13-C , 34-H ) :   0.9699 B( 14-C , 35-H ) :   0.9674 B( 14-C , 36-H ) :   0.9620
B( 14-C , 37-H ) :   0.9718 B( 15-N , 16-C ) :   1.1520 B( 15-N , 38-H ) :   0.8502
B( 16-C , 17-O ) :   1.9266 B( 16-C , 18-C ) :   0.8109 B( 17-O , 18-C ) :  -0.1084
B( 18-C , 19-N ) :   1.7144 B( 18-C , 21-C ) :   0.1062 B( 18-C , 23-O ) :   1.0801
B( 19-N , 20-N ) :   1.2744 B( 20-N , 21-C ) :   1.6342 B( 21-C , 22-C ) :   0.8310
B( 21-C , 23-O ) :   1.0674 B( 22-C , 39-H ) :   0.9894 B( 22-C , 40-H ) :   0.9436
B( 22-C , 41-H ) :   0.9406

Dispersion correction           -0.019304633
FINAL SINGLE POINT ENERGY     -1268.616499915874

DIPOLE MOMENT
-------------
                                X             Y             Z
Electronic contribution:      2.40230       6.21642      -0.64501
Nuclear contribution   :     -4.96896      -3.56262       3.20893
                        -----------------------------------------
Total Dipole Moment    :     -2.56666       2.65379       2.56392
                        -----------------------------------------
Magnitude (a.u.)       :      4.49489
Magnitude (Debye)      :     11.42510

Rotational constants in cm-1:     0.016768     0.003588     0.003158
Rotational constants in MHz :   502.689066   107.571144    94.681081

                             ****ORCA TERMINATED NORMALLY****
TOTAL RUN TIME: 0 days 0 hours 2 minutes 16 seconds 770 msec
