   * xtb version 6.5.1 (579679a) compiled by 'ehlert@majestix' on 2022-07-11
          program call               : /lustre/hpc/kemi/ree/PhD/git/ReactivityQM/dep/xtb-6.5.1/bin/xtb --gfn 1 /lustre/hpc/kemi/ree/PhD/git/ReactivityQM/calculations/R02deprot/reac01prodN11/conf12/R02deprot_reac01prodN11_conf12_gfn1.xyz --opt --vfukui --chrg 0 --uhf 0 --alpb DMSO

   ID    Z sym.   atoms
    1    6 C      1, 3, 5, 6, 8, 11-15, 17, 19, 22, 23
    2    8 O      2, 4, 7, 9, 18, 24
    3    7 N      10, 16, 20, 21, 25
    4    1 H      26-42

      * Solvation model:               ALPB
        Solvent                        DMSO
        Solvent mass                       7.8130E+01 g/mol
          :  Hamiltonian                  GFN1-xTB          :
 * total energy  :   -82.9194046 Eh     change       -0.7005951E-11 Eh
 * total energy  :   -82.9325459 Eh     change       -0.1314127E-01 Eh
 * total energy  :   -82.9374275 Eh     change       -0.4881619E-02 Eh
 * total energy  :   -82.9385586 Eh     change       -0.1131059E-02 Eh
 * total energy  :   -82.9395319 Eh     change       -0.9733007E-03 Eh
 * total energy  :   -82.9402752 Eh     change       -0.7432978E-03 Eh
 * total energy  :   -82.9410910 Eh     change       -0.8158372E-03 Eh
 * total energy  :   -82.9418680 Eh     change       -0.7770301E-03 Eh
 * total energy  :   -82.9424478 Eh     change       -0.5797561E-03 Eh
 * total energy  :   -82.9428412 Eh     change       -0.3933733E-03 Eh
 * total energy  :   -82.9731774 Eh     change       -0.1236558E-04 Eh
 * total energy  :   -82.9731866 Eh     change       -0.9193643E-05 Eh
 * total energy  :   -82.9731967 Eh     change       -0.1006523E-04 Eh
 * total energy  :   -82.9732082 Eh     change       -0.1151020E-04 Eh
 * total energy  :   -82.9732190 Eh     change       -0.1084563E-04 Eh
 * total energy  :   -82.9732280 Eh     change       -0.8964112E-05 Eh
 * total energy  :   -82.9732361 Eh     change       -0.8170956E-05 Eh
 * total energy  :   -82.9732422 Eh     change       -0.6040097E-05 Eh
 * total energy  :   -82.9732466 Eh     change       -0.4425581E-05 Eh
   *** GEOMETRY OPTIMIZATION CONVERGED AFTER 51 ITERATIONS ***

 final structure:
================
42
 xtb: 6.5.1 (579679a)
C           -6.53144575018247        0.18484614422520       -0.19276241847259
O           -5.17720276298465        0.60643440393236        0.01150862340939
C           -4.25538613257233       -0.33781840744579        0.04877860676183
O           -4.47953042623491       -1.51575111127139       -0.08265452849162
C           -2.85733419764949        0.20484840760697        0.27264205660926
C           -2.56552663834501        1.63763268417523        0.49415339187989
O           -3.37142276664993        2.53167351450115        0.63977590310947
C           -1.10093351179911        1.93802848879911        0.51086458280287
O           -0.78198609190747        3.22893131481616        0.56135034553309
N           -0.19017042047798        1.04829894719702        0.47587532717338
C           -0.54707744970803       -0.34335760536343        0.44905424304172
C           -0.18514314142800       -0.92488390993523        1.82937729874379
C            0.27795706173706       -1.01328646670826       -0.69754960295735
C            0.11376092012786       -2.53325936820870       -0.67502564016548
C           -0.16984351067915       -0.43555933475717       -2.04510423480369
N            1.66653443941754       -0.63172426270113       -0.44521152945537
C            2.71356164092379       -1.10270609581480       -1.15086924010386
O            2.66594992145801       -1.97897812719145       -1.99851896076707
C            3.99264490953925       -0.45058039115368       -0.76522794479790
N            5.17674841132510       -0.68311069955703       -1.23985580801504
N            6.03498966398934        0.14709831549603       -0.58226021172951
C            5.32193614476889        0.83605728499033        0.25305087176156
C            5.78515049307484        1.87312292589415        1.20034832049604
O            4.02116609910914        0.50714425410347        0.18798699734875
N           -1.92237265188154       -0.66742428891616        0.23567119063039
H           -6.61482393009809       -0.35778632218685       -1.13671661595576
H           -7.13528687833461        1.08907510089347       -0.21787108558417
H           -6.84645733447647       -0.46329514482033        0.62775266714754
H           -1.59034603860226        3.76736537307943        0.62085102372660
H           -0.65478454585903       -0.31490398509699        2.59793215390583
H            0.89396177555155       -0.90137711866444        1.96157876912558
H           -0.54680340331759       -1.94658438899645        1.91383318599944
H           -0.94386015510444       -2.77914042665921       -0.59070921945842
H            0.50280053638076       -2.96567393726576       -1.59532330867982
H            0.65085672424558       -2.96745918213756        0.16610453925577
H            0.44074894893710       -0.85483233586685       -2.84369826644554
H           -1.21373897095186       -0.68788775535570       -2.22462183833235
H           -0.05919509583235        0.64749899591505       -2.04502465141546
H            1.79803614911817        0.20749252038282        0.10397960118819
H            6.86561459634966        1.97488242387729        1.13241993435554
H            5.50497951223477        1.59956842133878        2.21731468926986
H            5.31326985679421        2.82737914485342        0.96670878235545

          :  Hamiltonian                  GFN1-xTB          :
         :: total energy             -82.973246607116 Eh    ::
         :: gradient norm              0.000730712549 Eh/a0 ::
         :: HOMO-LUMO gap              1.500806931004 eV    ::
         :: SCC energy               -83.747649291522 Eh    ::
         :: -> Gsolv                  -0.052546505606 Eh    ::
         :: repulsion energy           0.801394426566 Eh    ::

    * Orbital Energies and Occupations

         #    Occupation            Energy/Eh            Energy/eV
      -------------------------------------------------------------
         1        2.0000           -0.8660778             -23.5672
       ...           ...                  ...                  ...
        55        2.0000           -0.5054259             -13.7533
        56        2.0000           -0.5025711             -13.6757
        57        2.0000           -0.5004358             -13.6176
        58        2.0000           -0.4973998             -13.5349
        59        2.0000           -0.4891574             -13.3107
        60        2.0000           -0.4880572             -13.2807
        61        2.0000           -0.4804564             -13.0739
        62        2.0000           -0.4692356             -12.7686
        63        2.0000           -0.4637340             -12.6188
        64        2.0000           -0.4595543             -12.5051
        65        2.0000           -0.4521736             -12.3043
        66        2.0000           -0.4463383             -12.1455
        67        2.0000           -0.4259297             -11.5901 (HOMO)
        68                         -0.3707761             -10.0893 (LUMO)
        69                         -0.3196256              -8.6975
        70                         -0.3107226              -8.4552
        71                         -0.2575627              -7.0086
        72                         -0.2468813              -6.7180
        73                         -0.1990380              -5.4161
        74                         -0.1880984              -5.1184
        75                         -0.1435877              -3.9072
        76                         -0.1391167              -3.7856
        77                         -0.1348222              -3.6687
        78                         -0.1217892              -3.3141
       ...                                ...                  ...
       134                          0.7446037              20.2617
      -------------------------------------------------------------
                  HL-Gap            0.0551536 Eh            1.5008 eV

Wiberg/Mayer (AO) data.
largest (>0.10) Wiberg bond orders for each atom

     #   Z sym  total        # sym  WBO       # sym  WBO       # sym  WBO
 ---------------------------------------------------------------------------
     1   6 C    3.862 --    27 H    0.985    26 H    0.979    28 H    0.979
                             2 O    0.887
     2   8 O    2.227 --     3 C    1.147     1 C    0.887     4 O    0.145
     3   6 C    3.853 --     4 O    1.678     2 O    1.147     5 C    0.951
     4   8 O    1.941 --     3 C    1.678     2 O    0.145
     5   6 C    3.956 --    25 N    1.758     6 C    1.021     3 C    0.951
     6   6 C    3.881 --     7 O    1.731     5 C    1.021     8 C    0.974
     7   8 O    1.997 --     6 C    1.731
     8   6 C    3.904 --    10 N    1.689     9 O    1.113     6 C    0.974
     9   8 O    2.092 --     8 C    1.113    29 H    0.805    10 N    0.120
    10   7 N    3.048 --     8 C    1.689    11 C    0.991     9 O    0.120
    11   6 C    3.932 --    25 N    1.001    10 N    0.991    12 C    0.931
                            13 C    0.911
    12   6 C    3.983 --    30 H    0.983    32 H    0.983    31 H    0.980
                            11 C    0.931
    13   6 C    3.932 --    14 C    1.000    15 C    0.990    16 N    0.932
                            11 C    0.911
    14   6 C    3.989 --    13 C    1.000    35 H    0.984    33 H    0.983
                            34 H    0.977
    15   6 C    3.990 --    13 C    0.990    37 H    0.984    38 H    0.984
                            36 H    0.982
    16   7 N    3.353 --    17 C    1.259    13 C    0.932    39 H    0.885
                            18 O    0.176
    17   6 C    3.917 --    18 O    1.584    16 N    1.259    19 C    0.990
    18   8 O    1.899 --    17 C    1.584    16 N    0.176
    19   6 C    3.871 --    20 N    1.624    24 O    1.047    17 C    0.990
    20   7 N    2.999 --    19 C    1.624    21 N    1.197
    21   7 N    2.981 --    22 C    1.612    20 N    1.197
    22   6 C    3.869 --    21 N    1.612    24 O    1.072    23 C    1.031
    23   6 C    3.986 --    22 C    1.031    40 H    0.982    41 H    0.964
                            42 H    0.962
    24   8 O    2.315 --    22 C    1.072    19 C    1.047
    25   7 N    3.040 --     5 C    1.758    11 C    1.001
    26   1 H    1.005 --     1 C    0.979
    27   1 H    1.009 --     1 C    0.985
    28   1 H    1.005 --     1 C    0.979
    29   1 H    0.840 --     9 O    0.805
    30   1 H    1.001 --    12 C    0.983
    31   1 H    1.002 --    12 C    0.980
    32   1 H    1.002 --    12 C    0.983
    33   1 H    1.010 --    14 C    0.983
    34   1 H    1.012 --    14 C    0.977
    35   1 H    1.002 --    14 C    0.984
    36   1 H    1.005 --    15 C    0.982
    37   1 H    1.003 --    15 C    0.984
    38   1 H    1.005 --    15 C    0.984
    39   1 H    0.958 --    16 N    0.885
    40   1 H    0.998 --    23 C    0.982
    41   1 H    0.997 --    23 C    0.964
    42   1 H    0.997 --    23 C    0.962
 ---------------------------------------------------------------------------

           -------------------------------------------------
          | TOTAL ENERGY              -82.973246607116 Eh   |
          | GRADIENT NORM               0.000730712549 Eh/α |
          | HOMO-LUMO GAP               1.500806931004 eV   |
           -------------------------------------------------

 * finished run on 2023/06/20 at 18:18:18.184
