   * xtb version 6.5.1 (579679a) compiled by 'ehlert@majestix' on 2022-07-11
          program call               : /lustre/hpc/kemi/ree/PhD/git/ReactivityQM/dep/xtb-6.5.1/bin/xtb --gfn 1 /lustre/hpc/kemi/ree/PhD/git/ReactivityQM/calculations/R02/reac01prodN12/conf11/R02_reac01prodN12_conf11_gfn1.xyz --opt --vfukui --chrg 1 --uhf 0 --alpb DMSO

   ID    Z sym.   atoms
    1    6 C      1, 3, 5, 7-10, 12, 14, 15, 18, 19, 22, 24
    2    8 O      2, 4, 13, 20, 23, 25
    3    7 N      6, 11, 16, 17, 21
    4    1 H      26-43

      * Solvation model:               ALPB
        Solvent                        DMSO
        Solvent mass                       7.8130E+01 g/mol
          :  Hamiltonian                  GFN1-xTB          :
 * total energy  :   -83.1128842 Eh     change       -0.1036256E-09 Eh
 * total energy  :   -83.1274220 Eh     change       -0.1453778E-01 Eh
 * total energy  :   -83.1332182 Eh     change       -0.5796191E-02 Eh
 * total energy  :   -83.1341121 Eh     change       -0.8939433E-03 Eh
 * total energy  :   -83.1346831 Eh     change       -0.5709846E-03 Eh
 * total energy  :   -83.1349107 Eh     change       -0.2275442E-03 Eh
 * total energy  :   -83.1351034 Eh     change       -0.1927580E-03 Eh
 * total energy  :   -83.1352138 Eh     change       -0.1103253E-03 Eh
 * total energy  :   -83.1352726 Eh     change       -0.5879778E-04 Eh
 * total energy  :   -83.1353029 Eh     change       -0.3032671E-04 Eh
 * total energy  :   -83.1357451 Eh     change       -0.1174874E-04 Eh
 * total energy  :   -83.1357574 Eh     change       -0.1226476E-04 Eh
 * total energy  :   -83.1357735 Eh     change       -0.1607700E-04 Eh
 * total energy  :   -83.1357940 Eh     change       -0.2051284E-04 Eh
 * total energy  :   -83.1358113 Eh     change       -0.1729725E-04 Eh
 * total energy  :   -83.1358206 Eh     change       -0.9273401E-05 Eh
 * total energy  :   -83.1358423 Eh     change       -0.2178650E-04 Eh
 * total energy  :   -83.1358476 Eh     change       -0.5236220E-05 Eh
 * total energy  :   -83.1358518 Eh     change       -0.4203246E-05 Eh
   *** GEOMETRY OPTIMIZATION CONVERGED AFTER 47 ITERATIONS ***

 final structure:
================
43
 xtb: 6.5.1 (579679a)
C            5.10298762385167        3.14259506062057        0.32410674756169
O            4.08489063872792        2.13623883710267        0.24149845557215
C            4.20190680447358        1.10562749777251        1.06194211624583
O            5.11677108812477        0.98106060983151        1.85668771622474
C            3.11711033646948        0.10356030695232        0.92977900525329
N            2.13469330299346        0.35834170613062        0.00392310102697
C            1.17807293635273       -0.49038382533343       -0.13358695733995
C            0.11892629578760       -0.26538996848514       -1.18909133730219
C            0.40975023712654       -1.19274160795708       -2.37409969232538
C            0.07937616642706        1.20334342780470       -1.60940310554254
N           -1.18247693939251       -0.61823500765026       -0.56455026218141
C           -2.29391397496243       -0.73355904557457       -1.26584319373455
O           -2.46984830925420       -0.71533056768154       -2.44941384385069
C           -3.59663615629788       -0.94637855092001       -0.31081232089312
C           -4.70764011172411       -1.56227219333002       -1.15112288757289
N           -3.22045934365015       -1.68341491669277        0.82271706165641
N           -3.27172933415743       -0.94726420879565        1.85403871352603
C           -3.72677233909045        0.28717923207810        1.46317917306074
C           -3.95085404817408        1.42476105996691        2.34862522821384
O           -3.93607871364462        0.32202638051352        0.19845797087254
N            1.10671281292669       -1.64179280850016        0.59616595716790
C            2.02731410453159       -2.01077403279156        1.56556138354825
O            1.89625034471458       -3.04549211615983        2.18895638035378
C            3.10961755854226       -1.02766437501153        1.71101678314278
O            4.03639934911655       -1.31150425988750        2.62018042150252
H            6.08026594370900        2.70145044646392        0.11542583719764
H            4.85548268222340        3.89382564487278       -0.42285000759849
H            5.10779159146438        3.58366529683228        1.32322497174452
H            0.29158193236205       -2.23231654779667       -2.07470156637738
H            1.43527868820547       -1.03017742722334       -2.70308524147764
H           -0.26166017737765       -0.97979250799747       -3.20292116726295
H            1.05374153476691        1.49067642236881       -2.00160213217041
H           -0.67839895064002        1.35020316249601       -2.37642963656503
H           -0.15281770742680        1.82825788712743       -0.74930529503172
H           -1.23918705545138       -0.58319865196837        0.44038850710099
H           -4.39121359369239       -2.54868024774611       -1.48228739211127
H           -4.88720077806116       -0.92337741542042       -2.01364530734417
H           -5.60847172675772       -1.64037846480858       -0.54713213858288
H           -3.04115745998836        1.63259071625995        2.91541537576486
H           -4.26134783585271        2.30088587687521        1.78391591725172
H           -4.71948901655848        1.15540354335153        3.07858530816619
H            0.33742020435065       -2.27649758715748        0.45039041999029
H            4.71501639490446       -0.59507678053726        2.65554993312858

          :  Hamiltonian                  GFN1-xTB          :
         :: total energy             -83.135851786474 Eh    ::
         :: gradient norm              0.000529195990 Eh/a0 ::
         :: HOMO-LUMO gap              0.374606444334 eV    ::
         :: SCC energy               -83.928944233481 Eh    ::
         :: -> Gsolv                  -0.119586428347 Eh    ::
         :: repulsion energy           0.820123681807 Eh    ::

    * Orbital Energies and Occupations

         #    Occupation            Energy/Eh            Energy/eV
      -------------------------------------------------------------
         1        2.0000           -0.9369119             -25.4947
       ...           ...                  ...                  ...
        55        2.0000           -0.5343298             -14.5399
        56        2.0000           -0.5283508             -14.3772
        57        2.0000           -0.5227906             -14.2259
        58        2.0000           -0.5206881             -14.1686
        59        2.0000           -0.5170143             -14.0687
        60        2.0000           -0.5070909             -13.7986
        61        2.0000           -0.5065202             -13.7831
        62        2.0000           -0.5001814             -13.6106
        63        2.0000           -0.4994605             -13.5910
        64        2.0000           -0.4982229             -13.5573
        65        2.0000           -0.4738069             -12.8929
        66        2.0000           -0.4595804             -12.5058
        67        1.9986           -0.4427282             -12.0472 (HOMO)
        68        0.0014           -0.4289617             -11.6726 (LUMO)
        69                         -0.3365014              -9.1567
        70                         -0.3347965              -9.1103
        71                         -0.3078211              -8.3762
        72                         -0.2988880              -8.1332
        73                         -0.2523049              -6.8656
        74                         -0.1779711              -4.8428
        75                         -0.1712979              -4.6613
        76                         -0.1573924              -4.2829
        77                         -0.1446730              -3.9368
        78                         -0.1411108              -3.8398
       ...                                ...                  ...
       136                          0.7300419              19.8655
      -------------------------------------------------------------
                  HL-Gap            0.0137665 Eh            0.3746 eV

Wiberg/Mayer (AO) data.
largest (>0.10) Wiberg bond orders for each atom

     #   Z sym  total        # sym  WBO       # sym  WBO       # sym  WBO
 ---------------------------------------------------------------------------
     1   6 C    3.862 --    27 H    0.986    26 H    0.979    28 H    0.979
                             2 O    0.888
     2   8 O    2.220 --     3 C    1.142     1 C    0.888     4 O    0.132
     3   6 C    3.851 --     4 O    1.608     2 O    1.142     5 C    1.016
     4   8 O    1.948 --     3 C    1.608     2 O    0.132
     5   6 C    3.958 --    24 C    1.485     6 N    1.171     3 C    1.016
     6   7 N    3.026 --     7 C    1.600     5 C    1.171
     7   6 C    3.937 --     6 N    1.600    21 N    1.165     8 C    0.979
     8   6 C    3.905 --    10 C    0.992     9 C    0.981     7 C    0.979
                            11 N    0.878
     9   6 C    3.982 --    29 H    0.984     8 C    0.981    30 H    0.981
                            31 H    0.975
    10   6 C    3.986 --     8 C    0.992    34 H    0.984    33 H    0.983
                            32 H    0.980
    11   7 N    3.381 --    12 C    1.353    35 H    0.886     8 C    0.878
                            13 O    0.181
    12   6 C    3.905 --    13 O    1.684    11 N    1.353    14 C    0.721
    13   8 O    2.084 --    12 C    1.684    11 N    0.181
    14   6 C    3.832 --    16 N    1.115    15 C    0.929    20 O    0.902
                            12 C    0.721
    15   6 C    3.950 --    36 H    0.977    38 H    0.976    37 H    0.973
                            14 C    0.929
    16   7 N    3.007 --    17 N    1.631    14 C    1.115
    17   7 N    3.014 --    16 N    1.631    18 C    1.203
    18   6 C    3.807 --    20 O    1.292    17 N    1.203    19 C    1.077
    19   6 C    3.963 --    18 C    1.077    40 H    0.972    39 H    0.928
                            41 H    0.917
    20   8 O    2.383 --    18 C    1.292    14 C    0.902
    21   7 N    3.453 --     7 C    1.165    22 C    1.108    42 H    0.885
                            23 O    0.134
    22   6 C    3.904 --    23 O    1.617    21 N    1.108    24 C    1.049
    23   8 O    1.913 --    22 C    1.617    21 N    0.134
    24   6 C    3.919 --     5 C    1.485    25 O    1.140    22 C    1.049
    25   8 O    2.103 --    24 C    1.140    43 H    0.769
    26   1 H    1.005 --     1 C    0.979
    27   1 H    1.009 --     1 C    0.986
    28   1 H    1.005 --     1 C    0.979
    29   1 H    0.997 --     9 C    0.984
    30   1 H    0.998 --     9 C    0.981
    31   1 H    1.002 --     9 C    0.975
    32   1 H    1.006 --    10 C    0.980
    33   1 H    0.998 --    10 C    0.983
    34   1 H    1.002 --    10 C    0.984
    35   1 H    0.932 --    11 N    0.886
    36   1 H    0.992 --    15 C    0.977
    37   1 H    0.996 --    15 C    0.973
    38   1 H    0.990 --    15 C    0.976
    39   1 H    0.980 --    19 C    0.928
    40   1 H    0.985 --    19 C    0.972
    41   1 H    0.976 --    19 C    0.917
    42   1 H    0.928 --    21 N    0.885
    43   1 H    0.847 --    25 O    0.769
 ---------------------------------------------------------------------------

           -------------------------------------------------
          | TOTAL ENERGY              -83.135851786474 Eh   |
          | GRADIENT NORM               0.000529195990 Eh/α |
          | HOMO-LUMO GAP               0.374606444334 eV   |
           -------------------------------------------------

 * finished run on 2023/06/20 at 15:34:51.258
