   * xtb version 6.5.1 (579679a) compiled by 'ehlert@majestix' on 2022-07-11
          program call               : /lustre/hpc/kemi/ree/PhD/git/ReactivityQM/dep/xtb-6.5.1/bin/xtb --gfn 1 /lustre/hpc/kemi/ree/PhD/git/ReactivityQM/calculations/RaltegravirCLI/reac01prodE06/conf12/RaltegravirCLI_reac01prodE06_conf12_gfn1.xyz --opt --vfukui --chrg -1 --uhf 0 --alpb DMSO

   ID    Z sym.   atoms
    1    6 C      1, 3, 5, 8, 9
    2    8 O      2, 10
    3   17 Cl     4
    4    7 N      6, 7
    5    1 H      11-16

      * Solvation model:               ALPB
        Solvent                        DMSO
        Solvent mass                       7.8130E+01 g/mol
          :  Hamiltonian                  GFN1-xTB          :
 * total energy  :   -34.1129855 Eh     change       -0.7247536E-12 Eh
 * total energy  :   -34.1194550 Eh     change       -0.6469510E-02 Eh
 * total energy  :   -34.1225086 Eh     change       -0.3053583E-02 Eh
 * total energy  :   -34.1238189 Eh     change       -0.1310281E-02 Eh
 * total energy  :   -34.1254429 Eh     change       -0.1624049E-02 Eh
 * total energy  :   -34.1264665 Eh     change       -0.1023543E-02 Eh
 * total energy  :   -34.1268845 Eh     change       -0.4180030E-03 Eh
 * total energy  :   -34.1271295 Eh     change       -0.2450586E-03 Eh
 * total energy  :   -34.1272019 Eh     change       -0.7240138E-04 Eh
 * total energy  :   -34.1272578 Eh     change       -0.5590948E-04 Eh
 * total energy  :   -34.1275308 Eh     change       -0.4476537E-04 Eh
 * total energy  :   -34.1275604 Eh     change       -0.2963384E-04 Eh
 * total energy  :   -34.1275927 Eh     change       -0.3227038E-04 Eh
 * total energy  :   -34.1276155 Eh     change       -0.2281431E-04 Eh
 * total energy  :   -34.1276394 Eh     change       -0.2389972E-04 Eh
 * total energy  :   -34.1276498 Eh     change       -0.1036037E-04 Eh
 * total energy  :   -34.1276577 Eh     change       -0.7891177E-05 Eh
 * total energy  :   -34.1276655 Eh     change       -0.7785355E-05 Eh
 * total energy  :   -34.1276703 Eh     change       -0.4890560E-05 Eh
   *** GEOMETRY OPTIMIZATION CONVERGED AFTER 22 ITERATIONS ***

 final structure:
================
16
 xtb: 6.5.1 (579679a)
C            3.45720472846894       -0.50852680592738        0.62639165752640
O            2.39902500326569        0.43425702180689        0.67062157455521
C            1.34946477112617        0.14908868618066       -0.20704265034903
Cl           1.64071255787525        0.81669408078080       -1.86893819910933
C            0.05361895147182        0.26118561964140        0.27981770632467
N           -0.34872160453854        0.07268883447002        1.54468612741170
N           -1.73011762883102        0.00687847520546        1.50189156924225
C           -2.08867469216935        0.14703918876373        0.27634059724435
C           -3.46968770717599        0.14185959688668       -0.27434601458446
O           -1.02796292131674        0.31163118717742       -0.57171315038762
H            4.14370369666668       -0.27158272393563        1.44132168469307
H            3.08199215090579       -1.53169272053787        0.75275722434421
H            3.99724670371326       -0.44868981604268       -0.32679939953492
H           -3.62116489290608       -0.72004542847675       -0.92614223717148
H           -4.18502275043898        0.09645187684000        0.54403137342318
H           -3.65161636611696        1.04276592716716       -0.86111486362815

          :  Hamiltonian                  GFN1-xTB          :
         :: total energy             -34.127670349984 Eh    ::
         :: gradient norm              0.000477053739 Eh/a0 ::
         :: HOMO-LUMO gap              2.900013807436 eV    ::
         :: SCC energy               -34.377628931866 Eh    ::
         :: -> Gsolv                  -0.095295446697 Eh    ::
         :: repulsion energy           0.256791570581 Eh    ::

    * Orbital Energies and Occupations

         #    Occupation            Energy/Eh            Energy/eV
      -------------------------------------------------------------
         1        2.0000           -0.8494599             -23.1150
       ...           ...                  ...                  ...
        16        2.0000           -0.5125606             -13.9475
        17        2.0000           -0.5057036             -13.7609
        18        2.0000           -0.4955627             -13.4849
        19        2.0000           -0.4773108             -12.9883
        20        2.0000           -0.4734766             -12.8840
        21        2.0000           -0.4508054             -12.2670
        22        2.0000           -0.4337269             -11.8023
        23        2.0000           -0.4302794             -11.7085
        24        2.0000           -0.4253626             -11.5747
        25        2.0000           -0.4066311             -11.0650
        26        2.0000           -0.3951563             -10.7527
        27        2.0000           -0.3815085             -10.3814
        28        2.0000           -0.3032670              -8.2523 (HOMO)
        29                         -0.1966935              -5.3523 (LUMO)
        30                         -0.1746881              -4.7535
        31                         -0.1345011              -3.6600
        32                         -0.1197242              -3.2579
        33                         -0.1079206              -2.9367
        34                         -0.0530534              -1.4437
        35                         -0.0522862              -1.4228
        36                         -0.0519121              -1.4126
        37                         -0.0504024              -1.3715
        38                          0.0136108               0.3704
        39                          0.0189201               0.5148
       ...                                ...                  ...
        57                          0.6391317              17.3917
      -------------------------------------------------------------
                  HL-Gap            0.1065735 Eh            2.9000 eV

Wiberg/Mayer (AO) data.
largest (>0.10) Wiberg bond orders for each atom

     #   Z sym  total        # sym  WBO       # sym  WBO       # sym  WBO
 ---------------------------------------------------------------------------
     1   6 C    3.929 --    11 H    0.986    12 H    0.981    13 H    0.981
                             2 O    0.950
     2   8 O    2.046 --     3 C    0.970     1 C    0.950
     3   6 C    3.489 --     5 C    1.386     2 O    0.970     4 Cl   0.834
                             6 N    0.151
     4  17 Cl   0.943 --     3 C    0.834
     5   6 C    3.865 --     3 C    1.386     6 N    1.364    10 O    0.984
     6   7 N    2.846 --     5 C    1.364     7 N    1.144     3 C    0.151
     7   7 N    2.985 --     8 C    1.677     6 N    1.144
     8   6 C    3.887 --     7 N    1.677     9 C    1.020    10 O    1.012
     9   6 C    3.996 --     8 C    1.020    15 H    0.986    16 H    0.976
                            14 H    0.973
    10   8 O    2.208 --     8 C    1.012     5 C    0.984
    11   1 H    1.022 --     1 C    0.986
    12   1 H    1.027 --     1 C    0.981
    13   1 H    1.024 --     1 C    0.981
    14   1 H    1.006 --     9 C    0.973
    15   1 H    1.006 --     9 C    0.986
    16   1 H    1.005 --     9 C    0.976
 ---------------------------------------------------------------------------

           -------------------------------------------------
          | TOTAL ENERGY              -34.127670349984 Eh   |
          | GRADIENT NORM               0.000477053739 Eh/α |
          | HOMO-LUMO GAP               2.900013807436 eV   |
           -------------------------------------------------

 * finished run on 2023/06/20 at 14:54:04.302
