   * xtb version 6.5.1 (579679a) compiled by 'ehlert@majestix' on 2022-07-11
          program call               : /lustre/hpc/kemi/ree/PhD/git/ReactivityQM/dep/xtb-6.5.1/bin/xtb --gfn 1 /lustre/hpc/kemi/ree/PhD/git/ReactivityQM/calculations/RaltegravirCLI/reac02prodN02/conf04/RaltegravirCLI_reac02prodN02_conf04_gfn1.xyz --opt --vfukui --chrg 1 --uhf 0 --alpb DMSO

   ID    Z sym.   atoms
    1    6 C      1, 3-6, 8, 9, 12-16, 18-20, 22, 25
    2    7 N      2, 7, 11, 24
    3    8 O      10, 21, 23
    4    9 F      17
    5    1 H      26-47

      * Solvation model:               ALPB
        Solvent                        DMSO
        Solvent mass                       7.8130E+01 g/mol
          :  Hamiltonian                  GFN1-xTB          :
 * total energy  :   -79.5258532 Eh     change       -0.9507062E-11 Eh
 * total energy  :   -79.5363910 Eh     change       -0.1053787E-01 Eh
 * total energy  :   -79.5398207 Eh     change       -0.3429708E-02 Eh
 * total energy  :   -79.5407360 Eh     change       -0.9152267E-03 Eh
 * total energy  :   -79.5413614 Eh     change       -0.6254714E-03 Eh
 * total energy  :   -79.5416001 Eh     change       -0.2386377E-03 Eh
 * total energy  :   -79.5417544 Eh     change       -0.1542923E-03 Eh
 * total energy  :   -79.5418192 Eh     change       -0.6480777E-04 Eh
 * total energy  :   -79.5418491 Eh     change       -0.2988852E-04 Eh
 * total energy  :   -79.5418728 Eh     change       -0.2375907E-04 Eh
 * total energy  :   -79.5419352 Eh     change       -0.2629696E-04 Eh
 * total energy  :   -79.5419840 Eh     change       -0.4879863E-04 Eh
 * total energy  :   -79.5420081 Eh     change       -0.2407733E-04 Eh
 * total energy  :   -79.5420309 Eh     change       -0.2283262E-04 Eh
 * total energy  :   -79.5420488 Eh     change       -0.1789167E-04 Eh
 * total energy  :   -79.5420527 Eh     change       -0.3879740E-05 Eh
 * total energy  :   -79.5420616 Eh     change       -0.8899724E-05 Eh
 * total energy  :   -79.5420675 Eh     change       -0.5974496E-05 Eh
 * total energy  :   -79.5420698 Eh     change       -0.2293785E-05 Eh
   *** GEOMETRY OPTIMIZATION CONVERGED AFTER 20 ITERATIONS ***

 final structure:
================
47
 xtb: 6.5.1 (579679a)
C           -2.76885625169932        0.88891205302177       -2.37918579784166
N           -2.65792401274963       -0.46997770411311       -1.79577866473542
C           -3.20192838172462       -0.64963595010915       -0.39799399585433
C           -3.18447761574627       -2.16396604212245       -0.15667300149150
C           -4.62278101424603       -0.09026549094630       -0.36461817609026
C           -2.17467929794212        0.02550214920221        0.50538133056046
N           -1.03835506196370        0.25397382072780       -0.06809556965593
C            0.02262887485972        0.81021576105687        0.59342860044863
C            1.21285260355075        1.01894571538354       -0.29688817990065
O            1.12423447830235        0.82897283007204       -1.50493122673862
N            2.33695210015524        1.43156927817880        0.30797350739897
C            3.56667900759446        1.63762904566004       -0.45386971725697
C            4.42584295511775        0.39126411958903       -0.43773528310158
C            5.62226643119446        0.36847600465910        0.27352758951086
C            6.41020745922080       -0.77501646012320        0.29524039117187
C            5.97191776097879       -1.88565814645763       -0.40196749852893
F            6.72626937990173       -2.99628529678041       -0.38506021791073
C            4.78700791953965       -1.89860211913875       -1.11651919098782
C            4.01461520523706       -0.74662984163482       -1.13051700183322
C           -0.12398637671231        1.12356072088101        1.91125349834374
O            0.83932109903747        1.67281166574522        2.66695248473838
C           -1.38461925882133        0.87910086124510        2.59546709293256
O           -1.54168489908955        1.16375934869705        3.77472040972971
N           -2.39045956628891        0.30039662967039        1.82490497938593
C           -3.64870699936221        0.04015331822334        2.52789072474459
H           -3.81375508672224        1.12513084408843       -2.55257941693670
H           -2.22447605034773        0.87840206789660       -3.32067731621731
H           -2.31716688614676        1.59752189323227       -1.68971797469727
H           -3.10538007435342       -1.13749480309492       -2.41569967783421
H           -1.65262527806462       -0.68353149900854       -1.73484666116834
H           -3.86978314880384       -2.65486628977682       -0.84544613973405
H           -2.17955738382526       -2.55505123019266       -0.30937404898943
H           -3.49537560298269       -2.38687002034122        0.86160323991382
H           -5.13490679782680       -0.35770685150825       -1.28789121221379
H           -4.62036514559380        0.99287425735975       -0.25865158015881
H           -5.18313580754226       -0.52769073169606        0.45770056383972
H            2.38786950473101        1.50886359105674        1.31042461883401
H            3.28276567354075        1.88971732924212       -1.48058726017218
H            4.10165254319561        2.48100994840779       -0.01074742974193
H            5.94591272820620        1.24925265964831        0.81580393891137
H            7.34263347867796       -0.80492639032966        0.84387708954996
H            4.47804164994571       -2.78883485701592       -1.64871233230723
H            3.08433594644468       -0.73195677565295       -1.68539694234447
H            0.49789827404531        1.80464885492767        3.57267501891841
H           -4.02310708066636       -0.94536042022596        2.27060556111806
H           -4.37868092452092        0.80516715416383        2.26902618902181
H           -3.44513106973491        0.08249399823198        3.59781568536964

          :  Hamiltonian                  GFN1-xTB          :
         :: total energy             -79.542069822121 Eh    ::
         :: gradient norm              0.000514056761 Eh/a0 ::
         :: HOMO-LUMO gap              2.955611387647 eV    ::
         :: SCC energy               -80.442601959917 Eh    ::
         :: -> Gsolv                  -0.119489104728 Eh    ::
         :: repulsion energy           0.931313981711 Eh    ::

    * Orbital Energies and Occupations

         #    Occupation            Energy/Eh            Energy/eV
      -------------------------------------------------------------
         1        2.0000           -0.8814111             -23.9844
       ...           ...                  ...                  ...
        55        2.0000           -0.5272892             -14.3483
        56        2.0000           -0.5153251             -14.0227
        57        2.0000           -0.5087343             -13.8434
        58        2.0000           -0.5040604             -13.7162
        59        2.0000           -0.4887459             -13.2995
        60        2.0000           -0.4842925             -13.1783
        61        2.0000           -0.4756020             -12.9418
        62        2.0000           -0.4714463             -12.8287
        63        2.0000           -0.4555472             -12.3961
        64        2.0000           -0.4537416             -12.3469
        65        2.0000           -0.4480290             -12.1915
        66        2.0000           -0.4403725             -11.9831
        67        2.0000           -0.4379857             -11.9182 (HOMO)
        68                         -0.3293690              -8.9626 (LUMO)
        69                         -0.3014812              -8.2037
        70                         -0.2756452              -7.5007
        71                         -0.2696199              -7.3367
        72                         -0.2415828              -6.5738
        73                         -0.1780125              -4.8440
        74                         -0.1674019              -4.5552
        75                         -0.1670243              -4.5450
        76                         -0.1656512              -4.5076
        77                         -0.1483588              -4.0370
        78                         -0.1478971              -4.0245
       ...                                ...                  ...
       144                          0.7092250              19.2990
      -------------------------------------------------------------
                  HL-Gap            0.1086167 Eh            2.9556 eV

Wiberg/Mayer (AO) data.
largest (>0.10) Wiberg bond orders for each atom

     #   Z sym  total        # sym  WBO       # sym  WBO       # sym  WBO
 ---------------------------------------------------------------------------
     1   6 C    3.898 --    26 H    0.984    28 H    0.982    27 H    0.981
                             2 N    0.920
     2   7 N    3.601 --     1 C    0.920    29 H    0.894     3 C    0.890
                            30 H    0.865
     3   6 C    3.906 --     5 C    0.998     4 C    0.985     6 C    0.979
                             2 N    0.890
     4   6 C    3.982 --     3 C    0.985    32 H    0.981    31 H    0.979
                            33 H    0.974
     5   6 C    3.984 --     3 C    0.998    35 H    0.982    34 H    0.978
                            36 H    0.975
     6   6 C    3.942 --     7 N    1.562    24 N    1.191     3 C    0.979
     7   7 N    3.066 --     6 C    1.562     8 C    1.178
     8   6 C    3.954 --    20 C    1.510     7 N    1.178     9 C    0.987
     9   6 C    3.912 --    10 O    1.565    11 N    1.282     8 C    0.987
    10   8 O    1.879 --     9 C    1.565    11 N    0.175
    11   7 N    3.362 --     9 C    1.282    12 C    0.937    37 H    0.888
                            10 O    0.175
    12   6 C    3.943 --    13 C    0.994    39 H    0.977    38 H    0.967
                            11 N    0.937
    13   6 C    3.988 --    14 C    1.424    19 C    1.414    12 C    0.994
    14   6 C    3.994 --    15 C    1.439    13 C    1.424    40 H    0.970
                            18 C    0.109
    15   6 C    3.991 --    14 C    1.439    16 C    1.404    41 H    0.969
                            19 C    0.112
    16   6 C    3.861 --    15 C    1.404    18 C    1.397    17 F    0.926
    17   9 F    1.054 --    16 C    0.926
    18   6 C    3.992 --    19 C    1.448    16 C    1.397    42 H    0.969
                            14 C    0.109
    19   6 C    3.993 --    18 C    1.448    13 C    1.414    43 H    0.969
                            15 C    0.112
    20   6 C    3.920 --     8 C    1.510    21 O    1.090    22 C    1.079
    21   8 O    2.080 --    20 C    1.090    44 H    0.794
    22   6 C    3.911 --    23 O    1.572    24 N    1.108    20 C    1.079
    23   8 O    1.918 --    22 C    1.572    24 N    0.130
    24   7 N    3.510 --     6 C    1.191    22 C    1.108    25 C    0.924
                            23 O    0.130
    25   6 C    3.914 --    45 H    0.977    46 H    0.975    47 H    0.971
                            24 N    0.924
    26   1 H    0.995 --     1 C    0.984
    27   1 H    0.990 --     1 C    0.981
    28   1 H    1.003 --     1 C    0.982
    29   1 H    0.921 --     2 N    0.894
    30   1 H    0.951 --     2 N    0.865
    31   1 H    0.992 --     4 C    0.979
    32   1 H    0.995 --     4 C    0.981
    33   1 H    0.997 --     4 C    0.974
    34   1 H    0.993 --     5 C    0.978
    35   1 H    0.997 --     5 C    0.982
    36   1 H    0.999 --     5 C    0.975
    37   1 H    0.942 --    11 N    0.888
    38   1 H    1.009 --    12 C    0.967
    39   1 H    1.002 --    12 C    0.977
    40   1 H    0.999 --    14 C    0.970
    41   1 H    0.997 --    15 C    0.969
    42   1 H    0.998 --    18 C    0.969
    43   1 H    1.009 --    19 C    0.969
    44   1 H    0.836 --    21 O    0.794
    45   1 H    1.002 --    25 C    0.977
    46   1 H    0.998 --    25 C    0.975
    47   1 H    1.003 --    25 C    0.971
 ---------------------------------------------------------------------------

           -------------------------------------------------
          | TOTAL ENERGY              -79.542069822121 Eh   |
          | GRADIENT NORM               0.000514056761 Eh/α |
          | HOMO-LUMO GAP               2.955611387647 eV   |
           -------------------------------------------------

 * finished run on 2023/06/20 at 15:17:15.784
