   * xtb version 6.5.1 (579679a) compiled by 'ehlert@majestix' on 2022-07-11
          program call               : /lustre/hpc/kemi/ree/PhD/git/ReactivityQM/dep/xtb-6.5.1/bin/xtb --gfn 1 /lustre/hpc/kemi/ree/PhD/git/ReactivityQM/calculations/R01/reac01prodN03/conf07/R01_reac01prodN03_conf07_gfn1.xyz --opt --vfukui --chrg 1 --uhf 0 --alpb DMSO

   ID    Z sym.   atoms
    1    6 C      1, 3, 5, 7, 8, 11
    2    8 O      2, 4, 6
    3    7 N      9, 10
    4    1 H      12-20

      * Solvation model:               ALPB
        Solvent                        DMSO
        Solvent mass                       7.8130E+01 g/mol
          :  Hamiltonian                  GFN1-xTB          :
 * total energy  :   -37.6224640 Eh     change       -0.5236700E-11 Eh
 * total energy  :   -37.6370547 Eh     change       -0.1459067E-01 Eh
 * total energy  :   -37.6421355 Eh     change       -0.5080841E-02 Eh
 * total energy  :   -37.6434864 Eh     change       -0.1350863E-02 Eh
 * total energy  :   -37.6444579 Eh     change       -0.9714686E-03 Eh
 * total energy  :   -37.6448714 Eh     change       -0.4135362E-03 Eh
 * total energy  :   -37.6451561 Eh     change       -0.2846852E-03 Eh
 * total energy  :   -37.6453592 Eh     change       -0.2031092E-03 Eh
 * total energy  :   -37.6454208 Eh     change       -0.6164707E-04 Eh
 * total energy  :   -37.6454278 Eh     change       -0.6930855E-05 Eh
 * total energy  :   -37.6454305 Eh     change       -0.2708708E-05 Eh
   *** GEOMETRY OPTIMIZATION CONVERGED AFTER 11 ITERATIONS ***

 final structure:
================
20
 xtb: 6.5.1 (579679a)
C            3.51017617212600        0.98567424878478       -0.21592721438194
O            2.07381768054650        0.93578599909815       -0.10103272282378
C            1.52005189476489       -0.23802033246648        0.01195295692213
O            2.06484448953477       -1.30742425192670        0.03354127599937
C            0.01991949340328       -0.12406391512059        0.11983730681216
O           -0.63688964709425        1.02338593994196        0.13747102125273
C           -1.93547653751587        0.70876262468593        0.23933944799898
C           -2.96828200019486        1.75500480101138        0.29499373858189
N           -2.09769519888736       -0.58592446750842        0.28287565988628
N           -0.86088069826776       -1.09580838749828        0.20575863875247
C           -0.67687025148684       -2.53083339781172        0.24311596514901
H            3.76882801507556        2.04050939081612       -0.26397114743608
H            3.96133884225828        0.51027453797383        0.65580961603888
H            3.81849466928393        0.46563668431209       -1.12372542931894
H           -3.95627570333057        1.30148556842516        0.27371335694714
H           -2.84917423580118        2.33518898336447        1.21169134850368
H           -2.84753597320625        2.43713776303382       -0.54689586911406
H            0.24395701354331       -2.78243760513526       -0.27754244635722
H           -1.54009517655133       -2.99243330321544       -0.23040765882899
H           -0.61225284820003       -2.84190188076484        1.28579915541628

          :  Hamiltonian                  GFN1-xTB          :
         :: total energy             -37.645430488882 Eh    ::
         :: gradient norm              0.000593257289 Eh/a0 ::
         :: HOMO-LUMO gap              3.654557708176 eV    ::
         :: SCC energy               -38.000434908369 Eh    ::
         :: -> Gsolv                  -0.077857872115 Eh    ::
         :: repulsion energy           0.363122581733 Eh    ::

    * Orbital Energies and Occupations

         #    Occupation            Energy/Eh            Energy/eV
      -------------------------------------------------------------
         1        2.0000           -0.9439080             -25.6850
       ...           ...                  ...                  ...
        18        2.0000           -0.6263133             -17.0429
        19        2.0000           -0.6069263             -16.5153
        20        2.0000           -0.6042870             -16.4435
        21        2.0000           -0.5964361             -16.2299
        22        2.0000           -0.5877167             -15.9926
        23        2.0000           -0.5751832             -15.6515
        24        2.0000           -0.5695674             -15.4987
        25        2.0000           -0.5598460             -15.2342
        26        2.0000           -0.5497912             -14.9606
        27        2.0000           -0.5438646             -14.7993
        28        2.0000           -0.5326310             -14.4936
        29        2.0000           -0.5319595             -14.4754
        30        2.0000           -0.5221554             -14.2086 (HOMO)
        31                         -0.3878529             -10.5540 (LUMO)
        32                         -0.3291337              -8.9562
        33                         -0.2701761              -7.3519
        34                         -0.1747807              -4.7560
        35                         -0.1695394              -4.6134
        36                         -0.1564953              -4.2585
        37                         -0.1098786              -2.9900
        38                         -0.1018709              -2.7720
        39                         -0.1003588              -2.7309
        40                         -0.0999293              -2.7192
        41                         -0.0919440              -2.5019
       ...                                ...                  ...
        62                          0.7209834              19.6190
      -------------------------------------------------------------
                  HL-Gap            0.1343025 Eh            3.6546 eV

Wiberg/Mayer (AO) data.
largest (>0.10) Wiberg bond orders for each atom

     #   Z sym  total        # sym  WBO       # sym  WBO       # sym  WBO
 ---------------------------------------------------------------------------
     1   6 C    3.827 --    12 H    0.983    13 H    0.976    14 H    0.975
                             2 O    0.858
     2   8 O    2.258 --     3 C    1.192     1 C    0.858     4 O    0.160
     3   6 C    3.883 --     4 O    1.676     2 O    1.192     5 C    0.944
     4   8 O    1.981 --     3 C    1.676     2 O    0.160
     5   6 C    3.854 --    10 N    1.453     6 O    1.134     3 C    0.944
     6   8 O    2.386 --     5 C    1.134     7 C    1.084
     7   6 C    3.837 --     9 N    1.552     6 O    1.084     8 C    1.045
     8   6 C    3.968 --     7 C    1.045    15 H    0.976    17 H    0.951
                            16 H    0.943
     9   7 N    2.966 --     7 C    1.552    10 N    1.173
    10   7 N    3.669 --     5 C    1.453     9 N    1.173    11 C    0.908
    11   6 C    3.874 --    19 H    0.972    18 H    0.970    20 H    0.955
                            10 N    0.908
    12   1 H    1.004 --     1 C    0.983
    13   1 H    0.998 --     1 C    0.976
    14   1 H    0.998 --     1 C    0.975
    15   1 H    0.990 --     8 C    0.976
    16   1 H    0.988 --     8 C    0.943
    17   1 H    0.988 --     8 C    0.951
    18   1 H    1.000 --    11 C    0.970
    19   1 H    0.991 --    11 C    0.972
    20   1 H    0.988 --    11 C    0.955
 ---------------------------------------------------------------------------

           -------------------------------------------------
          | TOTAL ENERGY              -37.645430488882 Eh   |
          | GRADIENT NORM               0.000593257289 Eh/α |
          | HOMO-LUMO GAP               3.654557708176 eV   |
           -------------------------------------------------

 * finished run on 2023/06/20 at 14:55:27.106
