                         Program Version 5.0.1 -  RELEASE  -
|  1> # ORCA input file
|  2> ! SP r2SCAN-3c CPCM
|  3>
|  4> %maxcore 1875.0
|  5> %pal nprocs 4 end
|  6> %cpcm smd true SMDsolvent "DMSO" end
|  7>
|  8> *xyz 1 1
|  9> C      -1.164806    1.440680    0.473186
| 10> C      -0.640956    0.054751    0.062340
| 11> C      -1.551485   -0.618801   -0.978358
| 12> N      -0.453477   -0.779926    1.189730
| 13> N       0.759798   -1.097162    1.309076
| 14> C       1.441396   -0.495720    0.276992
| 15> C       2.942499   -0.627543    0.054694
| 16> O       3.582074   -1.371963    0.727788
| 17> Cl      3.537715    0.357923   -1.178607
| 18> O       0.674653    0.181210   -0.468480
| 19> H      -0.477176    1.881278    1.191663
| 20> H      -1.225742    2.064805   -0.415134
| 21> H      -2.149320    1.321074    0.919141
| 22> H      -1.124385   -1.580337   -1.255182
| 23> H      -2.536619   -0.756835   -0.539264
| 24> H      -1.614169    0.026567   -1.851208
| 25> **                         ****END OF INPUT****

CARTESIAN COORDINATES (ANGSTROEM)
---------------------------------
  C     -1.164806    1.440680    0.473186
  C     -0.640956    0.054751    0.062340
  C     -1.551485   -0.618801   -0.978358
  N     -0.453477   -0.779926    1.189730
  N      0.759798   -1.097162    1.309076
  C      1.441396   -0.495720    0.276992
  C      2.942499   -0.627543    0.054694
  O      3.582074   -1.371963    0.727788
  Cl     3.537715    0.357923   -1.178607
  O      0.674653    0.181210   -0.468480
  H     -0.477176    1.881278    1.191663
  H     -1.225742    2.064805   -0.415134
  H     -2.149320    1.321074    0.919141
  H     -1.124385   -1.580337   -1.255182
  H     -2.536619   -0.756835   -0.539264
  H     -1.614169    0.026567   -1.851208

 Total Charge           Charge          ....    1
 Multiplicity           Mult            ....    1
 Number of Electrons    NEL             ....   82
 Basis Dimension        Dim             ....  248

ORBITAL ENERGIES
----------------

  NO   OCC          E(Eh)            E(eV)
   0   2.0000    -101.288086     -2756.1889
   1   2.0000     -19.146637      -521.0065
   2   2.0000     -19.039902      -518.1021
   3   2.0000     -14.308721      -389.3601
   4   2.0000     -14.295901      -389.0112
   5   2.0000     -10.268318      -279.4151
   6   2.0000     -10.254767      -279.0464
   7   2.0000     -10.207237      -277.7530
   8   2.0000     -10.073129      -274.1038
   9   2.0000     -10.073123      -274.1036
  10   2.0000      -9.444495      -256.9978
  11   2.0000      -7.191063      -195.6788
  12   2.0000      -7.181530      -195.4194
  13   2.0000      -7.179033      -195.3514
  14   2.0000      -1.241297       -33.7774
  15   2.0000      -1.117522       -30.4093
  16   2.0000      -1.085471       -29.5372
  17   2.0000      -0.909202       -24.7406
  18   2.0000      -0.885599       -24.0984
  19   2.0000      -0.770648       -20.9704
  20   2.0000      -0.725853       -19.7515
  21   2.0000      -0.713782       -19.4230
  22   2.0000      -0.667938       -18.1755
  23   2.0000      -0.646831       -17.6012
  24   2.0000      -0.561721       -15.2852
  25   2.0000      -0.553829       -15.0705
  26   2.0000      -0.503046       -13.6886
  27   2.0000      -0.494195       -13.4477
  28   2.0000      -0.477386       -12.9903
  29   2.0000      -0.475419       -12.9368
  30   2.0000      -0.446500       -12.1499
  31   2.0000      -0.416878       -11.3438
  32   2.0000      -0.414446       -11.2777
  33   2.0000      -0.408095       -11.1048
  34   2.0000      -0.395086       -10.7508
  35   2.0000      -0.388475       -10.5709
  36   2.0000      -0.368236       -10.0202
  37   2.0000      -0.357368        -9.7245
  38   2.0000      -0.356807        -9.7092
  39   2.0000      -0.330681        -8.9983
  40   2.0000      -0.311853        -8.4859
  41   0.0000      -0.239314        -6.5121
  42   0.0000      -0.150475        -4.0946
  43   0.0000      -0.049794        -1.3550
  44   0.0000      -0.028334        -0.7710
  45   0.0000       0.029805         0.8110

MULLIKEN ATOMIC CHARGES
-----------------------
   0 C :   -0.389399
   1 C :   -0.017994
   2 C :   -0.385280
   3 N :    0.040493
   4 N :   -0.013896
   5 C :    0.516484
   6 C :    0.105656
   7 O :   -0.235525
   8 Cl:    0.049278
   9 O :    0.033813
  10 H :    0.203520
  11 H :    0.221003
  12 H :    0.224299
  13 H :    0.202458
  14 H :    0.224046
  15 H :    0.221044
Sum of atomic charges:    1.0000000

LOEWDIN ATOMIC CHARGES
----------------------
   0 C :   -0.251153
   1 C :    0.279853
   2 C :   -0.250449
   3 N :   -0.176271
   4 N :   -0.172808
   5 C :    0.523372
   6 C :    0.160598
   7 O :   -0.312393
   8 Cl:    0.342593
   9 O :   -0.335655
  10 H :    0.193711
  11 H :    0.198701
  12 H :    0.203924
  13 H :    0.193506
  14 H :    0.203781
  15 H :    0.198690

  Mayer bond orders larger than 0.100000
B(  0-C ,  1-C ) :   0.9751 B(  0-C , 10-H ) :   0.9076 B(  0-C , 11-H ) :   0.9352
B(  0-C , 12-H ) :   0.9275 B(  1-C ,  2-C ) :   0.9791 B(  1-C ,  3-N ) :   0.8251
B(  1-C ,  9-O ) :   0.7306 B(  2-C , 13-H ) :   0.9062 B(  2-C , 14-H ) :   0.9278
B(  2-C , 15-H ) :   0.9353 B(  3-N ,  4-N ) :   1.6972 B(  4-N ,  5-C ) :   1.0923
B(  5-C ,  6-C ) :   0.8837 B(  5-C ,  9-O ) :   1.4546 B(  6-C ,  7-O ) :   1.9513
B(  6-C ,  8-Cl) :   1.1543 B(  7-O ,  8-Cl) :   0.1287

Dispersion correction           -0.005346639
FINAL SINGLE POINT ENERGY      -913.913860945170

DIPOLE MOMENT
-------------
                                X             Y             Z
Electronic contribution:     15.91029      -1.90734      -0.88729
Nuclear contribution   :    -18.62901       3.13953      -0.07090
                        -----------------------------------------
Total Dipole Moment    :     -2.71872       1.23220      -0.95820
                        -----------------------------------------
Magnitude (a.u.)       :      3.13494
Magnitude (Debye)      :      7.96840

Rotational constants in cm-1:     0.077276     0.024725     0.021339
Rotational constants in MHz :  2316.688093   741.240516   639.737263

                             ****ORCA TERMINATED NORMALLY****
TOTAL RUN TIME: 0 days 0 hours 0 minutes 29 seconds 280 msec
