   * xtb version 6.5.1 (579679a) compiled by 'ehlert@majestix' on 2022-07-11
          program call               : /lustre/hpc/kemi/ree/PhD/git/ReactivityQM/dep/xtb-6.5.1/bin/xtb --gfn 1 /lustre/hpc/kemi/ree/PhD/git/ReactivityQM/calculations/RaltegravirCLI/reac01prodN04/conf02/RaltegravirCLI_reac01prodN04_conf02_gfn1.xyz --opt --vfukui --chrg 1 --uhf 0 --alpb DMSO

   ID    Z sym.   atoms
    1    6 C      1-3, 6, 7
    2    7 N      4, 5
    3    8 O      8, 10
    4   17 Cl     9
    5    1 H      11-16

      * Solvation model:               ALPB
        Solvent                        DMSO
        Solvent mass                       7.8130E+01 g/mol
          :  Hamiltonian                  GFN1-xTB          :
 * total energy  :   -33.3621298 Eh     change       -0.6394885E-12 Eh
 * total energy  :   -33.3681616 Eh     change       -0.6031848E-02 Eh
 * total energy  :   -33.3699417 Eh     change       -0.1780023E-02 Eh
 * total energy  :   -33.3701411 Eh     change       -0.1994234E-03 Eh
 * total energy  :   -33.3702165 Eh     change       -0.7540774E-04 Eh
 * total energy  :   -33.3702328 Eh     change       -0.1635143E-04 Eh
 * total energy  :   -33.3702359 Eh     change       -0.3050351E-05 Eh
   *** GEOMETRY OPTIMIZATION CONVERGED AFTER 7 ITERATIONS ***

 final structure:
================
16
 xtb: 6.5.1 (579679a)
C           -1.16480594166371        1.44068022080505        0.47318562995919
C           -0.64095625658726        0.05475141251532        0.06233980446380
C           -1.55148492202596       -0.61880139696811       -0.97835788390868
N           -0.45347741748016       -0.77992628184080        1.18973048056899
N            0.75979802786424       -1.09716247531552        1.30907633427275
C            1.44139562400336       -0.49572034990651        0.27699174320094
C            2.94249867495179       -0.62754292993176        0.05469405076984
O            3.58207437383450       -1.37196257922860        0.72778791538949
Cl           3.53771547510673        0.35792297010647       -1.17860747813153
O            0.67465321622549        0.18120993989997       -0.46847998288478
H           -0.47717617619744        1.88127774890156        1.19166318595142
H           -1.22574167587517        2.06480512535001       -0.41513434117815
H           -2.14932001916457        1.32107434560407        0.91914064619495
H           -1.12438521854075       -1.58033744927280       -1.25518200533869
H           -2.53661947753623       -0.75683481812349       -0.53926364452371
H           -1.61416928691483        0.02656651740513       -1.85120845480582

          :  Hamiltonian                  GFN1-xTB          :
         :: total energy             -33.370235899128 Eh    ::
         :: gradient norm              0.000555232141 Eh/a0 ::
         :: HOMO-LUMO gap              1.428578117777 eV    ::
         :: SCC energy               -33.644733223435 Eh    ::
         :: -> Gsolv                  -0.087583256788 Eh    ::
         :: repulsion energy           0.282108447246 Eh    ::

    * Orbital Energies and Occupations

         #    Occupation            Energy/Eh            Energy/eV
      -------------------------------------------------------------
         1        2.0000           -1.0020057             -27.2660
       ...           ...                  ...                  ...
        15        2.0000           -0.6407477             -17.4356
        16        2.0000           -0.6232686             -16.9600
        17        2.0000           -0.6141029             -16.7106
        18        2.0000           -0.5893940             -16.0382
        19        2.0000           -0.5875576             -15.9883
        20        2.0000           -0.5802645             -15.7898
        21        2.0000           -0.5762550             -15.6807
        22        2.0000           -0.5694261             -15.4949
        23        2.0000           -0.5567632             -15.1503
        24        2.0000           -0.5429929             -14.7756
        25        2.0000           -0.5320099             -14.4767
        26        2.0000           -0.5278874             -14.3645
        27        2.0000           -0.5170947             -14.0709 (HOMO)
        28                         -0.4645954             -12.6423 (LUMO)
        29                         -0.3886241             -10.5750
        30                         -0.3078918              -8.3782
        31                         -0.2539415              -6.9101
        32                         -0.1705742              -4.6416
        33                         -0.1648178              -4.4849
        34                         -0.1327264              -3.6117
        35                         -0.1271469              -3.4598
        36                         -0.1269758              -3.4552
        37                         -0.1204465              -3.2775
        38                         -0.1126073              -3.0642
       ...                                ...                  ...
        57                          0.7058528              19.2072
      -------------------------------------------------------------
                  HL-Gap            0.0524993 Eh            1.4286 eV

Wiberg/Mayer (AO) data.
largest (>0.10) Wiberg bond orders for each atom

     #   Z sym  total        # sym  WBO       # sym  WBO       # sym  WBO
 ---------------------------------------------------------------------------
     1   6 C    3.939 --    11 H    0.977    13 H    0.975    12 H    0.974
                             2 C    0.881
     2   6 C    3.811 --     4 N    1.079     1 C    0.881     3 C    0.880
                            10 O    0.865
     3   6 C    3.939 --    14 H    0.977    15 H    0.975    16 H    0.974
                             2 C    0.880
     4   7 N    2.999 --     5 N    1.670     2 C    1.079
     5   7 N    3.023 --     4 N    1.670     6 C    1.204
     6   6 C    3.798 --    10 O    1.376     5 N    1.204     7 C    0.931
     7   6 C    3.905 --     8 O    1.793     9 Cl   1.140     6 C    0.931
     8   8 O    2.074 --     7 C    1.793     9 Cl   0.201
     9  17 Cl   1.422 --     7 C    1.140     8 O    0.201
    10   8 O    2.427 --     6 C    1.376     2 C    0.865
    11   1 H    0.988 --     1 C    0.977
    12   1 H    0.989 --     1 C    0.974
    13   1 H    0.989 --     1 C    0.975
    14   1 H    0.988 --     3 C    0.977
    15   1 H    0.989 --     3 C    0.975
    16   1 H    0.989 --     3 C    0.974
 ---------------------------------------------------------------------------

           -------------------------------------------------
          | TOTAL ENERGY              -33.370235899128 Eh   |
          | GRADIENT NORM               0.000555232141 Eh/α |
          | HOMO-LUMO GAP               1.428578117777 eV   |
           -------------------------------------------------

 * finished run on 2023/06/20 at 14:54:56.238
