   * xtb version 6.5.1 (579679a) compiled by 'ehlert@majestix' on 2022-07-11
          program call               : /lustre/hpc/kemi/ree/PhD/git/ReactivityQM/dep/xtb-6.5.1/bin/xtb --gfn 1 /lustre/hpc/kemi/ree/PhD/git/ReactivityQM/calculations/R02methylcation/reac01prodE03/conf17/R02methylcation_reac01prodE03_conf17_gfn1.xyz --opt --vfukui --chrg -2 --uhf 0 --alpb DMSO

   ID    Z sym.   atoms
    1    6 C      1, 3, 5, 6, 8-11, 13, 15, 18, 19, 22, 24
    2    8 O      2, 4, 14, 20, 23, 25
    3    7 N      7, 12, 16, 17, 21
    4    1 H      26-42

      * Solvation model:               ALPB
        Solvent                        DMSO
        Solvent mass                       7.8130E+01 g/mol
          :  Hamiltonian                  GFN1-xTB          :
 * total energy  :   -83.5559157 Eh     change       -0.6934897E-11 Eh
 * total energy  :   -83.5693538 Eh     change       -0.1343805E-01 Eh
 * total energy  :   -83.5751335 Eh     change       -0.5779713E-02 Eh
 * total energy  :   -83.5766980 Eh     change       -0.1564498E-02 Eh
 * total energy  :   -83.5781309 Eh     change       -0.1432926E-02 Eh
 * total energy  :   -83.5790802 Eh     change       -0.9492693E-03 Eh
 * total energy  :   -83.5799189 Eh     change       -0.8387170E-03 Eh
 * total energy  :   -83.5806293 Eh     change       -0.7103497E-03 Eh
 * total energy  :   -83.5811136 Eh     change       -0.4843211E-03 Eh
 * total energy  :   -83.5814407 Eh     change       -0.3270934E-03 Eh
 * total energy  :   -83.5834723 Eh     change       -0.1522478E-04 Eh
 * total energy  :   -83.5834001 Eh     change        0.7226019E-04 Eh
 * total energy  :   -83.5834903 Eh     change       -0.9020628E-04 Eh
 * total energy  :   -83.5834953 Eh     change       -0.5004071E-05 Eh
 * total energy  :   -83.5835035 Eh     change       -0.8209264E-05 Eh
 * total energy  :   -83.5835097 Eh     change       -0.6251474E-05 Eh
 * total energy  :   -83.5835037 Eh     change        0.5983747E-05 Eh
 * total energy  :   -83.5835225 Eh     change       -0.1870984E-04 Eh
 * total energy  :   -83.5835263 Eh     change       -0.3885472E-05 Eh
   *** GEOMETRY OPTIMIZATION CONVERGED AFTER 59 ITERATIONS ***

 final structure:
================
42
 xtb: 6.5.1 (579679a)
C           -5.24499184692856       -2.04016968022853       -0.91523365601859
O           -5.08696900471293       -0.72653435167923       -0.38141487248226
C           -3.83368068437451       -0.15787196693514       -0.50973974839358
O           -3.66726900627911        0.60688177924324       -1.67303443823527
C           -4.65235185992671        1.59867852438545       -1.90361382765636
C           -2.78437683055410       -0.31022407316811        0.37619250277195
N           -1.64520785253528        0.44474650978630        0.08173505477849
C           -0.62331985433137        0.38973062938108        0.86700793392048
C            0.61321152692035        1.22603121196028        0.57940565356659
C            0.64571249059245        2.40305757086342        1.56829037540350
C            0.56658326094409        1.73772562106769       -0.86719403239380
N            1.77511708361060        0.35768660115529        0.80056644660977
C            3.06815229948812        0.79741373036096        0.47738580108661
O            3.38611192036358        2.00455909082921        0.41959241085482
C            3.95858557334119       -0.30285344943024        0.28784097571381
N            3.62867018466399       -1.59935064440253        0.31046894308132
N            4.77930510794231       -2.29648847082418        0.06159676741842
C            5.72732551516540       -1.43257936276883       -0.09769997733438
C            7.15487154345639       -1.71606772812822       -0.38889597533648
O            5.30677649738776       -0.15044622713469        0.02578055655755
N           -0.60300520268765       -0.37128921077785        1.99511380410942
C           -1.66115831126110       -1.20482068786646        2.39282531683953
O           -1.49930268563902       -1.87776720451073        3.44487621367190
C           -2.82635464138766       -1.19582896771136        1.53676741930233
O           -3.83098097938315       -1.94734764369921        1.78675029192698
H           -4.91696001917041       -2.08573108307535       -1.96066142800177
H           -6.30851769301829       -2.28015171704155       -0.86544902105378
H           -4.68058713190929       -2.77317729234817       -0.32539160236330
H           -4.41695948407115        2.07068560422162       -2.85920960828482
H           -5.65730344161860        1.16092813247593       -1.96154257511975
H           -4.64646526626276        2.36427791229239       -1.11454885261425
H           -0.27133725417531        2.98439271975323        1.47448730357184
H            1.49557515942647        3.05310924996695        1.36790199448984
H            0.72312682692974        2.02814048398319        2.58854135861522
H            0.59374583576442        0.89856004137689       -1.56222858869527
H           -0.36070279458098        2.28811894122967       -1.02544443600061
H            1.41051511018029        2.39555541000242       -1.06759189518497
H            1.61652380574847       -0.60757731317256        0.52650522945482
H            7.30537567395088       -2.79107940075746       -0.45438503104343
H            7.79208315798344       -1.31121290952564        0.39771682715215
H            7.45005767888984       -1.25355720291031       -1.33105504740396
H            0.22037759205735       -0.37814917624872        2.57602343272083

          :  Hamiltonian                  GFN1-xTB          :
         :: total energy             -83.583526345313 Eh    ::
         :: gradient norm              0.000693607401 Eh/a0 ::
         :: HOMO-LUMO gap              0.040319720964 eV    ::
         :: SCC energy               -84.305691257426 Eh    ::
         :: -> Gsolv                  -0.269486781662 Eh    ::
         :: repulsion energy           0.747365462230 Eh    ::

    * Orbital Energies and Occupations

         #    Occupation            Energy/Eh            Energy/eV
      -------------------------------------------------------------
         1        2.0000           -0.8011517             -21.8004
       ...           ...                  ...                  ...
        56        2.0000           -0.4357005             -11.8560
        57        2.0000           -0.4297189             -11.6932
        58        2.0000           -0.4238505             -11.5336
        59        2.0000           -0.4083828             -11.1127
        60        2.0000           -0.4057850             -11.0420
        61        2.0000           -0.4044323             -11.0052
        62        2.0000           -0.4033419             -10.9755
        63        2.0000           -0.3975209             -10.8171
        64        2.0000           -0.3887470             -10.5783
        65        2.0000           -0.3775954             -10.2749
        66        2.0000           -0.3464881              -9.4284
        67        2.0000           -0.3424486              -9.3185
        68        1.3713           -0.2685975              -7.3089 (HOMO)
        69        0.6287           -0.2671158              -7.2686 (LUMO)
        70                         -0.2101384              -5.7182
        71                         -0.2067064              -5.6248
        72                         -0.1796945              -4.8897
        73                         -0.1405417              -3.8243
        74                         -0.1243113              -3.3827
        75                         -0.1133496              -3.0844
        76                         -0.1033735              -2.8129
        77                         -0.0977033              -2.6586
        78                         -0.0924647              -2.5161
        79                         -0.0762699              -2.0754
       ...                                ...                  ...
       134                          0.7274816              19.7958
      -------------------------------------------------------------
                  HL-Gap            0.0014817 Eh            0.0403 eV

Wiberg/Mayer (AO) data.
largest (>0.10) Wiberg bond orders for each atom

     #   Z sym  total        # sym  WBO       # sym  WBO       # sym  WBO
 ---------------------------------------------------------------------------
     1   6 C    3.902 --    27 H    0.987    26 H    0.984    28 H    0.978
                             2 O    0.923
     2   8 O    2.020 --     3 C    0.964     1 C    0.923
     3   6 C    3.543 --     6 C    1.464     2 O    0.964     4 O    0.936
     4   8 O    2.011 --     5 C    0.943     3 C    0.936
     5   6 C    3.915 --    29 H    0.986    31 H    0.981    30 H    0.981
                             4 O    0.943
     6   6 C    3.942 --     3 C    1.464    24 C    1.121     7 N    1.108
     7   7 N    2.963 --     8 C    1.581     6 C    1.108    21 N    0.112
     8   6 C    3.914 --     7 N    1.581    21 N    1.160     9 C    0.974
     9   6 C    3.950 --    11 C    0.991    10 C    0.985     8 C    0.974
                            12 N    0.939
    10   6 C    3.991 --    32 H    0.988    34 H    0.986     9 C    0.985
                            33 H    0.980
    11   6 C    3.993 --     9 C    0.991    35 H    0.986    36 H    0.985
                            37 H    0.984
    12   7 N    3.141 --    13 C    1.077     9 C    0.939    38 H    0.918
                            14 O    0.107
    13   6 C    3.748 --    14 O    1.448    15 C    1.155    12 N    1.077
    14   8 O    1.690 --    13 C    1.448    12 N    0.107
    15   6 C    3.693 --    16 N    1.391    13 C    1.155    20 O    0.977
    16   7 N    2.742 --    15 C    1.391    17 N    1.185
    17   7 N    2.980 --    18 C    1.629    16 N    1.185
    18   6 C    3.820 --    17 N    1.629    20 O    1.049    19 C    1.024
    19   6 C    3.994 --    18 C    1.024    39 H    0.986    40 H    0.971
                            41 H    0.971
    20   8 O    2.183 --    18 C    1.049    15 C    0.977
    21   7 N    3.385 --     8 C    1.160    22 C    1.040    42 H    0.907
                             7 N    0.112
    22   6 C    3.778 --    23 O    1.423    24 C    1.147    21 N    1.040
    23   8 O    1.648 --    22 C    1.423
    24   6 C    3.809 --    25 O    1.374    22 C    1.147     6 C    1.121
    25   8 O    1.602 --    24 C    1.374
    26   1 H    1.015 --     1 C    0.984
    27   1 H    1.020 --     1 C    0.987
    28   1 H    1.043 --     1 C    0.978
    29   1 H    1.020 --     5 C    0.986
    30   1 H    1.021 --     5 C    0.981
    31   1 H    1.013 --     5 C    0.981
    32   1 H    1.008 --    10 C    0.988
    33   1 H    1.022 --    10 C    0.980
    34   1 H    1.010 --    10 C    0.986
    35   1 H    1.011 --    11 C    0.986
    36   1 H    1.021 --    11 C    0.985
    37   1 H    1.015 --    11 C    0.984
    38   1 H    0.980 --    12 N    0.918
    39   1 H    1.004 --    19 C    0.986
    40   1 H    1.001 --    19 C    0.971
    41   1 H    1.001 --    19 C    0.971
    42   1 H    0.966 --    21 N    0.907
 ---------------------------------------------------------------------------

           -------------------------------------------------
          | TOTAL ENERGY              -83.583526345313 Eh   |
          | GRADIENT NORM               0.000693607401 Eh/α |
          | HOMO-LUMO GAP               0.040319720964 eV   |
           -------------------------------------------------

 * finished run on 2023/06/21 at 17:07:38.046
