   * xtb version 6.5.1 (579679a) compiled by 'ehlert@majestix' on 2022-07-11
          program call               : /lustre/hpc/kemi/ree/PhD/git/ReactivityQM/dep/xtb-6.5.1/bin/xtb --gfn 1 /lustre/hpc/kemi/ree/PhD/git/ReactivityQM/calculations/R02methylcation/reac01prodE08/conf19/R02methylcation_reac01prodE08_conf19_gfn1.xyz --opt --vfukui --chrg -2 --uhf 0 --alpb DMSO

   ID    Z sym.   atoms
    1    6 C      1, 3, 5, 7-10, 12, 14, 15, 18, 19, 22, 24
    2    8 O      2, 4, 13, 20, 23, 25
    3    7 N      6, 11, 16, 17, 21
    4    1 H      26-42

      * Solvation model:               ALPB
        Solvent                        DMSO
        Solvent mass                       7.8130E+01 g/mol
          :  Hamiltonian                  GFN1-xTB          :
 * total energy  :   -83.6197173 Eh     change       -0.2238352E-09 Eh
 * total energy  :   -83.6344176 Eh     change       -0.1470029E-01 Eh
 * total energy  :   -83.6405149 Eh     change       -0.6097241E-02 Eh
 * total energy  :   -83.6419403 Eh     change       -0.1425408E-02 Eh
 * total energy  :   -83.6429810 Eh     change       -0.1040751E-02 Eh
 * total energy  :   -83.6435038 Eh     change       -0.5227546E-03 Eh
 * total energy  :   -83.6440060 Eh     change       -0.5022529E-03 Eh
 * total energy  :   -83.6444308 Eh     change       -0.4247728E-03 Eh
 * total energy  :   -83.6448831 Eh     change       -0.4523069E-03 Eh
 * total energy  :   -83.6455075 Eh     change       -0.6243987E-03 Eh
 * total energy  :   -83.6718831 Eh     change       -0.3088112E-04 Eh
 * total energy  :   -83.6719401 Eh     change       -0.5693959E-04 Eh
 * total energy  :   -83.6719960 Eh     change       -0.5593016E-04 Eh
 * total energy  :   -83.6720265 Eh     change       -0.3048876E-04 Eh
 * total energy  :   -83.6720609 Eh     change       -0.3445844E-04 Eh
 * total energy  :   -83.6720775 Eh     change       -0.1652726E-04 Eh
 * total energy  :   -83.6720892 Eh     change       -0.1178099E-04 Eh
 * total energy  :   -83.6720958 Eh     change       -0.6541655E-05 Eh
 * total energy  :   -83.6721004 Eh     change       -0.4574239E-05 Eh
   *** GEOMETRY OPTIMIZATION CONVERGED AFTER 46 ITERATIONS ***

 final structure:
================
42
 xtb: 6.5.1 (579679a)
C            6.37227963440092        1.10756418694924        1.39170722300090
O            5.26941307243561        1.19348655677343        0.50618874919278
C            4.24661754232224        0.32203145507555        0.74869684788766
O            4.31998023747291       -0.45885815667941        1.69514190093689
C            3.13846663063223        0.40775316859688       -0.18174123867711
N            2.13808767805626       -0.51508115461045        0.08637586293969
C            1.09457590571982       -0.59099422409408       -0.65956615981471
C            0.02285261656445       -1.63590709486905       -0.37675185806958
C            0.41012286006928       -2.38972819491589        0.90701816095079
C           -0.02339530727659       -2.64416058004499       -1.54294425073205
N           -1.27938555949793       -1.02565922577092       -0.10070614260934
C           -1.99763146506456       -0.52669760588905       -1.06102387430233
O           -1.76490881796942       -0.39650362007412       -2.29210582312842
C           -3.40099608189791       -0.02947151014522       -0.55553768285552
C           -4.49845291183400       -0.45945353395437       -1.52950355953684
N           -3.70192552869359       -0.51584841995873        0.80340450827802
N           -3.79947626376007        0.63930819193362        1.63360421913069
C           -3.66059870388587        1.65291163682146        0.87831353772163
C           -3.75540724063453        3.07177767134852        1.31742729796523
O           -3.42106143601836        1.40529789704529       -0.42675101998953
N            0.93034321074731        0.23870518009564       -1.74589393601599
C            1.82104600589617        1.19820099721997       -2.11869017136237
O            1.59905022626200        1.90619116272203       -3.10631092813189
C            3.06445656080159        1.31805407361787       -1.26654617778955
O            3.91627441204792        2.18255217575190       -1.56789228723833
H            6.81235771607996        0.10484776748108        1.37267344859472
H            6.06920405145072        1.33592895047014        2.41911411817570
H            7.11062681852143        1.83635564313846        1.05842205915174
H            1.37892838836824       -2.87712401142559        0.79542713865406
H            0.46144701262122       -1.69273000700703        1.74416864646443
H           -0.34591759517070       -3.14245986092568        1.12620826780867
H            0.92635518726721       -3.17681727970291       -1.60415570221637
H           -0.81957713203957       -3.36829819454886       -1.37245845484830
H           -0.20341097976858       -2.14646228888351       -2.49421292297534
H           -2.88725788641863       -1.04917742454415        1.14837495857826
H           -5.45034925139294       -0.01601290717660       -1.24366927172226
H           -4.23745694185525       -0.14133060742678       -2.53828221720651
H           -4.58931577989399       -1.54379420563024       -1.50703505709019
H           -4.58795530643841        3.56065527038469        0.81101244679886
H           -2.84229773877262        3.61080912202693        1.06221587390022
H           -3.91579719483493        3.11376106890941        2.39218438302344
H            0.08009035538584        0.13637993191570       -2.30156091285926

          :  Hamiltonian                  GFN1-xTB          :
         :: total energy             -83.672100356504 Eh    ::
         :: gradient norm              0.000812971477 Eh/a0 ::
         :: HOMO-LUMO gap              2.480810466799 eV    ::
         :: SCC energy               -84.409542400878 Eh    ::
         :: -> Gsolv                  -0.265337783484 Eh    ::
         :: repulsion energy           0.763775391167 Eh    ::

    * Orbital Energies and Occupations

         #    Occupation            Energy/Eh            Energy/eV
      -------------------------------------------------------------
         1        2.0000           -0.7906248             -21.5140
       ...           ...                  ...                  ...
        56        2.0000           -0.4449477             -12.1076
        57        2.0000           -0.4420300             -12.0282
        58        2.0000           -0.4336460             -11.8001
        59        2.0000           -0.4240183             -11.5381
        60        2.0000           -0.4224815             -11.4963
        61        2.0000           -0.4135069             -11.2521
        62        2.0000           -0.3935683             -10.7095
        63        2.0000           -0.3928634             -10.6904
        64        2.0000           -0.3645609              -9.9202
        65        2.0000           -0.3584389              -9.7536
        66        2.0000           -0.3506410              -9.5414
        67        2.0000           -0.3482762              -9.4771
        68        2.0000           -0.3431570              -9.3378 (HOMO)
        69                         -0.2519889              -6.8570 (LUMO)
        70                         -0.2152130              -5.8562
        71                         -0.2112898              -5.7495
        72                         -0.1789441              -4.8693
        73                         -0.1679652              -4.5706
        74                         -0.1261175              -3.4318
        75                         -0.1166737              -3.1749
        76                         -0.0966460              -2.6299
        77                         -0.0910789              -2.4784
        78                         -0.0884405              -2.4066
        79                         -0.0848900              -2.3100
       ...                                ...                  ...
       134                          0.7620290              20.7359
      -------------------------------------------------------------
                  HL-Gap            0.0911681 Eh            2.4808 eV

Wiberg/Mayer (AO) data.
largest (>0.10) Wiberg bond orders for each atom

     #   Z sym  total        # sym  WBO       # sym  WBO       # sym  WBO
 ---------------------------------------------------------------------------
     1   6 C    3.905 --    28 H    0.987    27 H    0.980    26 H    0.980
                             2 O    0.933
     2   8 O    2.148 --     3 C    1.029     1 C    0.933     4 O    0.104
     3   6 C    3.847 --     4 O    1.560     5 C    1.135     2 O    1.029
     4   8 O    1.839 --     3 C    1.560     2 O    0.104
     5   6 C    3.919 --    24 C    1.280     6 N    1.142     3 C    1.135
                            25 O    0.128
     6   7 N    3.018 --     7 C    1.625     5 C    1.142
     7   6 C    3.926 --     6 N    1.625    21 N    1.109     8 C    0.968
     8   6 C    3.973 --     9 C    0.996    10 C    0.977    11 N    0.970
                             7 C    0.968
     9   6 C    3.997 --     8 C    0.996    31 H    0.988    29 H    0.987
                            30 H    0.985
    10   6 C    3.994 --    32 H    0.988    33 H    0.986    34 H    0.980
                             8 C    0.977
    11   7 N    2.931 --    12 C    1.558     8 C    0.970    13 O    0.211
    12   6 C    3.936 --    11 N    1.558    13 O    1.402    14 C    0.889
    13   8 O    1.807 --    12 C    1.402    11 N    0.211
    14   6 C    3.840 --    15 C    0.992    16 N    0.960    12 C    0.889
                            20 O    0.881
    15   6 C    3.996 --    14 C    0.992    36 H    0.987    38 H    0.986
                            37 H    0.983
    16   7 N    3.032 --    17 N    1.006    14 C    0.960    35 H    0.908
    17   7 N    2.968 --    18 C    1.747    16 N    1.006    20 O    0.124
    18   6 C    3.904 --    17 N    1.747    20 O    1.050    19 C    1.017
    19   6 C    3.994 --    18 C    1.017    41 H    0.986    40 H    0.972
                            39 H    0.971
    20   8 O    2.144 --    18 C    1.050    14 C    0.881    17 N    0.124
    21   7 N    3.451 --    22 C    1.197     7 C    1.109    42 H    0.858
                            23 O    0.138
    22   6 C    3.889 --    23 O    1.547    21 N    1.197    24 C    0.974
    23   8 O    1.828 --    22 C    1.547    21 N    0.138
    24   6 C    3.944 --    25 O    1.498     5 C    1.280    22 C    0.974
    25   8 O    1.801 --    24 C    1.498     5 C    0.128
    26   1 H    1.016 --     1 C    0.980
    27   1 H    1.016 --     1 C    0.980
    28   1 H    1.017 --     1 C    0.987
    29   1 H    1.017 --     9 C    0.987
    30   1 H    1.022 --     9 C    0.985
    31   1 H    1.014 --     9 C    0.988
    32   1 H    1.008 --    10 C    0.988
    33   1 H    1.007 --    10 C    0.986
    34   1 H    1.022 --    10 C    0.980
    35   1 H    1.013 --    16 N    0.908
    36   1 H    1.011 --    15 C    0.987
    37   1 H    1.019 --    15 C    0.983
    38   1 H    1.011 --    15 C    0.986
    39   1 H    1.003 --    19 C    0.971
    40   1 H    1.002 --    19 C    0.972
    41   1 H    1.005 --    19 C    0.986
    42   1 H    0.957 --    21 N    0.858
 ---------------------------------------------------------------------------

           -------------------------------------------------
          | TOTAL ENERGY              -83.672100356504 Eh   |
          | GRADIENT NORM               0.000812971477 Eh/α |
          | HOMO-LUMO GAP               2.480810466799 eV   |
           -------------------------------------------------

 * finished run on 2023/06/21 at 17:18:51.720
