   * xtb version 6.5.1 (579679a) compiled by 'ehlert@majestix' on 2022-07-11
          program call               : /lustre/hpc/kemi/ree/PhD/git/ReactivityQM/dep/xtb-6.5.1/bin/xtb --gfn 1 /lustre/hpc/kemi/ree/PhD/git/ReactivityQM/calculations/R02oxygendeprot/reac01prodN12/conf09/R02oxygendeprot_reac01prodN12_conf09_gfn1.xyz --opt --vfukui --chrg 0 --uhf 0 --alpb DMSO

   ID    Z sym.   atoms
    1    6 C      1, 3, 5, 7-10, 12, 14, 15, 18, 19, 22, 24
    2    8 O      2, 4, 13, 20, 23, 25
    3    7 N      6, 11, 16, 17, 21
    4    1 H      26-42

      * Solvation model:               ALPB
        Solvent                        DMSO
        Solvent mass                       7.8130E+01 g/mol
          :  Hamiltonian                  GFN1-xTB          :
 * total energy  :   -82.9329205 Eh     change       -0.3918217E-09 Eh
 * total energy  :   -82.9430819 Eh     change       -0.1016148E-01 Eh
 * total energy  :   -82.9469021 Eh     change       -0.3820187E-02 Eh
 * total energy  :   -82.9474942 Eh     change       -0.5921186E-03 Eh
 * total energy  :   -82.9478780 Eh     change       -0.3837735E-03 Eh
 * total energy  :   -82.9480180 Eh     change       -0.1399942E-03 Eh
 * total energy  :   -82.9481052 Eh     change       -0.8720802E-04 Eh
 * total energy  :   -82.9481728 Eh     change       -0.6755166E-04 Eh
 * total energy  :   -82.9482383 Eh     change       -0.6551265E-04 Eh
 * total energy  :   -82.9483071 Eh     change       -0.6886312E-04 Eh
 * total energy  :   -82.9492238 Eh     change       -0.2157483E-04 Eh
 * total energy  :   -82.9492425 Eh     change       -0.1876008E-04 Eh
 * total energy  :   -82.9492435 Eh     change       -0.9818898E-06 Eh
 * total energy  :   -82.9492700 Eh     change       -0.2646001E-04 Eh
 * total energy  :   -82.9492803 Eh     change       -0.1028132E-04 Eh
 * total energy  :   -82.9492876 Eh     change       -0.7346035E-05 Eh
 * total energy  :   -82.9492954 Eh     change       -0.7758354E-05 Eh
 * total energy  :   -82.9493055 Eh     change       -0.1016788E-04 Eh
 * total energy  :   -82.9493085 Eh     change       -0.2957528E-05 Eh
   *** GEOMETRY OPTIMIZATION CONVERGED AFTER 48 ITERATIONS ***

 final structure:
================
42
 xtb: 6.5.1 (579679a)
C            6.23153723342305       -1.19327305616429        2.23476783738353
O            5.32585810557817       -1.08911786092898        1.13735749368707
C            4.17788570443505       -0.44499389116800        1.37684648641521
O            3.91461350662092        0.03295458578092        2.46427898470261
C            3.27210255322220       -0.36536062766105        0.20943793414276
N            2.12312605718565        0.30446309415986        0.47310315967909
C            1.21370583496234        0.46534079372303       -0.43847605351563
C           -0.02725792827091        1.26706411763300       -0.10006559777395
C           -0.19658225579327        2.45156592405089       -1.05733876163161
C            0.06394711667835        1.76415440022037        1.34327021754271
N           -1.22638300370619        0.39334991301741       -0.15778188630656
C           -1.80909633299549       -0.03614378014107       -1.26680678938274
O           -1.42358919438119        0.09171205599724       -2.40927228870496
C           -3.15294495128026       -0.82598660984342       -1.01857611944637
C           -2.99738391564182       -2.22985037793913       -1.60484939973202
N           -4.20645022520750       -0.08451568400292       -1.63135041476918
N           -5.04316918151586        0.28216430942744       -0.71560557184519
C           -4.61868367428634       -0.18554360920896        0.45830796721490
C           -5.28497998488079       -0.00544475665355        1.75454722290371
O           -3.49478850746073       -0.86335811902998        0.35131240347751
N            1.36370367479696       -0.03217071340243       -1.69609717216759
C            2.46582375507631       -0.75005718941494       -2.11540408449194
O            2.51834228779287       -1.18264843533077       -3.25314476045048
C            3.55488078889335       -0.93422490350336       -1.07778138915770
O            4.58073329914942       -1.54274693126377       -1.38697696404833
H            7.12055094704805       -1.69980844516788        1.86266442111413
H            6.49192818927115       -0.19933854809622        2.60852267810318
H            5.77938447774310       -1.77222233175282        3.04445728618177
H            0.64794292778503        3.12865153539670       -0.93747997027481
H           -1.11460062754657        2.98443398526298       -0.81694822058172
H           -0.23977794439587        2.12506210162630       -2.09387214608808
H            0.91796997458574        2.43178657539129        1.44644865055899
H            0.19632638939282        0.92451973680802        2.02376863975183
H           -0.84418990615135        2.30211757691575        1.60646251475020
H           -1.65829785502646        0.18012357492846        0.72641511714546
H           -3.94194835266440       -2.76051046238717       -1.51384742451211
H           -2.22395442890127       -2.76532480545424       -1.05964409259340
H           -2.72014388211039       -2.13765953727935       -2.65309484687545
H           -5.74800281891808       -0.94797256707013        2.05551736961189
H           -4.55369527197196        0.25588915736720        2.51841495669098
H           -6.05183078798640        0.76160593657124        1.68008620705528
H            0.61738820743996        0.08523586860039       -2.37157059376972

          :  Hamiltonian                  GFN1-xTB          :
         :: total energy             -82.949308481971 Eh    ::
         :: gradient norm              0.000454517535 Eh/a0 ::
         :: HOMO-LUMO gap              0.080302036269 eV    ::
         :: SCC energy               -83.717340198706 Eh    ::
         :: -> Gsolv                  -0.076349874553 Eh    ::
         :: repulsion energy           0.794513771013 Eh    ::

    * Orbital Energies and Occupations

         #    Occupation            Energy/Eh            Energy/eV
      -------------------------------------------------------------
         1        2.0000           -0.8894710             -24.2037
       ...           ...                  ...                  ...
        55        2.0000           -0.5149068             -14.0113
        56        2.0000           -0.5069532             -13.7949
        57        2.0000           -0.5062821             -13.7766
        58        2.0000           -0.4941046             -13.4453
        59        2.0000           -0.4875175             -13.2660
        60        2.0000           -0.4859750             -13.2241
        61        2.0000           -0.4775742             -12.9955
        62        2.0000           -0.4757568             -12.9460
        63        2.0000           -0.4721747             -12.8485
        64        2.0000           -0.4666723             -12.6988
        65        2.0000           -0.4505862             -12.2611
        66        2.0000           -0.4141691             -11.2701
        67        1.6507           -0.3996125             -10.8740 (HOMO)
        68        0.3493           -0.3966615             -10.7937 (LUMO)
        69                         -0.3010116              -8.1909
        70                         -0.2908397              -7.9142
        71                         -0.2797047              -7.6112
        72                         -0.2749326              -7.4813
        73                         -0.2270337              -6.1779
        74                         -0.1584157              -4.3107
        75                         -0.1473758              -4.0103
        76                         -0.1416473              -3.8544
        77                         -0.1335468              -3.6340
        78                         -0.1315135              -3.5787
       ...                                ...                  ...
       134                          0.7482867              20.3619
      -------------------------------------------------------------
                  HL-Gap            0.0029510 Eh            0.0803 eV

Wiberg/Mayer (AO) data.
largest (>0.10) Wiberg bond orders for each atom

     #   Z sym  total        # sym  WBO       # sym  WBO       # sym  WBO
 ---------------------------------------------------------------------------
     1   6 C    3.880 --    26 H    0.986    27 H    0.979    28 H    0.979
                             2 O    0.906
     2   8 O    2.187 --     3 C    1.097     1 C    0.906     4 O    0.127
     3   6 C    3.841 --     4 O    1.623     2 O    1.097     5 C    1.037
     4   8 O    1.870 --     3 C    1.623     2 O    0.127
     5   6 C    3.737 --     6 N    1.267    24 C    1.184     3 C    1.037
     6   7 N    2.995 --     7 C    1.506     5 C    1.267
     7   6 C    3.818 --     6 N    1.506    21 N    1.178     8 C    0.977
     8   6 C    3.919 --    10 C    1.000     9 C    0.987     7 C    0.977
                            11 N    0.887
     9   6 C    3.984 --     8 C    0.987    30 H    0.983    29 H    0.983
                            31 H    0.978
    10   6 C    3.987 --     8 C    1.000    34 H    0.985    33 H    0.981
                            32 H    0.981
    11   7 N    3.365 --    12 C    1.340     8 C    0.887    35 H    0.886
                            13 O    0.175
    12   6 C    3.874 --    13 O    1.607    11 N    1.340    14 C    0.820
    13   8 O    1.968 --    12 C    1.607    11 N    0.175
    14   6 C    3.847 --    16 N    1.055    15 C    0.934    20 O    0.904
                            12 C    0.820
    15   6 C    3.939 --    37 H    0.982    36 H    0.980    38 H    0.978
                            14 C    0.934
    16   7 N    2.680 --    17 N    1.474    14 C    1.055
    17   7 N    2.968 --    16 N    1.474    18 C    1.348
    18   6 C    3.682 --    17 N    1.348    20 O    1.160    19 C    1.054
    19   6 C    3.972 --    18 C    1.054    41 H    0.977    40 H    0.955
                            39 H    0.933
    20   8 O    2.234 --    18 C    1.160    14 C    0.904
    21   7 N    3.426 --     7 C    1.178    22 C    1.124    42 H    0.865
                            23 O    0.117
    22   6 C    3.848 --    23 O    1.634    21 N    1.124    24 C    0.952
    23   8 O    1.864 --    22 C    1.634    21 N    0.117
    24   6 C    3.879 --    25 O    1.594     5 C    1.184    22 C    0.952
    25   8 O    1.789 --    24 C    1.594
    26   1 H    1.012 --     1 C    0.986
    27   1 H    1.009 --     1 C    0.979
    28   1 H    1.008 --     1 C    0.979
    29   1 H    0.999 --     9 C    0.983
    30   1 H    0.998 --     9 C    0.983
    31   1 H    1.005 --     9 C    0.978
    32   1 H    1.005 --    10 C    0.981
    33   1 H    1.006 --    10 C    0.981
    34   1 H    0.998 --    10 C    0.985
    35   1 H    0.933 --    11 N    0.886
    36   1 H    0.994 --    15 C    0.980
    37   1 H    0.995 --    15 C    0.982
    38   1 H    1.000 --    15 C    0.978
    39   1 H    0.977 --    19 C    0.933
    40   1 H    0.984 --    19 C    0.955
    41   1 H    0.993 --    19 C    0.977
    42   1 H    0.938 --    21 N    0.865
 ---------------------------------------------------------------------------

           -------------------------------------------------
          | TOTAL ENERGY              -82.949308481971 Eh   |
          | GRADIENT NORM               0.000454517535 Eh/α |
          | HOMO-LUMO GAP               0.080302036269 eV   |
           -------------------------------------------------

 * finished run on 2023/06/21 at 17:27:37.165
