   * xtb version 6.5.1 (579679a) compiled by 'ehlert@majestix' on 2022-07-11
          program call               : /lustre/hpc/kemi/ree/PhD/git/ReactivityQM/dep/xtb-6.5.1/bin/xtb --gfn 1 /lustre/hpc/kemi/ree/PhD/git/ReactivityQM/calculations/R02oxygendeprot/reac01prodN07/conf09/R02oxygendeprot_reac01prodN07_conf09_gfn1.xyz --opt --vfukui --chrg 0 --uhf 0 --alpb DMSO

   ID    Z sym.   atoms
    1    6 C      1, 3, 5, 7-10, 12, 14, 17-19, 22, 24
    2    8 O      2, 4, 13, 20, 23, 25
    3    7 N      6, 11, 15, 16, 21
    4    1 H      26-42

      * Solvation model:               ALPB
        Solvent                        DMSO
        Solvent mass                       7.8130E+01 g/mol
          :  Hamiltonian                  GFN1-xTB          :
 * total energy  :   -82.9529189 Eh     change       -0.4121148E-11 Eh
 * total energy  :   -82.9696203 Eh     change       -0.1670147E-01 Eh
 * total energy  :   -82.9762568 Eh     change       -0.6636491E-02 Eh
 * total energy  :   -82.9771710 Eh     change       -0.9141851E-03 Eh
 * total energy  :   -82.9777224 Eh     change       -0.5513876E-03 Eh
 * total energy  :   -82.9779339 Eh     change       -0.2114809E-03 Eh
 * total energy  :   -82.9781890 Eh     change       -0.2551710E-03 Eh
 * total energy  :   -82.9783810 Eh     change       -0.1919798E-03 Eh
 * total energy  :   -82.9785247 Eh     change       -0.1436915E-03 Eh
 * total energy  :   -82.9786492 Eh     change       -0.1245371E-03 Eh
 * total energy  :   -82.9793905 Eh     change       -0.9744408E-05 Eh
 * total energy  :   -82.9794042 Eh     change       -0.1372115E-04 Eh
 * total energy  :   -82.9794092 Eh     change       -0.5004355E-05 Eh
 * total energy  :   -82.9794210 Eh     change       -0.1172541E-04 Eh
 * total energy  :   -82.9794261 Eh     change       -0.5104501E-05 Eh
 * total energy  :   -82.9794388 Eh     change       -0.1273781E-04 Eh
 * total energy  :   -82.9794445 Eh     change       -0.5730323E-05 Eh
 * total energy  :   -82.9794518 Eh     change       -0.7306211E-05 Eh
 * total energy  :   -82.9794550 Eh     change       -0.3177527E-05 Eh
   *** GEOMETRY OPTIMIZATION CONVERGED AFTER 30 ITERATIONS ***

 final structure:
================
42
 xtb: 6.5.1 (579679a)
C            6.72794826671983       -0.05758350709411        2.26616279964275
O            5.63431991781807        0.55396898371785        1.59488653915851
C            4.68170886625484       -0.28854009547257        1.12682375795536
O            4.78514334025414       -1.49929580502904        1.28470871740482
C            3.57239617432831        0.36432381015465        0.44496767048283
N            2.62962761829630       -0.53596541842375       -0.01520669629019
C            1.58835715004541       -0.13266677036914       -0.63776503927004
C            0.58320271857964       -1.12662813014010       -1.17766175526302
C            0.80306179533822       -2.49501410322308       -0.52841427494428
C            0.71037534104704       -1.20408738615957       -2.70540861977682
N           -0.76504187766432       -0.62715910426058       -0.82487791090511
C           -1.89438602513706       -1.23672497693288       -1.18811562073484
O           -2.01334459237029       -2.26003244312624       -1.83209118083990
C           -3.12018522164729       -0.50292288105870       -0.70759129586553
N           -4.35869718141066       -0.84913006972264       -0.88908286341996
N           -5.08024140750523        0.11470105867903       -0.28832679684949
C           -6.52694208853856        0.05008761378747       -0.28837787710954
C           -4.27964652414923        1.01665813232470        0.23975246570456
C           -4.62520325128302        2.23098712124803        0.99501277910029
O           -3.03867596977069        0.64950346581513       -0.01077426295427
N            1.36342167612535        1.20703055642026       -0.89924027710845
C            2.20625816941363        2.21165392189187       -0.48650000947963
O            1.92640079052916        3.37906478825168       -0.73963055789387
C            3.44588423816614        1.76662443395604        0.26034740790546
O            4.24483959883529        2.63567864996371        0.64968433867222
H            7.26257929415341       -0.73801130422729        1.59583879342383
H            6.37987805684884       -0.62191083944478        3.13686233785901
H            7.39364517159035        0.74297354037418        2.58720328118343
H            0.63221068551734       -2.42666535352404        0.54471502036647
H            1.83273094127586       -2.80703351454866       -0.70029550277723
H            0.12660587660808       -3.23292161134248       -0.95392651810062
H            0.01558066123092       -1.93526418633588       -3.11293138203360
H            0.49978015540843       -0.23143070451603       -3.14599451857006
H            1.72683519770794       -1.49955812990385       -2.96334447021960
H           -0.83101964779923        0.20184821882577       -0.25801323169875
H           -6.82316011695763       -0.80111832531066       -0.89585386196300
H           -6.92143825511596        0.97516220016192       -0.70449115691398
H           -6.87560769724936       -0.07128978180555        0.73576587537953
H           -4.97632085738931        1.95441547640120        1.99188235442405
H           -5.43085099451056        2.76717570455515        0.49345695067054
H           -3.74724574080990        2.86796511395108        1.08851777657442
H            0.53521774721379        1.49113265148922       -1.39074318492897

          :  Hamiltonian                  GFN1-xTB          :
         :: total energy             -82.979455008675 Eh    ::
         :: gradient norm              0.000606781693 Eh/a0 ::
         :: HOMO-LUMO gap              0.426754238466 eV    ::
         :: SCC energy               -83.768415281641 Eh    ::
         :: -> Gsolv                  -0.130960843330 Eh    ::
         :: repulsion energy           0.813852474909 Eh    ::

    * Orbital Energies and Occupations

         #    Occupation            Energy/Eh            Energy/eV
      -------------------------------------------------------------
         1        2.0000           -0.9358644             -25.4662
       ...           ...                  ...                  ...
        55        2.0000           -0.5054627             -13.7543
        56        2.0000           -0.5017166             -13.6524
        57        2.0000           -0.4967324             -13.5168
        58        2.0000           -0.4892452             -13.3130
        59        2.0000           -0.4794320             -13.0460
        60        2.0000           -0.4665986             -12.6968
        61        2.0000           -0.4658265             -12.6758
        62        2.0000           -0.4603488             -12.5267
        63        2.0000           -0.4448337             -12.1045
        64        2.0000           -0.4389279             -11.9438
        65        2.0000           -0.4221186             -11.4864
        66        2.0000           -0.3828355             -10.4175
        67        1.9995           -0.3703276             -10.0771 (HOMO)
        68        0.0005           -0.3546446              -9.6504 (LUMO)
        69                         -0.3415806              -9.2949
        70                         -0.2737079              -7.4480
        71                         -0.2457557              -6.6874
        72                         -0.2359179              -6.4197
        73                         -0.2004862              -5.4555
        74                         -0.1833418              -4.9890
        75                         -0.1705067              -4.6397
        76                         -0.1250176              -3.4019
        77                         -0.1234297              -3.3587
        78                         -0.1231065              -3.3499
       ...                                ...                  ...
       134                          0.7551036              20.5474
      -------------------------------------------------------------
                  HL-Gap            0.0156829 Eh            0.4268 eV

Wiberg/Mayer (AO) data.
largest (>0.10) Wiberg bond orders for each atom

     #   Z sym  total        # sym  WBO       # sym  WBO       # sym  WBO
 ---------------------------------------------------------------------------
     1   6 C    3.897 --    28 H    0.987    27 H    0.981    26 H    0.980
                             2 O    0.923
     2   8 O    2.163 --     3 C    1.053     1 C    0.923     4 O    0.111
     3   6 C    3.851 --     4 O    1.578     5 C    1.109     2 O    1.053
     4   8 O    1.852 --     3 C    1.578     2 O    0.111
     5   6 C    3.913 --    24 C    1.269     6 N    1.156     3 C    1.109
                            25 O    0.130
     6   7 N    3.034 --     7 C    1.637     5 C    1.156
     7   6 C    3.933 --     6 N    1.637    21 N    1.085     8 C    0.979
     8   6 C    3.914 --     9 C    0.993    10 C    0.982     7 C    0.979
                            11 N    0.893
     9   6 C    3.989 --     8 C    0.993    29 H    0.985    31 H    0.984
                            30 H    0.981
    10   6 C    3.987 --    33 H    0.985    34 H    0.984     8 C    0.982
                            32 H    0.981
    11   7 N    3.392 --    12 C    1.311     8 C    0.893    35 H    0.891
                            13 O    0.202
    12   6 C    3.927 --    13 O    1.593    11 N    1.311    14 C    0.952
    13   8 O    1.925 --    12 C    1.593    11 N    0.202
    14   6 C    3.835 --    15 N    1.616    20 O    1.052    12 C    0.952
    15   7 N    2.982 --    14 C    1.616    16 N    1.150
    16   7 N    3.631 --    18 C    1.426    15 N    1.150    17 C    0.910
    17   6 C    3.886 --    36 H    0.978    37 H    0.970    38 H    0.968
                            16 N    0.910
    18   6 C    3.842 --    16 N    1.426    20 O    1.147    19 C    1.042
    19   6 C    3.961 --    18 C    1.042    41 H    0.970    40 H    0.955
                            39 H    0.937
    20   8 O    2.375 --    18 C    1.147    14 C    1.052
    21   7 N    3.416 --    22 C    1.151     7 C    1.085    42 H    0.897
                            23 O    0.135
    22   6 C    3.875 --    23 O    1.588    21 N    1.151    24 C    0.965
    23   8 O    1.868 --    22 C    1.588    21 N    0.135
    24   6 C    3.943 --    25 O    1.527     5 C    1.269    22 C    0.965
    25   8 O    1.832 --    24 C    1.527     5 C    0.130
    26   1 H    1.013 --     1 C    0.980
    27   1 H    1.014 --     1 C    0.981
    28   1 H    1.015 --     1 C    0.987
    29   1 H    1.006 --     9 C    0.985
    30   1 H    1.014 --     9 C    0.981
    31   1 H    1.007 --     9 C    0.984
    32   1 H    1.007 --    10 C    0.981
    33   1 H    1.002 --    10 C    0.985
    34   1 H    1.002 --    10 C    0.984
    35   1 H    0.934 --    11 N    0.891
    36   1 H    0.993 --    17 C    0.978
    37   1 H    0.990 --    17 C    0.970
    38   1 H    0.990 --    17 C    0.968
    39   1 H    0.985 --    19 C    0.937
    40   1 H    0.987 --    19 C    0.955
    41   1 H    0.985 --    19 C    0.970
    42   1 H    0.943 --    21 N    0.897
 ---------------------------------------------------------------------------

           -------------------------------------------------
          | TOTAL ENERGY              -82.979455008675 Eh   |
          | GRADIENT NORM               0.000606781693 Eh/α |
          | HOMO-LUMO GAP               0.426754238466 eV   |
           -------------------------------------------------

 * finished run on 2023/06/21 at 17:23:10.416
