   * xtb version 6.5.1 (579679a) compiled by 'ehlert@majestix' on 2022-07-11
          program call               : /lustre/hpc/kemi/ree/PhD/git/ReactivityQM/dep/xtb-6.5.1/bin/xtb --gfn 1 /lustre/hpc/kemi/ree/PhD/git/ReactivityQM/calculations/R01/reac02/conf07/R01_reac02_conf07_gfn1.xyz --opt --vfukui --chrg 0 --uhf 0 --alpb DMSO

   ID    Z sym.   atoms
    1    6 C      1, 3, 5, 7-10, 13, 15
    2    8 O      2, 4, 14, 16
    3    7 N      6, 11, 12
    4    1 H      17-29

      * Solvation model:               ALPB
        Solvent                        DMSO
        Solvent mass                       7.8130E+01 g/mol
          :  Hamiltonian                  GFN1-xTB          :
 * total energy  :   -54.5046695 Eh     change       -0.5805134E-11 Eh
 * total energy  :   -54.5107616 Eh     change       -0.6092034E-02 Eh
 * total energy  :   -54.5124465 Eh     change       -0.1684889E-02 Eh
 * total energy  :   -54.5126484 Eh     change       -0.2019206E-03 Eh
 * total energy  :   -54.5127686 Eh     change       -0.1202657E-03 Eh
 * total energy  :   -54.5128103 Eh     change       -0.4169241E-04 Eh
 * total energy  :   -54.5128538 Eh     change       -0.4342880E-04 Eh
 * total energy  :   -54.5128743 Eh     change       -0.2053226E-04 Eh
 * total energy  :   -54.5128893 Eh     change       -0.1504711E-04 Eh
 * total energy  :   -54.5128951 Eh     change       -0.5779775E-05 Eh
 * total energy  :   -54.5128999 Eh     change       -0.4767961E-05 Eh
   *** GEOMETRY OPTIMIZATION CONVERGED AFTER 11 ITERATIONS ***

 final structure:
================
29
 xtb: 6.5.1 (579679a)
C            3.96996184200618        1.53491342161694        1.08464843519139
O            2.70838620978305        0.99784564263244        0.67227161872645
C            2.72557354831664       -0.21329037383212        0.13491475236216
O            3.74974829920128       -0.85721578167992       -0.02015575239399
C            1.38895864257420       -0.72008352176617       -0.25295761729737
N            0.31739394446969        0.10814653897236       -0.04386369578605
C           -0.87012343908871       -0.30620342320735       -0.34459461181521
C           -2.02890025430207        0.63512833999180       -0.07779269310541
C           -3.36742511919299        0.12130281126640       -0.60537653482646
C           -2.09802088380527        0.86300648919892        1.44518053263050
N           -1.71148335403369        1.88499944971196       -0.76742800189412
N           -1.08364999445480       -1.54822288527560       -0.86237167317519
C           -0.08969125676186       -2.47159678540142       -1.13090531171968
O           -0.36128056832265       -3.56296808121821       -1.60279725907188
C            1.24635016618035       -1.97984182276426       -0.78429544646133
O            2.26010470527906       -2.81991584856702       -1.00833529903410
H            4.42381903690623        0.88510802405199        1.83617019493968
H            3.76577231427935        2.51723996564332        1.50525768987713
H            4.63953798509754        1.61897870055189        0.22580229022696
H           -3.31775569321757       -0.02925286439237       -1.68325704025755
H           -3.64859697093575       -0.81090408218676       -0.11773821341899
H           -4.13962324080213        0.86046192044185       -0.39743295000651
H           -2.32795637093400       -0.07089758197838        1.95707045026792
H           -1.13931297639755        1.23738635022772        1.80208012101370
H           -2.87209192741433        1.59347975126016        1.67246618739724
H           -2.41271366321096        2.57337121718048       -0.52946311747363
H           -0.81658571498144        2.22354985832847       -0.42920958855507
H           -2.02201840394987       -1.85382721429550       -1.07325917012785
H            3.11162413771154       -2.41069621451171       -0.73012629621264

          :  Hamiltonian                  GFN1-xTB          :
         :: total energy             -54.512899884772 Eh    ::
         :: gradient norm              0.000835176460 Eh/a0 ::
         :: HOMO-LUMO gap              2.379758942950 eV    ::
         :: SCC energy               -55.036209913625 Eh    ::
         :: -> Gsolv                  -0.039342312952 Eh    ::
         :: repulsion energy           0.539258688091 Eh    ::

    * Orbital Energies and Occupations

         #    Occupation            Energy/Eh            Energy/eV
      -------------------------------------------------------------
         1        2.0000           -0.8435196             -22.9533
       ...           ...                  ...                  ...
        32        2.0000           -0.5169684             -14.0674
        33        2.0000           -0.5160464             -14.0423
        34        2.0000           -0.5140361             -13.9876
        35        2.0000           -0.5018124             -13.6550
        36        2.0000           -0.4999613             -13.6046
        37        2.0000           -0.4979679             -13.5504
        38        2.0000           -0.4896120             -13.3230
        39        2.0000           -0.4867738             -13.2458
        40        2.0000           -0.4849625             -13.1965
        41        2.0000           -0.4573933             -12.4463
        42        2.0000           -0.4440488             -12.0832
        43        2.0000           -0.4271183             -11.6225
        44        2.0000           -0.4118442             -11.2069 (HOMO)
        45                         -0.3243897              -8.8271 (LUMO)
        46                         -0.2796745              -7.6103
        47                         -0.2412132              -6.5637
        48                         -0.1572000              -4.2776
        49                         -0.1380984              -3.7578
        50                         -0.1378569              -3.7513
        51                         -0.1216857              -3.3112
        52                         -0.1041530              -2.8341
        53                         -0.0909696              -2.4754
        54                         -0.0814188              -2.2155
        55                         -0.0743901              -2.0243
       ...                                ...                  ...
        90                          0.7202517              19.5990
      -------------------------------------------------------------
                  HL-Gap            0.0874545 Eh            2.3798 eV

Wiberg/Mayer (AO) data.
largest (>0.10) Wiberg bond orders for each atom

     #   Z sym  total        # sym  WBO       # sym  WBO       # sym  WBO
 ---------------------------------------------------------------------------
     1   6 C    3.867 --    18 H    0.986    19 H    0.979    17 H    0.979
                             2 O    0.892
     2   8 O    2.217 --     3 C    1.136     1 C    0.892     4 O    0.129
     3   6 C    3.847 --     4 O    1.604     2 O    1.136     5 C    1.020
     4   8 O    1.941 --     3 C    1.604     2 O    0.129
     5   6 C    3.966 --    15 C    1.483     6 N    1.184     3 C    1.020
     6   7 N    3.027 --     7 C    1.576     5 C    1.184
     7   6 C    3.919 --     6 N    1.576    12 N    1.176     8 C    0.977
     8   6 C    3.968 --     9 C    1.003    11 N    0.982     7 C    0.977
                            10 C    0.972
     9   6 C    3.995 --     8 C    1.003    20 H    0.984    21 H    0.983
                            22 H    0.982
    10   6 C    3.993 --    23 H    0.985    24 H    0.984    25 H    0.984
                             8 C    0.972
    11   7 N    2.948 --     8 C    0.982    26 H    0.944    27 H    0.941
    12   7 N    3.462 --     7 C    1.176    13 C    1.120    28 H    0.884
                            14 O    0.134
    13   6 C    3.909 --    14 O    1.593    12 N    1.120    15 C    1.062
    14   8 O    1.893 --    13 C    1.593    12 N    0.134
    15   6 C    3.922 --     5 C    1.483    16 O    1.120    13 C    1.062
    16   8 O    2.088 --    15 C    1.120    29 H    0.778
    17   1 H    1.006 --     1 C    0.979
    18   1 H    1.010 --     1 C    0.986
    19   1 H    1.006 --     1 C    0.979
    20   1 H    1.004 --     9 C    0.984
    21   1 H    1.000 --     9 C    0.983
    22   1 H    1.000 --     9 C    0.982
    23   1 H    1.002 --    10 C    0.985
    24   1 H    1.010 --    10 C    0.984
    25   1 H    1.002 --    10 C    0.984
    26   1 H    0.957 --    11 N    0.944
    27   1 H    0.970 --    11 N    0.941
    28   1 H    0.935 --    12 N    0.884
    29   1 H    0.854 --    16 O    0.778
 ---------------------------------------------------------------------------

           -------------------------------------------------
          | TOTAL ENERGY              -54.512899884772 Eh   |
          | GRADIENT NORM               0.000835176460 Eh/α |
          | HOMO-LUMO GAP               2.379758942950 eV   |
           -------------------------------------------------

 * finished run on 2023/06/20 at 14:51:57.286
