   * xtb version 6.5.1 (579679a) compiled by 'ehlert@majestix' on 2022-07-11
          program call               : /lustre/hpc/kemi/ree/PhD/git/ReactivityQM/dep/xtb-6.5.1/bin/xtb --gfn 1 /lustre/hpc/kemi/ree/PhD/git/ReactivityQM/calculations/R03/reac02prodN16/conf04/R03_reac02prodN16_conf04_gfn1.xyz --opt --vfukui --chrg 1 --uhf 0 --alpb DMSO

   ID    Z sym.   atoms
    1    6 C      1, 2, 5, 6, 9-12, 14, 15, 18-20, 22, 25
    2    7 N      3, 4, 8, 13, 24
    3    8 O      7, 16, 17, 21, 23, 26
    4    1 H      27-46

      * Solvation model:               ALPB
        Solvent                        DMSO
        Solvent mass                       7.8130E+01 g/mol
          :  Hamiltonian                  GFN1-xTB          :
 * total energy  :   -86.2742277 Eh     change       -0.2964384E-10 Eh
 * total energy  :   -86.2897011 Eh     change       -0.1547336E-01 Eh
 * total energy  :   -86.2956269 Eh     change       -0.5925782E-02 Eh
 * total energy  :   -86.2972178 Eh     change       -0.1590971E-02 Eh
 * total energy  :   -86.2980699 Eh     change       -0.8521092E-03 Eh
 * total energy  :   -86.2985703 Eh     change       -0.5003197E-03 Eh
 * total energy  :   -86.2989974 Eh     change       -0.4271047E-03 Eh
 * total energy  :   -86.2994184 Eh     change       -0.4210551E-03 Eh
 * total energy  :   -86.2996751 Eh     change       -0.2566376E-03 Eh
 * total energy  :   -86.3000455 Eh     change       -0.3703956E-03 Eh
 * total energy  :   -86.3046412 Eh     change       -0.1467803E-04 Eh
 * total energy  :   -86.3046507 Eh     change       -0.9527086E-05 Eh
 * total energy  :   -86.3046596 Eh     change       -0.8957292E-05 Eh
 * total energy  :   -86.3046597 Eh     change       -0.1254598E-07 Eh
 * total energy  :   -86.3046665 Eh     change       -0.6885557E-05 Eh
 * total energy  :   -86.3046736 Eh     change       -0.7016209E-05 Eh
 * total energy  :   -86.3046783 Eh     change       -0.4738491E-05 Eh
 * total energy  :   -86.3046891 Eh     change       -0.1081559E-04 Eh
 * total energy  :   -86.3046940 Eh     change       -0.4895531E-05 Eh
   *** GEOMETRY OPTIMIZATION CONVERGED AFTER 48 ITERATIONS ***

 final structure:
================
46
 xtb: 6.5.1 (579679a)
C            7.12363974355628        2.03979421483868       -1.50414589666706
C            5.72520968664593        1.61810190613324       -1.26929088086040
N            4.65578354647182        2.05020925870097       -1.86984627990939
N            3.60597766572776        1.38007002944285       -1.32236211441021
C            4.09937344463594        0.57952117162018       -0.42442720855468
C            3.32432932008113       -0.34069075350240        0.44238264967990
O            3.81960182429121       -1.04558157610084        1.29868858466584
N            2.00466600448226       -0.29275350494920        0.12001821397828
C            0.96295645842983       -0.93398246004867        0.92717662399783
C            1.22177663808560       -2.43773913227506        1.10523012485890
C            0.92295318487768       -0.24685673813544        2.29981422272530
C           -0.37207694333856       -0.74062645107856        0.22102799264292
N           -1.33850416759390       -0.29721883869926        0.95885731113279
C           -2.60115658172511       -0.10558792056215        0.45950873922699
C           -3.53611839904142        0.31493104586565        1.47715675821408
O           -3.41668909163346        0.40684444823713        2.64830636016023
O           -4.90896474742436        0.60190575214641        0.91661093276039
C           -5.96553930524908        0.38075471827893        1.89618882353032
C           -5.02233433923097        1.87960269395867        0.22151578900181
C           -2.86163422054144       -0.38742038895031       -0.86004688255924
O           -4.03402768551562       -0.23589236107974       -1.45304973763715
C           -1.78880131558201       -0.91243967806199       -1.70524996332376
O           -1.99193539647077       -1.19521359613669       -2.87547670975813
N           -0.56052620642282       -1.06459035488886       -1.09998301783393
C            0.45388503639498       -1.61543749499636       -2.00771335290613
O            5.43716573641634        0.68987077651376       -0.34600600383249
H            7.73747077259453        1.17370810031002       -1.75089166884365
H            7.15611500598157        2.75675740504113       -2.32088429415550
H            7.53076988587296        2.49621908542778       -0.60160933357697
H            1.71346922750433        0.46066161061201       -0.48442645533530
H            0.35515797248762       -2.88896069396769        1.58627139732455
H            2.09566142354589       -2.59239703008057        1.73538954621538
H            1.38732860146894       -2.92730856263393        0.14895553082652
H            0.70436399638474        0.81256277113450        2.17982722491960
H            0.15162106399589       -0.69963957895628        2.91970573733326
H            1.88908039993707       -0.36240410841590        2.78833137481345
H           -5.88150603488115        1.11474010540777        2.69757925941049
H           -5.83466773063548       -0.63125557025359        2.27203952895729
H           -6.90614134921305        0.48196617507976        1.36146556097925
H           -5.91630912779828        1.81603074750089       -0.39360091571900
H           -5.09466638002377        2.68355497859554        0.95334070607377
H           -4.13785143944950        1.99045491968207       -0.39822688428723
H           -3.96440160695055       -0.52896436659348       -2.38699844356168
H            1.43467074937740       -1.59709343426457       -1.54903457862751
H            0.45231261126293       -1.01125578674084       -2.91522721372499
H            0.16850906819033       -2.63694753314137       -2.26031015734506

          :  Hamiltonian                  GFN1-xTB          :
         :: total energy             -86.304694013440 Eh    ::
         :: gradient norm              0.000826376005 Eh/a0 ::
         :: HOMO-LUMO gap              1.974843301480 eV    ::
         :: SCC energy               -87.144614155153 Eh    ::
         :: -> Gsolv                  -0.111170103223 Eh    ::
         :: repulsion energy           0.869082345459 Eh    ::

    * Orbital Energies and Occupations

         #    Occupation            Energy/Eh            Energy/eV
      -------------------------------------------------------------
         1        2.0000           -0.9299990             -25.3066
       ...           ...                  ...                  ...
        58        2.0000           -0.5253339             -14.2951
        59        2.0000           -0.5180322             -14.0964
        60        2.0000           -0.5126776             -13.9507
        61        2.0000           -0.5108534             -13.9010
        62        2.0000           -0.5036190             -13.7042
        63        2.0000           -0.4920686             -13.3899
        64        2.0000           -0.4875963             -13.2682
        65        2.0000           -0.4803262             -13.0703
        66        2.0000           -0.4726226             -12.8607
        67        2.0000           -0.4669176             -12.7055
        68        2.0000           -0.4615180             -12.5585
        69        2.0000           -0.4578251             -12.4581
        70        2.0000           -0.4533905             -12.3374 (HOMO)
        71                         -0.3808163             -10.3625 (LUMO)
        72                         -0.3187162              -8.6727
        73                         -0.3151223              -8.5749
        74                         -0.2899850              -7.8909
        75                         -0.2611560              -7.1064
        76                         -0.2064251              -5.6171
        77                         -0.1973967              -5.3714
        78                         -0.1817547              -4.9458
        79                         -0.1730048              -4.7077
        80                         -0.1517004              -4.1280
        81                         -0.1438134              -3.9134
       ...                                ...                  ...
       144                          0.7496459              20.3989
      -------------------------------------------------------------
                  HL-Gap            0.0725742 Eh            1.9748 eV

Wiberg/Mayer (AO) data.
largest (>0.10) Wiberg bond orders for each atom

     #   Z sym  total        # sym  WBO       # sym  WBO       # sym  WBO
 ---------------------------------------------------------------------------
     1   6 C    3.985 --     2 C    1.032    28 H    0.982    27 H    0.964
                            29 H    0.961
     2   6 C    3.869 --     3 N    1.598    26 O    1.085     1 C    1.032
     3   7 N    2.981 --     2 C    1.598     4 N    1.206
     4   7 N    3.020 --     5 C    1.604     3 N    1.206
     5   6 C    3.877 --     4 N    1.604    26 O    1.066     6 C    0.993
     6   6 C    3.913 --     7 O    1.614     8 N    1.217     5 C    0.993
     7   8 O    1.928 --     6 C    1.614     8 N    0.168
     8   7 N    3.323 --     6 C    1.217     9 C    0.926    30 H    0.895
                             7 O    0.168
     9   6 C    3.933 --    11 C    0.989    10 C    0.978    12 C    0.977
                             8 N    0.926
    10   6 C    3.985 --    31 H    0.984    33 H    0.981     9 C    0.978
                            32 H    0.975
    11   6 C    3.988 --     9 C    0.989    34 H    0.985    35 H    0.984
                            36 H    0.981
    12   6 C    3.921 --    13 N    1.576    24 N    1.168     9 C    0.977
    13   7 N    3.027 --    12 C    1.576    14 C    1.162
    14   6 C    3.959 --    20 C    1.429    13 N    1.162    15 C    1.103
    15   6 C    3.800 --    16 O    1.825    14 C    1.103    17 O    0.733
    16   8 O    2.087 --    15 C    1.825
    17   8 O    2.478 --    18 C    0.816    19 C    0.810    15 C    0.733
    18   6 C    3.787 --    37 H    0.979    39 H    0.977    38 H    0.977
                            17 O    0.816
    19   6 C    3.785 --    41 H    0.980    40 H    0.976    42 H    0.975
                            17 O    0.810
    20   6 C    3.914 --    14 C    1.429    21 O    1.152    22 C    1.048
    21   8 O    2.130 --    20 C    1.152    43 H    0.778
    22   6 C    3.920 --    23 O    1.584    24 N    1.147    20 C    1.048
    23   8 O    1.927 --    22 C    1.584    24 N    0.143
    24   7 N    3.524 --    12 C    1.168    22 C    1.147    25 C    0.917
                            23 O    0.143
    25   6 C    3.905 --    44 H    0.976    45 H    0.973    46 H    0.972
                            24 N    0.917
    26   8 O    2.334 --     2 C    1.085     5 C    1.066
    27   1 H    0.996 --     1 C    0.964
    28   1 H    0.998 --     1 C    0.982
    29   1 H    0.996 --     1 C    0.961
    30   1 H    0.951 --     8 N    0.895
    31   1 H    1.000 --    10 C    0.984
    32   1 H    1.009 --    10 C    0.975
    33   1 H    1.000 --    10 C    0.981
    34   1 H    1.005 --    11 C    0.985
    35   1 H    1.009 --    11 C    0.984
    36   1 H    1.004 --    11 C    0.981
    37   1 H    0.996 --    18 C    0.979
    38   1 H    0.995 --    18 C    0.977
    39   1 H    0.994 --    18 C    0.977
    40   1 H    0.996 --    19 C    0.976
    41   1 H    0.991 --    19 C    0.980
    42   1 H    1.001 --    19 C    0.975
    43   1 H    0.821 --    21 O    0.778
    44   1 H    1.008 --    25 C    0.976
    45   1 H    1.000 --    25 C    0.973
    46   1 H    0.998 --    25 C    0.972
 ---------------------------------------------------------------------------

           -------------------------------------------------
          | TOTAL ENERGY              -86.304694013440 Eh   |
          | GRADIENT NORM               0.000826376005 Eh/α |
          | HOMO-LUMO GAP               1.974843301480 eV   |
           -------------------------------------------------

 * finished run on 2023/06/20 at 15:52:58.096
