   * xtb version 6.5.1 (579679a) compiled by 'ehlert@majestix' on 2022-07-11
          program call               : /lustre/hpc/kemi/ree/PhD/git/ReactivityQM/dep/xtb-6.5.1/bin/xtb --gfn 1 /lustre/hpc/kemi/ree/PhD/git/ReactivityQM/calculations/R02methylcation/reac01prodE10/conf07/R02methylcation_reac01prodE10_conf07_gfn1.xyz --opt --vfukui --chrg -2 --uhf 0 --alpb DMSO

   ID    Z sym.   atoms
    1    6 C      1, 3, 5, 7-10, 12, 14, 17-19, 22, 24
    2    8 O      2, 4, 13, 20, 23, 25
    3    7 N      6, 11, 15, 16, 21
    4    1 H      26-42

      * Solvation model:               ALPB
        Solvent                        DMSO
        Solvent mass                       7.8130E+01 g/mol
          :  Hamiltonian                  GFN1-xTB          :
 * total energy  :   -83.5607030 Eh     change       -0.5580603E-10 Eh
 * total energy  :   -83.5772232 Eh     change       -0.1652014E-01 Eh
 * total energy  :   -83.5841480 Eh     change       -0.6924855E-02 Eh
 * total energy  :   -83.5857146 Eh     change       -0.1566579E-02 Eh
 * total energy  :   -83.5875138 Eh     change       -0.1799208E-02 Eh
 * total energy  :   -83.5884637 Eh     change       -0.9498768E-03 Eh
 * total energy  :   -83.5897127 Eh     change       -0.1248990E-02 Eh
 * total energy  :   -83.5907473 Eh     change       -0.1034626E-02 Eh
 * total energy  :   -83.5913491 Eh     change       -0.6017865E-03 Eh
 * total energy  :   -83.5913986 Eh     change       -0.4952577E-04 Eh
 * total energy  :   -83.5945801 Eh     change       -0.1601034E-04 Eh
 * total energy  :   -83.5945936 Eh     change       -0.1352336E-04 Eh
 * total energy  :   -83.5946052 Eh     change       -0.1154112E-04 Eh
 * total energy  :   -83.5946140 Eh     change       -0.8873291E-05 Eh
 * total energy  :   -83.5946212 Eh     change       -0.7136921E-05 Eh
 * total energy  :   -83.5946284 Eh     change       -0.7255345E-05 Eh
 * total energy  :   -83.5946368 Eh     change       -0.8325171E-05 Eh
 * total energy  :   -83.5946442 Eh     change       -0.7400679E-05 Eh
 * total energy  :   -83.5946489 Eh     change       -0.4774665E-05 Eh
   *** GEOMETRY OPTIMIZATION CONVERGED AFTER 57 ITERATIONS ***

 final structure:
================
42
 xtb: 6.5.1 (579679a)
C            6.64836486726755        1.06076011751132        0.26980212216066
O            5.34004081260146        0.53231701803412        0.16210611648810
C            5.25192980858451       -0.72015553808947       -0.41836486267132
O            6.27882408091580       -1.28090642388210       -0.79005324637069
C            3.89499979886321       -1.19869434195337       -0.50674635911403
N            2.92269151847819       -0.33957676205252       -0.00538660558673
C            1.68276499962848       -0.68842894129322       -0.06600062392196
C            0.60340559976124        0.24186860340884        0.47618263824576
C            1.19019005682440        1.64755484526579        0.64577635150230
C            0.12525904620028       -0.27922897407984        1.84586462628140
N           -0.49743613360495        0.34096036009180       -0.50033582548361
C           -1.54914691993621       -0.65759221534131       -0.42037461818250
O           -1.21885850902031       -1.93890143763360       -0.43865344071816
C           -2.79947354637657       -0.15711622157560       -0.38822521100843
N           -3.16413310127974        1.21495141453900       -0.37865570423973
N           -4.49519435546262        1.17416107060199       -0.40045438986922
C           -5.22786325508381        2.41639851726277       -0.39324803108150
C           -5.00490764413718       -0.03367529661391       -0.41841006542193
C           -6.43909044884370       -0.41553615879138       -0.45618709912144
O           -4.00957644846013       -0.96057729743772       -0.41447515673405
N            1.24792080936277       -1.86568259439634       -0.59098207988893
C            2.08828188360944       -2.79321184258013       -1.10669569588944
O            1.66171046438578       -3.85887508316885       -1.58061784093212
C            3.56744958676634       -2.45691015910707       -1.07982332675446
O            4.38583473507203       -3.27853015352090       -1.55315730530198
H            7.28145852821450        0.42293090893463        0.89703045080243
H            6.56214088567957        2.04641450204528        0.72665906167386
H            7.11812169874589        1.15642421040899       -0.71586760637034
H            0.45651802842287        2.31358047162657        1.09783811549897
H            1.48385482932159        2.05183708600868       -0.32344864119917
H            2.07245367160208        1.60896604945390        1.28517252076643
H            0.94527118566109       -0.23062173858133        2.56261854674913
H           -0.21292154072296       -1.31275274283982        1.77136783336298
H           -0.69697243762451        0.33465382499085        2.21303167313032
H           -0.93793451880644        1.25143949469330       -0.39114399004529
H           -4.50815695778676        3.23037900341713       -0.34734431876247
H           -5.88538126192035        2.45269678449124        0.47429237767691
H           -5.82626625041789        2.49975379290351       -1.29968976469850
H           -6.52435765380533       -1.49531525356300       -0.35092501423056
H           -6.99170647295250        0.06535451923300        0.35191809183695
H           -6.90332152295451       -0.11672379643559       -1.39861123225408
H            0.08321108320991       -1.98438662200352       -0.55761747032098

          :  Hamiltonian                  GFN1-xTB          :
         :: total energy             -83.594648935768 Eh    ::
         :: gradient norm              0.000294423103 Eh/a0 ::
         :: HOMO-LUMO gap              0.909242413734 eV    ::
         :: SCC energy               -84.319975640161 Eh    ::
         :: -> Gsolv                  -0.302949706892 Eh    ::
         :: repulsion energy           0.750927580109 Eh    ::

    * Orbital Energies and Occupations

         #    Occupation            Energy/Eh            Energy/eV
      -------------------------------------------------------------
         1        2.0000           -0.8081352             -21.9905
       ...           ...                  ...                  ...
        56        2.0000           -0.4432147             -12.0605
        57        2.0000           -0.4404374             -11.9849
        58        2.0000           -0.4190881             -11.4040
        59        2.0000           -0.4157458             -11.3130
        60        2.0000           -0.4096776             -11.1479
        61        2.0000           -0.3931879             -10.6992
        62        2.0000           -0.3853243             -10.4852
        63        2.0000           -0.3816832             -10.3861
        64        2.0000           -0.3775992             -10.2750
        65        2.0000           -0.3656458              -9.9497
        66        2.0000           -0.3366196              -9.1599
        67        2.0000           -0.3319911              -9.0339
        68        2.0000           -0.2730181              -7.4292 (HOMO)
        69                         -0.2396040              -6.5200 (LUMO)
        70                         -0.2307614              -6.2793
        71                         -0.1981914              -5.3931
        72                         -0.1639973              -4.4626
        73                         -0.1416607              -3.8548
        74                         -0.1267010              -3.4477
        75                         -0.1187295              -3.2308
        76                         -0.1148404              -3.1250
        77                         -0.0963456              -2.6217
        78                         -0.0921939              -2.5087
        79                         -0.0849492              -2.3116
       ...                                ...                  ...
       134                          0.7760562              21.1176
      -------------------------------------------------------------
                  HL-Gap            0.0334140 Eh            0.9092 eV

Wiberg/Mayer (AO) data.
largest (>0.10) Wiberg bond orders for each atom

     #   Z sym  total        # sym  WBO       # sym  WBO       # sym  WBO
 ---------------------------------------------------------------------------
     1   6 C    3.910 --    27 H    0.987    26 H    0.980    28 H    0.980
                             2 O    0.939
     2   8 O    2.117 --     3 C    0.994     1 C    0.939
     3   6 C    3.846 --     4 O    1.561     5 C    1.161     2 O    0.994
     4   8 O    1.844 --     3 C    1.561
     5   6 C    3.918 --    24 C    1.270     3 C    1.161     6 N    1.135
                            25 O    0.121
     6   7 N    3.007 --     7 C    1.599     5 C    1.135
     7   6 C    3.946 --     6 N    1.599    21 N    1.180     8 C    0.971
     8   6 C    3.966 --     9 C    1.000    10 C    0.979     7 C    0.971
                            11 N    0.956
     9   6 C    3.997 --     8 C    1.000    29 H    0.987    30 H    0.986
                            31 H    0.984
    10   6 C    3.994 --    32 H    0.987    34 H    0.986    33 H    0.982
                             8 C    0.979
    11   7 N    3.036 --    12 C    0.959     8 C    0.956    35 H    0.942
    12   6 C    3.912 --    14 C    1.601    13 O    1.155    11 N    0.959
    13   8 O    1.819 --    12 C    1.155    42 H    0.333    14 C    0.123
    14   6 C    3.755 --    12 C    1.601    15 N    1.065    20 O    0.852
                            13 O    0.123
    15   7 N    2.758 --    16 N    1.161    14 C    1.065    18 C    0.300
    16   7 N    3.641 --    18 C    1.405    15 N    1.161    17 C    0.949
    17   6 C    3.951 --    36 H    0.984    38 H    0.981    37 H    0.981
                            16 N    0.949
    18   6 C    3.877 --    16 N    1.405    20 O    1.048    19 C    1.025
                            15 N    0.300
    19   6 C    3.993 --    18 C    1.025    39 H    0.983    40 H    0.973
                            41 H    0.970
    20   8 O    2.131 --    18 C    1.048    14 C    0.852
    21   7 N    3.381 --    22 C    1.240     7 C    1.180    42 H    0.569
                            23 O    0.138
    22   6 C    3.900 --    23 O    1.519    21 N    1.240    24 C    0.971
    23   8 O    1.795 --    22 C    1.519    21 N    0.138
    24   6 C    3.939 --    25 O    1.496     5 C    1.270    22 C    0.971
    25   8 O    1.793 --    24 C    1.496     5 C    0.121
    26   1 H    1.017 --     1 C    0.980
    27   1 H    1.018 --     1 C    0.987
    28   1 H    1.017 --     1 C    0.980
    29   1 H    1.005 --     9 C    0.987
    30   1 H    1.012 --     9 C    0.986
    31   1 H    1.023 --     9 C    0.984
    32   1 H    1.008 --    10 C    0.987
    33   1 H    1.017 --    10 C    0.982
    34   1 H    1.007 --    10 C    0.986
    35   1 H    0.993 --    11 N    0.942
    36   1 H    1.012 --    17 C    0.984
    37   1 H    1.002 --    17 C    0.981
    38   1 H    1.002 --    17 C    0.981
    39   1 H    1.002 --    19 C    0.983
    40   1 H    1.003 --    19 C    0.973
    41   1 H    1.003 --    19 C    0.970
    42   1 H    0.933 --    21 N    0.569    13 O    0.333
 ---------------------------------------------------------------------------

           -------------------------------------------------
          | TOTAL ENERGY              -83.594648935768 Eh   |
          | GRADIENT NORM               0.000294423103 Eh/α |
          | HOMO-LUMO GAP               0.909242413734 eV   |
           -------------------------------------------------

 * finished run on 2023/06/21 at 17:22:19.352
