   * xtb version 6.5.1 (579679a) compiled by 'ehlert@majestix' on 2022-07-11
          program call               : /lustre/hpc/kemi/ree/PhD/git/ReactivityQM/dep/xtb-6.5.1/bin/xtb --gfn 1 /lustre/hpc/kemi/ree/PhD/git/ReactivityQM/calculations/R02methylcation/reac01prodN10/conf16/R02methylcation_reac01prodN10_conf16_gfn1.xyz --opt --vfukui --chrg 0 --uhf 0 --alpb DMSO

   ID    Z sym.   atoms
    1    6 C      1, 3, 5, 6, 8, 11-15, 17, 19, 22, 23
    2    8 O      2, 4, 7, 9, 18, 24
    3    7 N      10, 16, 20, 21, 25
    4    1 H      26-42

      * Solvation model:               ALPB
        Solvent                        DMSO
        Solvent mass                       7.8130E+01 g/mol
          :  Hamiltonian                  GFN1-xTB          :
 * total energy  :   -82.9630466 Eh     change       -0.1419664E-10 Eh
 * total energy  :   -82.9752719 Eh     change       -0.1222535E-01 Eh
 * total energy  :   -82.9807392 Eh     change       -0.5467311E-02 Eh
 * total energy  :   -82.9819365 Eh     change       -0.1197255E-02 Eh
 * total energy  :   -82.9826130 Eh     change       -0.6765030E-03 Eh
 * total energy  :   -82.9829459 Eh     change       -0.3329047E-03 Eh
 * total energy  :   -82.9831321 Eh     change       -0.1861860E-03 Eh
 * total energy  :   -82.9832427 Eh     change       -0.1106194E-03 Eh
 * total energy  :   -82.9833351 Eh     change       -0.9238256E-04 Eh
 * total energy  :   -82.9834264 Eh     change       -0.9138460E-04 Eh
 * total energy  :   -82.9837869 Eh     change       -0.1144940E-04 Eh
 * total energy  :   -82.9837949 Eh     change       -0.7950196E-05 Eh
 * total energy  :   -82.9838012 Eh     change       -0.6308645E-05 Eh
 * total energy  :   -82.9838086 Eh     change       -0.7464622E-05 Eh
 * total energy  :   -82.9838165 Eh     change       -0.7921361E-05 Eh
 * total energy  :   -82.9838238 Eh     change       -0.7292349E-05 Eh
 * total energy  :   -82.9838250 Eh     change       -0.1109751E-05 Eh
 * total energy  :   -82.9838301 Eh     change       -0.5119761E-05 Eh
 * total energy  :   -82.9838324 Eh     change       -0.2360376E-05 Eh
   *** GEOMETRY OPTIMIZATION CONVERGED AFTER 34 ITERATIONS ***

 final structure:
================
42
 xtb: 6.5.1 (579679a)
C           -4.42364668599106       -1.27679185957405       -3.02898987258666
O           -4.05625605732819       -0.74079837939841       -1.75084823888660
C           -2.85520577427446       -0.20333660921898       -1.65176169438793
O           -2.05583969645405       -0.13304852239626       -2.55021281228182
C           -2.56680480994223        0.30021057231445       -0.24997100539409
C           -3.66787687617183        0.65795583795291        0.68974909519680
O           -4.77475457382735        0.97597312283707        0.33910286828401
C           -3.25204641075587        0.63923729522672        2.16300759788238
O           -4.05142069711088        0.55114903713973        3.07210051858187
N           -1.91837878288319        0.70514481474731        2.35957453077409
C           -0.90210868085892        0.87435688159364        1.33924750994940
C           -0.56836883953460        2.36839858093422        1.19945445018278
C            0.35013349996247        0.01033011076339        1.70128156414717
C           -0.07568739311381       -1.45173712117159        1.87916963469267
C            1.06565876876874        0.53061336540571        2.94851729869215
N            1.23415479935353        0.11915559784743        0.54157925657565
C            2.45431842605300       -0.45467029804834        0.46495170589908
O            3.03094356238119       -1.03224606974461        1.36833037976512
C            3.03062222038715       -0.26528160091655       -0.89192430699732
N            2.43278825304621        0.28298465984419       -1.90650956593423
N            3.31540073761668        0.25632018092918       -2.94390500288055
C            4.39625491897619       -0.30699617251789       -2.49552811582693
C            5.65380705747110       -0.56171090140931       -3.23210293955222
O            4.27723146522889       -0.66095079971362       -1.20726438483554
N           -1.33508580194584        0.42286663585384        0.05389028613359
H           -5.44122115806066       -1.64685621324640       -2.92779775688178
H           -3.74587386251236       -2.08952949446485       -3.29709649424067
H           -4.37241337416245       -0.49451796390660       -3.78892099910354
H           -1.62359232995639        0.81085802042297        3.31847648576790
H           -1.42237213038761        2.88719157246701        0.76840435520378
H            0.29702588737293        2.50028151024650        0.55414417632222
H           -0.35732040382956        2.78632350560993        2.18015842573409
H           -0.76731528541578       -1.53789335967325        2.71497682905556
H            0.80073967843225       -2.06557294827036        2.08042695343034
H           -0.56397574686529       -1.80981257912533        0.97366388171611
H            1.50252043856613        1.50969745366659        2.76229082766695
H            1.86269318809665       -0.15698441334448        3.22701556093649
H            0.37018615035058        0.60309486624078        3.78153383427868
H            0.80917286707906        0.42959222880015       -0.32486185591414
H            5.54930762921748       -0.22516453582204       -4.26038587098440
H            6.47744910759824       -0.02969123807171       -2.75626124204499
H            5.88715571543331       -1.62582177080842       -3.21670186813531

          :  Hamiltonian                  GFN1-xTB          :
         :: total energy             -82.983832430971 Eh    ::
         :: gradient norm              0.000599844664 Eh/a0 ::
         :: HOMO-LUMO gap              1.759128193868 eV    ::
         :: SCC energy               -83.765046632355 Eh    ::
         :: -> Gsolv                  -0.053575529558 Eh    ::
         :: repulsion energy           0.808533661986 Eh    ::

    * Orbital Energies and Occupations

         #    Occupation            Energy/Eh            Energy/eV
      -------------------------------------------------------------
         1        2.0000           -0.8650507             -23.5392
       ...           ...                  ...                  ...
        55        2.0000           -0.5083809             -13.8337
        56        2.0000           -0.5072055             -13.8018
        57        2.0000           -0.5058978             -13.7662
        58        2.0000           -0.5024595             -13.6726
        59        2.0000           -0.4977216             -13.5437
        60        2.0000           -0.4842490             -13.1771
        61        2.0000           -0.4834961             -13.1566
        62        2.0000           -0.4715175             -12.8306
        63        2.0000           -0.4654032             -12.6643
        64        2.0000           -0.4609952             -12.5443
        65        2.0000           -0.4537774             -12.3479
        66        2.0000           -0.4485565             -12.2058
        67        2.0000           -0.4402441             -11.9797 (HOMO)
        68                         -0.3755974             -10.2205 (LUMO)
        69                         -0.3215463              -8.7497
        70                         -0.3123428              -8.4993
        71                         -0.2582161              -7.0264
        72                         -0.2528972              -6.8817
        73                         -0.2066968              -5.6245
        74                         -0.2008792              -5.4662
        75                         -0.1441066              -3.9213
        76                         -0.1438362              -3.9140
        77                         -0.1432760              -3.8987
        78                         -0.1390737              -3.7844
       ...                                ...                  ...
       134                          0.7657355              20.8367
      -------------------------------------------------------------
                  HL-Gap            0.0646468 Eh            1.7591 eV

Wiberg/Mayer (AO) data.
largest (>0.10) Wiberg bond orders for each atom

     #   Z sym  total        # sym  WBO       # sym  WBO       # sym  WBO
 ---------------------------------------------------------------------------
     1   6 C    3.859 --    26 H    0.985    28 H    0.979    27 H    0.979
                             2 O    0.884
     2   8 O    2.226 --     3 C    1.148     1 C    0.884     4 O    0.147
     3   6 C    3.854 --     4 O    1.684     2 O    1.148     5 C    0.944
     4   8 O    1.948 --     3 C    1.684     2 O    0.147
     5   6 C    3.952 --    25 N    1.789     6 C    0.993     3 C    0.944
     6   6 C    3.856 --     7 O    1.805     5 C    0.993     8 C    0.906
     7   8 O    2.011 --     6 C    1.805
     8   6 C    3.903 --     9 O    1.636    10 N    1.247     6 C    0.906
     9   8 O    1.929 --     8 C    1.636    10 N    0.185
    10   7 N    3.363 --     8 C    1.247    11 C    0.940    29 H    0.882
                             9 O    0.185
    11   6 C    3.913 --    25 N    1.002    12 C    0.948    10 N    0.940
                            13 C    0.927
    12   6 C    3.982 --    30 H    0.982    31 H    0.981    32 H    0.980
                            11 C    0.948
    13   6 C    3.928 --    15 C    0.999    14 C    0.991    16 N    0.934
                            11 C    0.927
    14   6 C    3.990 --    13 C    0.991    33 H    0.984    35 H    0.984
                            34 H    0.981
    15   6 C    3.989 --    13 C    0.999    36 H    0.982    38 H    0.981
                            37 H    0.974
    16   7 N    3.342 --    17 C    1.246    13 C    0.934    39 H    0.886
                            18 O    0.175
    17   6 C    3.916 --    18 O    1.598    16 N    1.246    19 C    0.988
    18   8 O    1.914 --    17 C    1.598    16 N    0.175
    19   6 C    3.875 --    20 N    1.611    24 O    1.064    17 C    0.988
    20   7 N    3.018 --    19 C    1.611    21 N    1.200
    21   7 N    2.981 --    22 C    1.605    20 N    1.200
    22   6 C    3.871 --    21 N    1.605    24 O    1.083    23 C    1.031
    23   6 C    3.986 --    22 C    1.031    40 H    0.983    42 H    0.964
                            41 H    0.963
    24   8 O    2.330 --    22 C    1.083    19 C    1.064
    25   7 N    3.064 --     5 C    1.789    11 C    1.002
    26   1 H    1.008 --     1 C    0.985
    27   1 H    1.004 --     1 C    0.979
    28   1 H    1.004 --     1 C    0.979
    29   1 H    0.929 --    10 N    0.882
    30   1 H    0.999 --    12 C    0.982
    31   1 H    0.999 --    12 C    0.981
    32   1 H    0.999 --    12 C    0.980
    33   1 H    1.002 --    14 C    0.984
    34   1 H    1.005 --    14 C    0.981
    35   1 H    1.004 --    14 C    0.984
    36   1 H    1.001 --    15 C    0.982
    37   1 H    1.009 --    15 C    0.974
    38   1 H    0.998 --    15 C    0.981
    39   1 H    0.969 --    16 N    0.886
    40   1 H    0.998 --    23 C    0.983
    41   1 H    0.997 --    23 C    0.963
    42   1 H    0.997 --    23 C    0.964
 ---------------------------------------------------------------------------

           -------------------------------------------------
          | TOTAL ENERGY              -82.983832430971 Eh   |
          | GRADIENT NORM               0.000599844664 Eh/α |
          | HOMO-LUMO GAP               1.759128193868 eV   |
           -------------------------------------------------

 * finished run on 2023/06/21 at 17:41:47.828
