   * xtb version 6.5.1 (579679a) compiled by 'ehlert@majestix' on 2022-07-11
          program call               : /lustre/hpc/kemi/ree/PhD/git/ReactivityQM/dep/xtb-6.5.1/bin/xtb --gfn 1 /lustre/hpc/kemi/ree/PhD/git/ReactivityQM/calculations/R01/reac01prodN01/conf07/R01_reac01prodN01_conf07_gfn1.xyz --opt --vfukui --chrg 1 --uhf 0 --alpb DMSO

   ID    Z sym.   atoms
    1    6 C      1, 3, 5, 8, 9, 11
    2    8 O      2, 4, 10
    3    7 N      6, 7
    4    1 H      12-20

      * Solvation model:               ALPB
        Solvent                        DMSO
        Solvent mass                       7.8130E+01 g/mol
          :  Hamiltonian                  GFN1-xTB          :
 * total energy  :   -37.5520787 Eh     change       -0.8100187E-11 Eh
 * total energy  :   -37.5653713 Eh     change       -0.1329265E-01 Eh
 * total energy  :   -37.5714726 Eh     change       -0.6101266E-02 Eh
 * total energy  :   -37.5733188 Eh     change       -0.1846204E-02 Eh
 * total energy  :   -37.5744955 Eh     change       -0.1176640E-02 Eh
 * total energy  :   -37.5750933 Eh     change       -0.5978718E-03 Eh
 * total energy  :   -37.5755910 Eh     change       -0.4976430E-03 Eh
 * total energy  :   -37.5758689 Eh     change       -0.2779612E-03 Eh
 * total energy  :   -37.5759946 Eh     change       -0.1256858E-03 Eh
 * total energy  :   -37.5761071 Eh     change       -0.1124335E-03 Eh
 * total energy  :   -37.5773802 Eh     change       -0.1040243E-03 Eh
 * total energy  :   -37.5774429 Eh     change       -0.6271581E-04 Eh
 * total energy  :   -37.5775409 Eh     change       -0.9799034E-04 Eh
 * total energy  :   -37.5776105 Eh     change       -0.6956855E-04 Eh
 * total energy  :   -37.5776713 Eh     change       -0.6080735E-04 Eh
 * total energy  :   -37.5777073 Eh     change       -0.3598183E-04 Eh
 * total energy  :   -37.5777275 Eh     change       -0.2029104E-04 Eh
 * total energy  :   -37.5777361 Eh     change       -0.8554944E-05 Eh
 * total energy  :   -37.5777389 Eh     change       -0.2804649E-05 Eh
   *** GEOMETRY OPTIMIZATION CONVERGED AFTER 29 ITERATIONS ***

 final structure:
================
20
 xtb: 6.5.1 (579679a)
C            3.35093712539200        0.88718715576478       -0.10727561588432
O            1.97167710014430        0.46772734842817       -0.01378934344888
C            1.74295552246516       -0.82336648835409        0.06048196790023
O            2.56350525427147       -1.69608948996871        0.07155502905682
C            0.27890338298002       -1.14452105386516        0.13027806674185
N           -0.23084117623504       -2.31677189828407        0.16295672366475
N           -1.58794877937195       -2.21096696767397        0.21502364122916
C           -1.91087218074049       -0.97427259612070        0.21455154216150
C           -3.24668970005961       -0.36349293711490        0.26701432436994
O           -0.74874834422323       -0.19348957251719        0.15953751563739
C           -0.62942811927372        1.26530713855269        0.15606517663323
H            3.73535695844877        0.63047776652640       -1.09533512900533
H            3.93749130521326        0.38938560556951        0.66609237484363
H            3.34576572544600        1.96419943660002        0.03686329269036
H           -3.35040284945218        0.24671387492057        1.16507632912041
H           -3.99116262560713       -1.15816991470395        0.28068898467818
H           -3.41137390402010        0.27605641001198       -0.60056734154465
H           -0.14188348558583        1.54954729770575       -0.77275652707301
H           -1.63836894094591        1.65959224371191        0.21550983494233
H           -0.03887426884610        1.54494464081122        1.02442415328630

          :  Hamiltonian                  GFN1-xTB          :
         :: total energy             -37.577738902320 Eh    ::
         :: gradient norm              0.000842791042 Eh/a0 ::
         :: HOMO-LUMO gap              3.709712882257 eV    ::
         :: SCC energy               -37.927762249372 Eh    ::
         :: -> Gsolv                  -0.097129975193 Eh    ::
         :: repulsion energy           0.358951256588 Eh    ::

    * Orbital Energies and Occupations

         #    Occupation            Energy/Eh            Energy/eV
      -------------------------------------------------------------
         1        2.0000           -0.9755816             -26.5469
       ...           ...                  ...                  ...
        18        2.0000           -0.6107540             -16.6195
        19        2.0000           -0.6024939             -16.3947
        20        2.0000           -0.6021040             -16.3841
        21        2.0000           -0.5858215             -15.9410
        22        2.0000           -0.5846564             -15.9093
        23        2.0000           -0.5728572             -15.5882
        24        2.0000           -0.5641726             -15.3519
        25        2.0000           -0.5486170             -14.9286
        26        2.0000           -0.5414276             -14.7330
        27        2.0000           -0.5313863             -14.4598
        28        2.0000           -0.5284924             -14.3810
        29        2.0000           -0.5200769             -14.1520
        30        2.0000           -0.5136322             -13.9766 (HOMO)
        31                         -0.3773027             -10.2669 (LUMO)
        32                         -0.3203916              -8.7183
        33                         -0.2585575              -7.0357
        34                         -0.1969724              -5.3599
        35                         -0.1794813              -4.8839
        36                         -0.1547830              -4.2119
        37                         -0.1296179              -3.5271
        38                         -0.1218277              -3.3151
        39                         -0.1212330              -3.2989
        40                         -0.1049814              -2.8567
        41                         -0.0900397              -2.4501
       ...                                ...                  ...
        62                          0.7336657              19.9641
      -------------------------------------------------------------
                  HL-Gap            0.1363294 Eh            3.7097 eV

Wiberg/Mayer (AO) data.
largest (>0.10) Wiberg bond orders for each atom

     #   Z sym  total        # sym  WBO       # sym  WBO       # sym  WBO
 ---------------------------------------------------------------------------
     1   6 C    3.827 --    14 H    0.983    13 H    0.978    12 H    0.976
                             2 O    0.856
     2   8 O    2.236 --     3 C    1.157     1 C    0.856     4 O    0.153
     3   6 C    3.878 --     4 O    1.695     2 O    1.157     5 C    0.960
     4   8 O    1.978 --     3 C    1.695     2 O    0.153
     5   6 C    3.809 --     6 N    1.710     3 C    0.960    10 O    0.879
     6   7 N    3.041 --     5 C    1.710     7 N    1.158
     7   7 N    3.025 --     8 C    1.688     6 N    1.158
     8   6 C    3.800 --     7 N    1.688     9 C    1.046    10 O    0.877
     9   6 C    3.967 --     8 C    1.046    16 H    0.968    17 H    0.949
                            15 H    0.947
    10   8 O    2.651 --     5 C    0.879     8 C    0.877    11 C    0.746
    11   6 C    3.722 --    19 H    0.972    20 H    0.968    18 H    0.968
                            10 O    0.746
    12   1 H    0.999 --     1 C    0.976
    13   1 H    1.000 --     1 C    0.978
    14   1 H    1.003 --     1 C    0.983
    15   1 H    0.986 --     9 C    0.947
    16   1 H    0.988 --     9 C    0.968
    17   1 H    0.986 --     9 C    0.949
    18   1 H    0.995 --    11 C    0.968
    19   1 H    0.989 --    11 C    0.972
    20   1 H    0.994 --    11 C    0.968
 ---------------------------------------------------------------------------

           -------------------------------------------------
          | TOTAL ENERGY              -37.577738902320 Eh   |
          | GRADIENT NORM               0.000842791042 Eh/α |
          | HOMO-LUMO GAP               3.709712882257 eV   |
           -------------------------------------------------

 * finished run on 2023/06/20 at 14:54:41.416
