   * xtb version 6.5.1 (579679a) compiled by 'ehlert@majestix' on 2022-07-11
          program call               : /lustre/hpc/kemi/ree/PhD/git/ReactivityQM/dep/xtb-6.5.1/bin/xtb --gfn 1 /lustre/hpc/kemi/ree/PhD/git/ReactivityQM/calculations/R03/reac02prodN13/conf16/R03_reac02prodN13_conf16_gfn1.xyz --opt --vfukui --chrg 1 --uhf 0 --alpb DMSO

   ID    Z sym.   atoms
    1    6 C      1, 3, 5, 7-10, 12, 14, 17-19, 22, 23, 25
    2    8 O      2, 4, 13, 20, 24, 26
    3    7 N      6, 11, 15, 16, 21
    4    1 H      27-46

      * Solvation model:               ALPB
        Solvent                        DMSO
        Solvent mass                       7.8130E+01 g/mol
          :  Hamiltonian                  GFN1-xTB          :
 * total energy  :   -86.2734135 Eh     change       -0.1179501E-09 Eh
 * total energy  :   -86.2891794 Eh     change       -0.1576599E-01 Eh
 * total energy  :   -86.2950614 Eh     change       -0.5881904E-02 Eh
 * total energy  :   -86.2959133 Eh     change       -0.8519629E-03 Eh
 * total energy  :   -86.2962790 Eh     change       -0.3657114E-03 Eh
 * total energy  :   -86.2963744 Eh     change       -0.9540510E-04 Eh
 * total energy  :   -86.2964785 Eh     change       -0.1040418E-03 Eh
 * total energy  :   -86.2965739 Eh     change       -0.9547268E-04 Eh
 * total energy  :   -86.2966584 Eh     change       -0.8449481E-04 Eh
 * total energy  :   -86.2967245 Eh     change       -0.6601887E-04 Eh
 * total energy  :   -86.2968930 Eh     change       -0.3819412E-04 Eh
 * total energy  :   -86.2969177 Eh     change       -0.2465661E-04 Eh
 * total energy  :   -86.2969334 Eh     change       -0.1578805E-04 Eh
 * total energy  :   -86.2969488 Eh     change       -0.1534177E-04 Eh
 * total energy  :   -86.2969567 Eh     change       -0.7865570E-05 Eh
 * total energy  :   -86.2969649 Eh     change       -0.8238731E-05 Eh
 * total energy  :   -86.2969721 Eh     change       -0.7191318E-05 Eh
 * total energy  :   -86.2969791 Eh     change       -0.7042734E-05 Eh
 * total energy  :   -86.2969835 Eh     change       -0.4406361E-05 Eh
   *** GEOMETRY OPTIMIZATION CONVERGED AFTER 22 ITERATIONS ***

 final structure:
================
46
 xtb: 6.5.1 (579679a)
C           -6.92162020462576        1.41636653797480        1.48554588964673
O           -5.83174892355757        1.20560838508326        0.57919917273063
C           -4.73774786113418        0.65063271185076        1.08355370164519
O           -4.62109755853962        0.32228857741253        2.24038771113980
C           -3.65169977560521        0.46253683623351        0.06852461928495
N           -2.54072016270806       -0.15070175278896        0.55949711772737
C           -1.50797045596755       -0.40875396408635       -0.18169964183261
C           -0.37871099565481       -1.14974952702296        0.51599133725498
C           -0.45085933999765       -2.63852833299546        0.14311209788986
C           -0.51519657077788       -0.98142461299598        2.03710091792748
N            0.90771057749643       -0.55343090334353        0.12417234247540
C            2.09547348020885       -1.09446557597375        0.45122176624641
O            2.30317727480296       -2.14974071435652        1.00122250245036
C            3.22202852886383       -0.18822737540639        0.02113639735177
N            3.05824906987768        1.01087788120365       -0.62268537495420
N            4.20502872158997        1.50728532337941       -0.81087310807754
C            5.20697627355495        0.63859064530443       -0.28305301926473
C            5.97520177049180        1.32627333487567        0.85354465670145
C            6.13524527333131        0.13272114946819       -1.39465810651994
O            4.45004548306207       -0.44969636111554        0.24184820742338
N           -1.47985841203924       -0.09768081254616       -1.51240296300855
C           -0.37745960032081       -0.38009127760327       -2.43258168562425
C           -2.54099594948121        0.57028545639095       -2.10939818070073
O           -2.52206675937065        0.89624492735128       -3.28754317785728
C           -3.68634682000668        0.84517475922920       -1.24886870879248
O           -4.70545713558475        1.46699587697192       -1.83204710405368
H           -7.75049706555501        1.79416090961643        0.89043954464039
H           -6.63558202575806        2.14550532175240        2.24699852965999
H           -7.19440354827412        0.47483398788607        1.96789608301421
H           -0.16193969868872       -2.79896227289407       -0.89247203265771
H            0.20520446713232       -3.22174856200384        0.78548783373057
H           -1.47556171632583       -2.98104844203119        0.28151484245346
H            0.30883960031607       -1.48968806826024        2.53344471582709
H           -1.45838000195124       -1.41320787249843        2.36723887643856
H           -0.49648828678849        0.07542646870995        2.29622172990995
H            0.90075183567585        0.39051145198411       -0.22932271272882
H            6.67696140349900        0.61460087739112        1.28217730095815
H            6.51045035262304        2.18092808404602        0.44747635479114
H            5.27050937249084        1.65555289965797        1.61402801831243
H            6.84328222733815       -0.57255760903718       -0.96562608628077
H            5.54094599351770       -0.35955350467157       -2.16112651711056
H            6.66452790657485        0.98058562167396       -1.82224910172296
H            0.18244958108089        0.53842938180069       -2.60434712411702
H            0.27448918606653       -1.14395124776275       -2.02941796960772
H           -0.80830759941286       -0.71676018340658       -3.37550887262930
H           -4.48683191146305        1.63755156555850       -2.76802378008821

          :  Hamiltonian                  GFN1-xTB          :
         :: total energy             -86.296983532225 Eh    ::
         :: gradient norm              0.000354135906 Eh/a0 ::
         :: HOMO-LUMO gap              0.135708463542 eV    ::
         :: SCC energy               -87.120532799338 Eh    ::
         :: -> Gsolv                  -0.113524353916 Eh    ::
         :: repulsion energy           0.852421454244 Eh    ::

    * Orbital Energies and Occupations

         #    Occupation            Energy/Eh            Energy/eV
      -------------------------------------------------------------
         1        2.0000           -0.9333319             -25.3973
       ...           ...                  ...                  ...
        58        2.0000           -0.5328126             -14.4986
        59        2.0000           -0.5289180             -14.3926
        60        2.0000           -0.5211072             -14.1800
        61        2.0000           -0.5207120             -14.1693
        62        2.0000           -0.5147649             -14.0075
        63        2.0000           -0.5043343             -13.7236
        64        2.0000           -0.5015143             -13.6469
        65        2.0000           -0.4988730             -13.5750
        66        2.0000           -0.4956284             -13.4867
        67        2.0000           -0.4899919             -13.3334
        68        2.0000           -0.4771985             -12.9852
        69        2.0000           -0.4652900             -12.6612
        70        1.8649           -0.4469739             -12.1628 (HOMO)
        71        0.1351           -0.4419868             -12.0271 (LUMO)
        72                         -0.3611796              -9.8282
        73                         -0.3395777              -9.2404
        74                         -0.3051255              -8.3029
        75                         -0.2594998              -7.0614
        76                         -0.2547812              -6.9329
        77                         -0.1756134              -4.7787
        78                         -0.1616380              -4.3984
        79                         -0.1571168              -4.2754
        80                         -0.1559767              -4.2443
        81                         -0.1438019              -3.9130
       ...                                ...                  ...
       144                          0.7240781              19.7032
      -------------------------------------------------------------
                  HL-Gap            0.0049872 Eh            0.1357 eV

Wiberg/Mayer (AO) data.
largest (>0.10) Wiberg bond orders for each atom

     #   Z sym  total        # sym  WBO       # sym  WBO       # sym  WBO
 ---------------------------------------------------------------------------
     1   6 C    3.865 --    27 H    0.986    29 H    0.979    28 H    0.979
                             2 O    0.891
     2   8 O    2.211 --     3 C    1.128     1 C    0.891     4 O    0.139
     3   6 C    3.854 --     4 O    1.665     2 O    1.128     5 C    0.986
     4   8 O    1.926 --     3 C    1.665     2 O    0.139
     5   6 C    3.928 --    25 C    1.453     6 N    1.218     3 C    0.986
     6   7 N    3.000 --     7 C    1.535     5 C    1.218
     7   6 C    3.905 --     6 N    1.535    21 N    1.191     8 C    0.980
     8   6 C    3.909 --     7 C    0.980    10 C    0.976     9 C    0.973
                            11 N    0.909
     9   6 C    3.976 --    32 H    0.982    30 H    0.978    31 H    0.976
                             8 C    0.973
    10   6 C    3.976 --    35 H    0.984    33 H    0.982    34 H    0.979
                             8 C    0.976
    11   7 N    3.389 --    12 C    1.265     8 C    0.909    36 H    0.886
                            13 O    0.209
    12   6 C    3.923 --    13 O    1.628    11 N    1.265    14 C    0.947
    13   8 O    1.961 --    12 C    1.628    11 N    0.209
    14   6 C    3.737 --    20 O    1.332    15 N    1.212    12 C    0.947
    15   7 N    3.026 --    16 N    1.653    14 C    1.212
    16   7 N    2.903 --    15 N    1.653    17 C    1.052
    17   6 C    3.818 --    16 N    1.052    19 C    0.906    18 C    0.904
                            20 O    0.869
    18   6 C    3.937 --    39 H    0.980    38 H    0.978    37 H    0.976
                            17 C    0.904
    19   6 C    3.937 --    41 H    0.979    42 H    0.978    40 H    0.976
                            17 C    0.906
    20   8 O    2.369 --    14 C    1.332    17 C    0.869
    21   7 N    3.498 --     7 C    1.191    23 C    1.113    22 C    0.924
                            24 O    0.124
    22   6 C    3.913 --    44 H    0.978    43 H    0.973    45 H    0.970
                            21 N    0.924
    23   6 C    3.899 --    24 O    1.581    21 N    1.113    25 C    1.064
    24   8 O    1.889 --    23 C    1.581    21 N    0.124
    25   6 C    3.866 --     5 C    1.453    26 O    1.134    23 C    1.064
    26   8 O    2.085 --    25 C    1.134    46 H    0.796
    27   1 H    1.010 --     1 C    0.986
    28   1 H    1.005 --     1 C    0.979
    29   1 H    1.006 --     1 C    0.979
    30   1 H    0.998 --     9 C    0.978
    31   1 H    1.005 --     9 C    0.976
    32   1 H    0.999 --     9 C    0.982
    33   1 H    1.000 --    10 C    0.982
    34   1 H    1.008 --    10 C    0.979
    35   1 H    1.003 --    10 C    0.984
    36   1 H    0.938 --    11 N    0.886
    37   1 H    0.991 --    18 C    0.976
    38   1 H    0.992 --    18 C    0.978
    39   1 H    0.991 --    18 C    0.980
    40   1 H    0.991 --    19 C    0.976
    41   1 H    0.991 --    19 C    0.979
    42   1 H    0.992 --    19 C    0.978
    43   1 H    0.997 --    22 C    0.973
    44   1 H    1.006 --    22 C    0.978
    45   1 H    0.999 --    22 C    0.970
    46   1 H    0.836 --    26 O    0.796
 ---------------------------------------------------------------------------

           -------------------------------------------------
          | TOTAL ENERGY              -86.296983532225 Eh   |
          | GRADIENT NORM               0.000354135906 Eh/α |
          | HOMO-LUMO GAP               0.135708463542 eV   |
           -------------------------------------------------

 * finished run on 2023/06/20 at 15:48:56.008
