   * xtb version 6.5.1 (579679a) compiled by 'ehlert@majestix' on 2022-07-11
          program call               : /lustre/hpc/kemi/ree/PhD/git/ReactivityQM/dep/xtb-6.5.1/bin/xtb --gfn 1 /lustre/hpc/kemi/ree/PhD/git/ReactivityQM/calculations/R02deprot/reac01prodN16/conf02/R02deprot_reac01prodN16_conf02_gfn1.xyz --opt --vfukui --chrg 0 --uhf 0 --alpb DMSO

   ID    Z sym.   atoms
    1    6 C      1, 3, 5, 7-10, 12, 14, 17, 18, 21, 23, 24
    2    8 O      2, 4, 13, 19, 22, 25
    3    7 N      6, 11, 15, 16, 20
    4    1 H      26-42

      * Solvation model:               ALPB
        Solvent                        DMSO
        Solvent mass                       7.8130E+01 g/mol
          :  Hamiltonian                  GFN1-xTB          :
 * total energy  :   -82.9462558 Eh     change       -0.1389822E-10 Eh
 * total energy  :   -82.9582844 Eh     change       -0.1202862E-01 Eh
 * total energy  :   -82.9633892 Eh     change       -0.5104707E-02 Eh
 * total energy  :   -82.9646490 Eh     change       -0.1259846E-02 Eh
 * total energy  :   -82.9655047 Eh     change       -0.8556586E-03 Eh
 * total energy  :   -82.9660183 Eh     change       -0.5136072E-03 Eh
 * total energy  :   -82.9664773 Eh     change       -0.4590026E-03 Eh
 * total energy  :   -82.9668296 Eh     change       -0.3523464E-03 Eh
 * total energy  :   -82.9670600 Eh     change       -0.2303405E-03 Eh
 * total energy  :   -82.9672690 Eh     change       -0.2090148E-03 Eh
 * total energy  :   -82.9695664 Eh     change       -0.1072390E-04 Eh
 * total energy  :   -82.9695750 Eh     change       -0.8611673E-05 Eh
 * total energy  :   -82.9695917 Eh     change       -0.1673676E-04 Eh
 * total energy  :   -82.9695868 Eh     change        0.4897852E-05 Eh
 * total energy  :   -82.9695972 Eh     change       -0.1037083E-04 Eh
 * total energy  :   -82.9696023 Eh     change       -0.5139658E-05 Eh
 * total energy  :   -82.9696064 Eh     change       -0.4013221E-05 Eh
 * total energy  :   -82.9696116 Eh     change       -0.5229445E-05 Eh
 * total energy  :   -82.9696141 Eh     change       -0.2465429E-05 Eh
   *** GEOMETRY OPTIMIZATION CONVERGED AFTER 44 ITERATIONS ***

 final structure:
================
42
 xtb: 6.5.1 (579679a)
C           -2.15959466719138        3.58919243614360       -2.18939779834817
O           -2.04841074573814        2.55185956579514       -1.20346724279092
C           -2.47986863900238        1.35241325464388       -1.54284808605090
O           -2.92955567342465        1.05258222862303       -2.61839183906728
C           -2.33136254560825        0.36081634283128       -0.40762559447783
N           -1.19878225737218        0.23267003959009        0.16673752152846
C           -1.07855920541573       -0.76708456291863        1.14717679844388
C            0.31686488851452       -1.15097355306122        1.57024877076114
C            0.52231233184462       -0.67296862628327        3.01887015913293
C            0.46464416104415       -2.67664249560010        1.47416833577710
N            1.26972020352775       -0.49276474790758        0.68656401210261
C            2.60638518951673       -0.62657373112253        0.79414956720513
O            3.18651315136941       -1.31767277368128        1.61315763849959
C            3.30065167497507        0.18973375433522       -0.23540041810187
N            2.72994713243641        0.96788497780676       -1.10543352996181
N            3.72719962415672        1.52437382715718       -1.84849158547170
C            4.84338194179100        1.05026256052910       -1.38345440823376
C            6.21553971876623        1.34520207241674       -1.85087365779471
O            4.63952468441121        0.20291651218672       -0.36368705907346
N           -2.06897480413832       -1.32053236731952        1.73877758833781
C           -3.37176257849365       -0.98388416080037        1.36014532561364
O           -4.31837368309624       -1.06454929519081        2.09829013443364
C           -3.50504701397241       -0.54041984696049       -0.09268084873454
C           -3.38973041112482       -1.77251620593483       -1.02417236798276
O           -4.72234108148307        0.11574167326055       -0.29167533832075
H           -3.21178770208080        3.83097105950294       -2.35072687213585
H           -1.62895594232338        4.45065293260461       -1.79037629048166
H           -1.71161021889574        3.26138465916851       -3.12925271271277
H            1.50464565327399       -0.98183739639715        3.37089899248022
H            0.44789174171718        0.41210367813632        3.06690420099120
H           -0.24439383348411       -1.11437111871549        3.65303161314461
H            1.43337532681478       -2.98236434468713        1.86388360381082
H           -0.32382673597586       -3.14990630362504        2.05680140614917
H            0.37990420204518       -2.99205553532931        0.43578079076991
H            0.89298042920460        0.13082240184894       -0.01704515664795
H            6.69724543900118        0.42937365313286       -2.19295755518494
H            6.17809737141762        2.06300452572671       -2.66638243082261
H            6.80824173119348        1.75192712373575       -1.03184958096964
H           -2.43841804262439       -2.27622362593325       -0.87155092259013
H           -3.47014457720372       -1.43746086531411       -2.05644238411962
H           -4.20840303308602       -2.45264466480684       -0.80001549610878
H           -5.32516020528103       -0.09244405759104        0.44026171700577

          :  Hamiltonian                  GFN1-xTB          :
         :: total energy             -82.969614054423 Eh    ::
         :: gradient norm              0.000607952346 Eh/a0 ::
         :: HOMO-LUMO gap              1.813800380051 eV    ::
         :: SCC energy               -83.745575462710 Eh    ::
         :: -> Gsolv                  -0.046942165210 Eh    ::
         :: repulsion energy           0.801974452697 Eh    ::

    * Orbital Energies and Occupations

         #    Occupation            Energy/Eh            Energy/eV
      -------------------------------------------------------------
         1        2.0000           -0.8653185             -23.5465
       ...           ...                  ...                  ...
        55        2.0000           -0.5079840             -13.8229
        56        2.0000           -0.5073507             -13.8057
        57        2.0000           -0.5046113             -13.7312
        58        2.0000           -0.5028469             -13.6832
        59        2.0000           -0.4986566             -13.5691
        60        2.0000           -0.4895163             -13.3204
        61        2.0000           -0.4844415             -13.1823
        62        2.0000           -0.4679604             -12.7339
        63        2.0000           -0.4643891             -12.6367
        64        2.0000           -0.4622823             -12.5793
        65        2.0000           -0.4541991             -12.3594
        66        2.0000           -0.4491328             -12.2215
        67        2.0000           -0.4376061             -11.9079 (HOMO)
        68                         -0.3709502             -10.0941 (LUMO)
        69                         -0.3122090              -8.4956
        70                         -0.3089215              -8.4062
        71                         -0.2608334              -7.0976
        72                         -0.2585567              -7.0357
        73                         -0.2452492              -6.6736
        74                         -0.2001337              -5.4459
        75                         -0.1467940              -3.9945
        76                         -0.1433362              -3.9004
        77                         -0.1343883              -3.6569
        78                         -0.1266750              -3.4470
       ...                                ...                  ...
       134                          0.7226348              19.6639
      -------------------------------------------------------------
                  HL-Gap            0.0666559 Eh            1.8138 eV

Wiberg/Mayer (AO) data.
largest (>0.10) Wiberg bond orders for each atom

     #   Z sym  total        # sym  WBO       # sym  WBO       # sym  WBO
 ---------------------------------------------------------------------------
     1   6 C    3.856 --    27 H    0.985    28 H    0.979    26 H    0.978
                             2 O    0.881
     2   8 O    2.226 --     3 C    1.151     1 C    0.881     4 O    0.147
     3   6 C    3.851 --     4 O    1.690     2 O    1.151     5 C    0.937
     4   8 O    1.963 --     3 C    1.690     2 O    0.147
     5   6 C    3.931 --     6 N    1.765    23 C    0.960     3 C    0.937
     6   7 N    3.065 --     5 C    1.765     7 C    1.059
     7   6 C    3.922 --    20 N    1.694     6 N    1.059     8 C    0.996
     8   6 C    3.939 --     7 C    0.996    10 C    0.972     9 C    0.961
                            11 N    0.937
     9   6 C    3.986 --    30 H    0.986    31 H    0.985    29 H    0.978
                             8 C    0.961
    10   6 C    3.987 --    34 H    0.985    33 H    0.984    32 H    0.979
                             8 C    0.972
    11   7 N    3.348 --    12 C    1.255     8 C    0.937    35 H    0.880
                            13 O    0.178
    12   6 C    3.918 --    13 O    1.591    11 N    1.255    14 C    0.988
    13   8 O    1.909 --    12 C    1.591    11 N    0.178
    14   6 C    3.875 --    15 N    1.610    19 O    1.065    12 C    0.988
    15   7 N    3.015 --    14 C    1.610    16 N    1.200
    16   7 N    2.980 --    17 C    1.605    15 N    1.200
    17   6 C    3.870 --    16 N    1.605    19 O    1.082    18 C    1.031
    18   6 C    3.986 --    17 C    1.031    37 H    0.983    38 H    0.964
                            36 H    0.963
    19   8 O    2.330 --    17 C    1.082    14 C    1.065
    20   7 N    3.074 --     7 C    1.694    21 C    1.069
    21   6 C    3.867 --    22 O    1.740    20 N    1.069    23 C    0.936
    22   8 O    1.998 --    21 C    1.740
    23   6 C    3.932 --    25 O    0.982     5 C    0.960    21 C    0.936
                            24 C    0.917
    24   6 C    3.982 --    39 H    0.986    40 H    0.980    41 H    0.978
                            23 C    0.917
    25   8 O    1.901 --    23 C    0.982    42 H    0.827
    26   1 H    1.003 --     1 C    0.978
    27   1 H    1.008 --     1 C    0.985
    28   1 H    1.005 --     1 C    0.979
    29   1 H    1.007 --     9 C    0.978
    30   1 H    1.001 --     9 C    0.986
    31   1 H    1.005 --     9 C    0.985
    32   1 H    1.008 --    10 C    0.979
    33   1 H    1.006 --    10 C    0.984
    34   1 H    1.001 --    10 C    0.985
    35   1 H    0.967 --    11 N    0.880
    36   1 H    0.996 --    18 C    0.963
    37   1 H    0.998 --    18 C    0.983
    38   1 H    0.997 --    18 C    0.964
    39   1 H    1.000 --    24 C    0.986
    40   1 H    1.008 --    24 C    0.980
    41   1 H    0.999 --    24 C    0.978
    42   1 H    0.858 --    25 O    0.827
 ---------------------------------------------------------------------------

           -------------------------------------------------
          | TOTAL ENERGY              -82.969614054423 Eh   |
          | GRADIENT NORM               0.000607952346 Eh/α |
          | HOMO-LUMO GAP               1.813800380051 eV   |
           -------------------------------------------------

 * finished run on 2023/06/20 at 18:27:07.793
