   * xtb version 6.5.1 (579679a) compiled by 'ehlert@majestix' on 2022-07-11
          program call               : /lustre/hpc/kemi/ree/PhD/git/ReactivityQM/dep/xtb-6.5.1/bin/xtb --gfn 1 /lustre/hpc/kemi/ree/PhD/git/ReactivityQM/calculations/R02/reac01prodN14/conf01/R02_reac01prodN14_conf01_gfn1.xyz --opt --vfukui --chrg 1 --uhf 0 --alpb DMSO

   ID    Z sym.   atoms
    1    6 C      1, 3, 5, 6, 8, 9, 12-15, 17, 19, 22, 23
    2    8 O      2, 4, 7, 10, 18, 24
    3    7 N      11, 16, 20, 21, 25
    4    1 H      26-43

      * Solvation model:               ALPB
        Solvent                        DMSO
        Solvent mass                       7.8130E+01 g/mol
          :  Hamiltonian                  GFN1-xTB          :
 * total energy  :   -83.0146546 Eh     change       -0.4268088E-09 Eh
 * total energy  :   -83.0329750 Eh     change       -0.1832035E-01 Eh
 * total energy  :   -83.0468539 Eh     change       -0.1387893E-01 Eh
 * total energy  :   -83.0505444 Eh     change       -0.3690556E-02 Eh
 * total energy  :   -83.0536382 Eh     change       -0.3093723E-02 Eh
 * total energy  :   -83.0555976 Eh     change       -0.1959421E-02 Eh
 * total energy  :   -83.0579933 Eh     change       -0.2395674E-02 Eh
 * total energy  :   -83.0603769 Eh     change       -0.2383632E-02 Eh
 * total energy  :   -83.0625882 Eh     change       -0.2211314E-02 Eh
 * total energy  :   -83.0647794 Eh     change       -0.2191228E-02 Eh
 * total energy  :   -83.1216435 Eh     change       -0.5213090E-04 Eh
 * total energy  :   -83.1216917 Eh     change       -0.4820094E-04 Eh
 * total energy  :   -83.1217096 Eh     change       -0.1794076E-04 Eh
 * total energy  :   -83.1217249 Eh     change       -0.1532262E-04 Eh
 * total energy  :   -83.1217303 Eh     change       -0.5345857E-05 Eh
 * total energy  :   -83.1217359 Eh     change       -0.5635393E-05 Eh
 * total energy  :   -83.1217410 Eh     change       -0.5066911E-05 Eh
 * total energy  :   -83.1217407 Eh     change        0.2773560E-06 Eh
 * total energy  :   -83.1217454 Eh     change       -0.4696459E-05 Eh
   *** GEOMETRY OPTIMIZATION CONVERGED AFTER 57 ITERATIONS ***

 final structure:
================
43
 xtb: 6.5.1 (579679a)
C            5.13876283184487        2.56781539439358        1.30356096095650
O            3.97766812246742        1.87377774240051        0.80943520823449
C            4.18258155343769        0.86812344184383        0.00225858255079
O            5.25401667342438        0.46047412730210       -0.37226304123067
C            2.89077653818620        0.21192522340794       -0.45170299890526
C            2.96010167921117       -0.73781082625759       -1.61013700180423
O            3.83455627333231       -0.38441427697805       -2.61831237463451
C            1.59431782332057       -1.02045862046586       -2.19961946278219
C            3.38286102953556       -2.09876009702920       -0.95220884831953
O            1.34310047090098       -1.44250874116703       -3.28176271979951
N            0.54101165184338       -0.83631509309252       -1.24763235459836
C            0.65226650867508       -0.16227438356710       -0.12098222822990
C           -0.50308877361692       -0.01972958646580        0.80633992825706
C           -0.47139242453297        1.31165101072019        1.56727395252704
C           -0.30774657255554       -1.21284517933545        1.77523463661174
N           -1.74088223625650       -0.15381903478913        0.05390002557495
C           -2.95366006243035       -0.27197824909309        0.68856065284413
O           -3.10266032664988       -0.52359156833559        1.86336807885481
C           -4.05816276263043       -0.07219038921004       -0.27057054550472
N           -3.93700657395169        0.25329590184491       -1.52419494274321
N           -5.19489147167510        0.36727666927104       -2.02237481969430
C           -6.00917167138355        0.10749398109888       -1.04032652455198
C           -7.48760332419608        0.10399522932185       -1.06902959291564
O           -5.34868757054332       -0.17603800946701        0.08979092315819
N            1.83388997974305        0.37376948453641        0.27400386006263
H            5.77398708413360        1.86890428156804        1.84951705096341
H            5.69327177617404        2.99147778963032        0.46464186609140
H            4.76725548661532        3.35121913066692        1.95940630914938
H            4.73260418495671       -0.23403600343337       -2.27661507378261
H            2.67336194624524       -2.39730906128761       -0.18531660006364
H            4.37267022813083       -1.97448082007974       -0.51884401664100
H            3.41891609518454       -2.84484402240729       -1.74424079820461
H           -0.37294128897636       -1.15749329910053       -1.54826206225209
H            0.47619906056203        1.41202055706209        2.09216935644532
H           -0.58715354583068        2.13955863665398        0.87044619608126
H           -1.28806035955735        1.32712525999430        2.28678141972328
H           -0.48198816344541       -2.14742564604391        1.24715067711743
H           -1.01381572028065       -1.11853048452183        2.59782873046921
H            0.70563993813176       -1.20075894127585        2.17189067679661
H           -1.77002836048135        0.29318497351848       -0.85161906022088
H           -7.83557431487993        0.35950962855837       -2.06705371329201
H           -7.86195839129243       -0.88136034664749       -0.79084146730814
H           -7.87334402088513        0.82637321625809       -0.34923284498663

          :  Hamiltonian                  GFN1-xTB          :
         :: total energy             -83.121745400181 Eh    ::
         :: gradient norm              0.000611918661 Eh/a0 ::
         :: HOMO-LUMO gap              0.866822023979 eV    ::
         :: SCC energy               -83.913500619858 Eh    ::
         :: -> Gsolv                  -0.111797831024 Eh    ::
         :: repulsion energy           0.818361965510 Eh    ::

    * Orbital Energies and Occupations

         #    Occupation            Energy/Eh            Energy/eV
      -------------------------------------------------------------
         1        2.0000           -0.9033109             -24.5803
       ...           ...                  ...                  ...
        55        2.0000           -0.5392032             -14.6725
        56        2.0000           -0.5358460             -14.5811
        57        2.0000           -0.5345335             -14.5454
        58        2.0000           -0.5279409             -14.3660
        59        2.0000           -0.5259623             -14.3122
        60        2.0000           -0.5177587             -14.0889
        61        2.0000           -0.5115417             -13.9198
        62        2.0000           -0.4968331             -13.5195
        63        2.0000           -0.4949133             -13.4673
        64        2.0000           -0.4868658             -13.2483
        65        2.0000           -0.4812938             -13.0967
        66        2.0000           -0.4650124             -12.6536
        67        2.0000           -0.4641088             -12.6290 (HOMO)
        68        0.0000           -0.4322537             -11.7622 (LUMO)
        69                         -0.3569886              -9.7142
        70                         -0.3306057              -8.9962
        71                         -0.3122814              -8.4976
        72                         -0.2695604              -7.3351
        73                         -0.2667431              -7.2584
        74                         -0.2170769              -5.9070
        75                         -0.1615955              -4.3972
        76                         -0.1586242              -4.3164
        77                         -0.1542007              -4.1960
        78                         -0.1462102              -3.9786
       ...                                ...                  ...
       136                          0.7170603              19.5122
      -------------------------------------------------------------
                  HL-Gap            0.0318551 Eh            0.8668 eV

Wiberg/Mayer (AO) data.
largest (>0.10) Wiberg bond orders for each atom

     #   Z sym  total        # sym  WBO       # sym  WBO       # sym  WBO
 ---------------------------------------------------------------------------
     1   6 C    3.835 --    28 H    0.984    26 H    0.975    27 H    0.974
                             2 O    0.865
     2   8 O    2.257 --     3 C    1.189     1 C    0.865     4 O    0.157
     3   6 C    3.865 --     4 O    1.665     2 O    1.189     5 C    0.942
     4   8 O    1.978 --     3 C    1.665     2 O    0.157
     5   6 C    3.901 --    25 N    1.627     6 C    1.001     3 C    0.942
     6   6 C    3.943 --     7 O    1.010     5 C    1.001     8 C    0.950
                             9 C    0.852
     7   8 O    1.927 --     6 C    1.010    29 H    0.810
     8   6 C    3.855 --    10 O    1.807    11 N    0.976     6 C    0.950
     9   6 C    3.959 --    30 H    0.985    31 H    0.974    32 H    0.968
                             6 C    0.852
    10   8 O    2.051 --     8 C    1.807
    11   7 N    3.521 --    12 C    1.415     8 C    0.976    33 H    0.853
    12   6 C    3.878 --    11 N    1.415    25 N    1.206    13 C    1.026
    13   6 C    3.933 --    12 C    1.026    14 C    0.966    16 N    0.950
                            15 C    0.911
    14   6 C    3.976 --    35 H    0.983    34 H    0.982    36 H    0.979
                            13 C    0.966
    15   6 C    3.965 --    37 H    0.984    39 H    0.982    38 H    0.958
                            13 C    0.911
    16   7 N    3.278 --    17 C    1.170    13 C    0.950    40 H    0.889
                            18 O    0.154
    17   6 C    3.905 --    18 O    1.642    16 N    1.170    19 C    1.004
    18   8 O    1.949 --    17 C    1.642    16 N    0.154
    19   6 C    3.881 --    20 N    1.595    24 O    1.066    17 C    1.004
    20   7 N    3.024 --    19 C    1.595    21 N    1.215
    21   7 N    2.982 --    22 C    1.588    20 N    1.215
    22   6 C    3.866 --    21 N    1.588    24 O    1.088    23 C    1.033
    23   6 C    3.984 --    22 C    1.033    41 H    0.982    42 H    0.961
                            43 H    0.961
    24   8 O    2.338 --    22 C    1.088    19 C    1.066
    25   7 N    3.053 --     5 C    1.627    12 C    1.206
    26   1 H    0.999 --     1 C    0.975
    27   1 H    0.999 --     1 C    0.974
    28   1 H    1.005 --     1 C    0.984
    29   1 H    0.848 --     7 O    0.810
    30   1 H    0.993 --     9 C    0.985
    31   1 H    0.997 --     9 C    0.974
    32   1 H    0.992 --     9 C    0.968
    33   1 H    0.904 --    11 N    0.853
    34   1 H    1.004 --    14 C    0.982
    35   1 H    0.996 --    14 C    0.983
    36   1 H    0.998 --    14 C    0.979
    37   1 H    0.996 --    15 C    0.984
    38   1 H    1.004 --    15 C    0.958
    39   1 H    0.997 --    15 C    0.982
    40   1 H    0.944 --    16 N    0.889
    41   1 H    0.997 --    23 C    0.982
    42   1 H    0.995 --    23 C    0.961
    43   1 H    0.995 --    23 C    0.961
 ---------------------------------------------------------------------------

           -------------------------------------------------
          | TOTAL ENERGY              -83.121745400181 Eh   |
          | GRADIENT NORM               0.000611918661 Eh/α |
          | HOMO-LUMO GAP               0.866822023979 eV   |
           -------------------------------------------------

 * finished run on 2023/06/20 at 15:37:55.283
