   * xtb version 6.5.1 (579679a) compiled by 'ehlert@majestix' on 2022-07-11
          program call               : /lustre/hpc/kemi/ree/PhD/git/ReactivityQM/dep/xtb-6.5.1/bin/xtb --gfn 1 /lustre/hpc/kemi/ree/PhD/git/ReactivityQM/calculations/R02deprot/reac01prodE02/conf10/R02deprot_reac01prodE02_conf10_gfn1.xyz --opt --vfukui --chrg -2 --uhf 0 --alpb DMSO

   ID    Z sym.   atoms
    1    6 C      1, 3, 4, 6, 8-11, 13, 15, 18, 19, 22, 24
    2    8 O      2, 5, 14, 20, 23, 25
    3    7 N      7, 12, 16, 17, 21
    4    1 H      26-42

      * Solvation model:               ALPB
        Solvent                        DMSO
        Solvent mass                       7.8130E+01 g/mol
          :  Hamiltonian                  GFN1-xTB          :
 * total energy  :   -83.6067553 Eh     change       -0.3805098E-09 Eh
 * total energy  :   -83.6195924 Eh     change       -0.1283702E-01 Eh
 * total energy  :   -83.6253701 Eh     change       -0.5777697E-02 Eh
 * total energy  :   -83.6269260 Eh     change       -0.1555949E-02 Eh
 * total energy  :   -83.6278501 Eh     change       -0.9240556E-03 Eh
 * total energy  :   -83.6282581 Eh     change       -0.4080479E-03 Eh
 * total energy  :   -83.6285400 Eh     change       -0.2818638E-03 Eh
 * total energy  :   -83.6287069 Eh     change       -0.1668788E-03 Eh
 * total energy  :   -83.6288375 Eh     change       -0.1306411E-03 Eh
 * total energy  :   -83.6289804 Eh     change       -0.1429122E-03 Eh
 * total energy  :   -83.6301247 Eh     change       -0.2486231E-04 Eh
 * total energy  :   -83.6301477 Eh     change       -0.2300554E-04 Eh
 * total energy  :   -83.6301615 Eh     change       -0.1380380E-04 Eh
 * total energy  :   -83.6301803 Eh     change       -0.1882624E-04 Eh
 * total energy  :   -83.6301910 Eh     change       -0.1069282E-04 Eh
 * total energy  :   -83.6301941 Eh     change       -0.3086824E-05 Eh
 * total energy  :   -83.6302028 Eh     change       -0.8718287E-05 Eh
 * total energy  :   -83.6302077 Eh     change       -0.4893525E-05 Eh
 * total energy  :   -83.6302110 Eh     change       -0.3301716E-05 Eh
   *** GEOMETRY OPTIMIZATION CONVERGED AFTER 44 ITERATIONS ***

 final structure:
================
42
 xtb: 6.5.1 (579679a)
C           -4.87106754405252       -2.27207445360491        0.25724735201548
O           -3.89688680196202       -1.41179679432135       -0.25733997517500
C           -2.69290995320789       -1.15824526232576        0.68947330219578
C           -1.57536636225280       -2.07064515503819        0.06098519132899
O           -2.94073995403438       -1.40439627080534        1.93311631922923
C           -2.33338614000515        0.33875973314974        0.37261211681981
N           -1.02290603133194        0.59659782248385        0.07384435342066
C           -0.66250221177233        1.84371131840307       -0.13799335044280
C            0.80751172032311        2.10181348937186       -0.47265130782082
C            0.91657026859539        2.58222299969184       -1.92646373176217
C            1.37708874194229        3.15597956390400        0.48459008433706
N            1.51163984036757        0.83196631055420       -0.30920614452004
C            2.81745172273592        0.63624153434265       -0.47965881040562
O            3.64379808766444        1.48313180272949       -0.79928188768120
C            3.18213672897531       -0.78950080675181       -0.21723397719843
N            2.37407132652089       -1.72917295688683        0.16714963289725
N            3.12073046630121       -2.86502977953077        0.29570802844627
C            4.33562948226517       -2.54357208676571       -0.01815754984107
C            5.52518280462234       -3.42318616889486       -0.03873404665373
O            4.44300105040502       -1.24759217847600       -0.35111009836994
N           -1.42949094683807        2.92872189151290       -0.10864556814979
C           -2.74842850103480        2.75495423271811        0.19199316487299
O           -3.56517660200641        3.70960486860217        0.25169504069177
C           -3.19539382033076        1.39656760357931        0.45007777494748
O           -4.53393244271421        1.28820446601341        0.75895669272005
H           -4.62189927617648       -3.33676454204618        0.09515107308595
H           -5.82327305240257       -2.07130566463167       -0.25065572359292
H           -5.02580072346852       -2.12688519100139        1.34058760532375
H           -1.46876706390805       -1.88393175422048       -1.00687733542117
H           -0.62597891878282       -1.87585811928161        0.55929421805389
H           -1.85242914276554       -3.11169806043279        0.22218626776316
H            1.94752177356375        2.82751896851446       -2.17699711057663
H            0.29806416230449        3.47124890550159       -2.04926029918869
H            0.56144219129180        1.80755245647440       -2.60582791576241
H            2.38978893799785        3.43512237808463        0.19871778650409
H            0.73903413183077        4.03933809200988        0.44823415700018
H            1.39022008113255        2.77243084944113        1.50468475985396
H            0.90853840619981        0.04175833670479       -0.06428397260482
H            5.25532718507442       -4.41227712214390        0.32176468655265
H            5.91482553252646       -3.50177615956777       -1.05314616314630
H            6.30958878778019       -3.00581669817633        0.59086403431770
H           -4.88282794137708        2.19807860111771        0.71228532593862

          :  Hamiltonian                  GFN1-xTB          :
         :: total energy             -83.630210981361 Eh    ::
         :: gradient norm              0.000407143220 Eh/a0 ::
         :: HOMO-LUMO gap              0.672244849202 eV    ::
         :: SCC energy               -84.364702043352 Eh    ::
         :: -> Gsolv                  -0.288825198802 Eh    ::
         :: repulsion energy           0.760563900535 Eh    ::

    * Orbital Energies and Occupations

         #    Occupation            Energy/Eh            Energy/eV
      -------------------------------------------------------------
         1        2.0000           -0.8514896             -23.1702
       ...           ...                  ...                  ...
        56        2.0000           -0.4427644             -12.0482
        57        2.0000           -0.4357629             -11.8577
        58        2.0000           -0.4322454             -11.7620
        59        2.0000           -0.4212056             -11.4616
        60        2.0000           -0.4146857             -11.2842
        61        2.0000           -0.4088822             -11.1262
        62        2.0000           -0.3882623             -10.5652
        63        2.0000           -0.3782995             -10.2941
        64        2.0000           -0.3739581             -10.1759
        65        2.0000           -0.3555851              -9.6760
        66        2.0000           -0.3417498              -9.2995
        67        2.0000           -0.3362824              -9.1507
        68        2.0000           -0.3159265              -8.5968 (HOMO)
        69        0.0000           -0.2912219              -7.9246 (LUMO)
        70                         -0.2458776              -6.6907
        71                         -0.2038699              -5.5476
        72                         -0.1964052              -5.3445
        73                         -0.1796304              -4.8880
        74                         -0.1382585              -3.7622
        75                         -0.1014894              -2.7617
        76                         -0.0989705              -2.6931
        77                         -0.0899697              -2.4482
        78                         -0.0817523              -2.2246
        79                         -0.0743862              -2.0242
       ...                                ...                  ...
       134                          0.7346511              19.9909
      -------------------------------------------------------------
                  HL-Gap            0.0247045 Eh            0.6722 eV

Wiberg/Mayer (AO) data.
largest (>0.10) Wiberg bond orders for each atom

     #   Z sym  total        # sym  WBO       # sym  WBO       # sym  WBO
 ---------------------------------------------------------------------------
     1   6 C    3.943 --     2 O    0.992    27 H    0.983    26 H    0.979
                            28 H    0.971
     2   8 O    1.921 --     1 C    0.992     3 C    0.741
     3   6 C    3.892 --     5 O    1.256     4 C    0.935     6 C    0.905
                             2 O    0.741
     4   6 C    3.988 --    29 H    0.991    31 H    0.988    30 H    0.985
                             3 C    0.935
     5   8 O    1.540 --     3 C    1.256
     6   6 C    3.942 --    24 C    1.532     7 N    1.223     3 C    0.905
     7   7 N    3.043 --     8 C    1.448     6 C    1.223
     8   6 C    3.961 --     7 N    1.448    21 N    1.380     9 C    0.962
     9   6 C    3.922 --    11 C    0.988    10 C    0.983     8 C    0.962
                            12 N    0.918
    10   6 C    3.995 --    34 H    0.987    33 H    0.985    32 H    0.985
                             9 C    0.983
    11   6 C    3.995 --     9 C    0.988    37 H    0.987    35 H    0.985
                            36 H    0.983
    12   7 N    3.398 --    13 C    1.316     9 C    0.918    38 H    0.870
                            14 O    0.190
    13   6 C    3.927 --    14 O    1.553    12 N    1.316    15 C    0.977
    14   8 O    1.873 --    13 C    1.553    12 N    0.190
    15   6 C    3.867 --    16 N    1.622    20 O    1.059    13 C    0.977
    16   7 N    3.014 --    15 C    1.622    17 N    1.189
    17   7 N    2.981 --    18 C    1.618    16 N    1.189
    18   6 C    3.875 --    17 N    1.618    20 O    1.079    19 C    1.029
    19   6 C    3.988 --    18 C    1.029    39 H    0.983    41 H    0.967
                            40 H    0.964
    20   8 O    2.321 --    18 C    1.079    15 C    1.059
    21   7 N    2.970 --     8 C    1.380    22 C    1.227    23 O    0.111
    22   6 C    3.928 --    23 O    1.430    21 N    1.227    24 C    1.126
    23   8 O    1.758 --    22 C    1.430    21 N    0.111
    24   6 C    3.900 --     6 C    1.532    22 C    1.126    25 O    1.010
    25   8 O    1.990 --    24 C    1.010    42 H    0.843
    26   1 H    1.021 --     1 C    0.979
    27   1 H    1.026 --     1 C    0.983
    28   1 H    1.038 --     1 C    0.971
    29   1 H    1.021 --     4 C    0.991
    30   1 H    1.032 --     4 C    0.985
    31   1 H    1.020 --     4 C    0.988
    32   1 H    1.012 --    10 C    0.985
    33   1 H    1.016 --    10 C    0.985
    34   1 H    1.007 --    10 C    0.987
    35   1 H    1.013 --    11 C    0.985
    36   1 H    1.022 --    11 C    0.983
    37   1 H    1.007 --    11 C    0.987
    38   1 H    0.991 --    12 N    0.870
    39   1 H    1.000 --    19 C    0.983
    40   1 H    0.998 --    19 C    0.964
    41   1 H    0.998 --    19 C    0.967
    42   1 H    0.901 --    25 O    0.843
 ---------------------------------------------------------------------------

           -------------------------------------------------
          | TOTAL ENERGY              -83.630210981361 Eh   |
          | GRADIENT NORM               0.000407143220 Eh/α |
          | HOMO-LUMO GAP               0.672244849202 eV   |
           -------------------------------------------------

 * finished run on 2023/06/20 at 17:34:33.700
