   * xtb version 6.5.1 (579679a) compiled by 'ehlert@majestix' on 2022-07-11
          program call               : /lustre/hpc/kemi/ree/PhD/git/ReactivityQM/dep/xtb-6.5.1/bin/xtb --gfn 1 /lustre/hpc/kemi/ree/PhD/git/ReactivityQM/calculations/R02deprot/reac01/conf18/R02deprot_reac01_conf18_gfn1.xyz --opt --vfukui --chrg -1 --uhf 0 --alpb DMSO

   ID    Z sym.   atoms
    1    6 C      1, 3, 5, 7-10, 12, 14, 17, 18, 21, 23
    2    8 O      2, 4, 13, 19, 22, 24
    3    7 N      6, 11, 15, 16, 20
    4    1 H      25-38

      * Solvation model:               ALPB
        Solvent                        DMSO
        Solvent mass                       7.8130E+01 g/mol
          :  Hamiltonian                  GFN1-xTB          :
 * total energy  :   -79.5975042 Eh     change       -0.3100808E-10 Eh
 * total energy  :   -79.6092657 Eh     change       -0.1176156E-01 Eh
 * total energy  :   -79.6136201 Eh     change       -0.4354329E-02 Eh
 * total energy  :   -79.6144589 Eh     change       -0.8388382E-03 Eh
 * total energy  :   -79.6149329 Eh     change       -0.4739849E-03 Eh
 * total energy  :   -79.6151104 Eh     change       -0.1775221E-03 Eh
 * total energy  :   -79.6152364 Eh     change       -0.1260034E-03 Eh
 * total energy  :   -79.6153254 Eh     change       -0.8900315E-04 Eh
 * total energy  :   -79.6153918 Eh     change       -0.6638994E-04 Eh
 * total energy  :   -79.6154559 Eh     change       -0.6406797E-04 Eh
 * total energy  :   -79.6171786 Eh     change       -0.1071479E-04 Eh
 * total energy  :   -79.6171897 Eh     change       -0.1110819E-04 Eh
 * total energy  :   -79.6172010 Eh     change       -0.1132826E-04 Eh
 * total energy  :   -79.6172125 Eh     change       -0.1150592E-04 Eh
 * total energy  :   -79.6172241 Eh     change       -0.1159061E-04 Eh
 * total energy  :   -79.6172356 Eh     change       -0.1151430E-04 Eh
 * total energy  :   -79.6172466 Eh     change       -0.1099162E-04 Eh
 * total energy  :   -79.6172565 Eh     change       -0.9885338E-05 Eh
 * total energy  :   -79.6172604 Eh     change       -0.3913466E-05 Eh
   *** GEOMETRY OPTIMIZATION CONVERGED AFTER 68 ITERATIONS ***

 final structure:
================
38
 xtb: 6.5.1 (579679a)
C            6.78090011932993        0.38912539949368       -0.02058938089301
O            5.48622608962588       -0.11301648334964       -0.33823476239163
C            4.46848212486062        0.35465322158887        0.40489712810773
O            4.64753519744522        1.15221777415715        1.30527021041116
C            3.14704619199906       -0.18263939570852        0.01033506440339
N            2.09361453140007        0.31979348145649        0.73010571424091
C            0.88700301438618       -0.08852566434669        0.41136969961579
C           -0.24847798731633        0.50333878839795        1.24119969216889
C           -0.12516963902150        2.03206812081418        1.26176133234844
C           -0.17862402755505       -0.06635379199595        2.66551926810747
N           -1.50210530651239        0.10540206181419        0.60509155791962
C           -2.72123425565423        0.47059226758766        1.00991602434145
O           -2.98037655786213        1.17293527695432        1.97801518933722
C           -3.77341751522070       -0.08512606748173        0.10852002153328
N           -3.57934929473398       -0.87062778883610       -0.90671418087949
N           -4.80439216303856       -1.11414169840529       -1.45724345866606
C           -5.66581190856378       -0.45982472594971       -0.74237682871202
C           -7.13136622657375       -0.39038212292318       -0.93486221000172
O           -5.07928015415923        0.20842616621561        0.26268871899365
N            0.54993541731317       -0.96006308012564       -0.53919152569510
C            1.53529990516542       -1.51469502514215       -1.28403832654779
O            1.34649574417903       -2.34427102134695       -2.19532207130314
C            2.90731143260052       -1.09323840624422       -0.98533515924079
O            3.85492206780596       -1.66708722856680       -1.76041814287922
H            6.80667473544469        1.47657208373625       -0.13464515897137
H            7.47918552357615       -0.07480080976107       -0.71484815252456
H            7.04931864988479        0.13267967574651        1.00803327919246
H           -0.25780965125602        2.43087971349679        0.25658054428079
H            0.86900689897306        2.29907961235126        1.61925988265676
H           -0.87209028883698        2.47180858614749        1.92027269372846
H            0.80156713923174        0.15322359269770        3.08728637558317
H           -0.94705923676785        0.38105031540976        3.29421283578048
H           -0.32082424154793       -1.14635070084065        2.64422451686241
H           -1.39883689059166       -0.50592810765764       -0.20477888764155
H           -7.41124092355025       -0.96008689236659       -1.81737803854503
H           -7.44246165622460        0.64679320171111       -1.05612100336410
H           -7.64387888117066       -0.79552533659569       -0.06260636481048
H            3.37328402294387       -2.26795599209956       -2.36831209653176

          :  Hamiltonian                  GFN1-xTB          :
         :: total energy             -79.617260405676 Eh    ::
         :: gradient norm              0.000188670917 Eh/a0 ::
         :: HOMO-LUMO gap              2.080397337496 eV    ::
         :: SCC energy               -80.337179744460 Eh    ::
         :: -> Gsolv                  -0.107748750891 Eh    ::
         :: repulsion energy           0.742439324242 Eh    ::

    * Orbital Energies and Occupations

         #    Occupation            Energy/Eh            Energy/eV
      -------------------------------------------------------------
         1        2.0000           -0.8556236             -23.2827
       ...           ...                  ...                  ...
        52        2.0000           -0.4752806             -12.9330
        53        2.0000           -0.4732777             -12.8785
        54        2.0000           -0.4720689             -12.8456
        55        2.0000           -0.4544683             -12.3667
        56        2.0000           -0.4510328             -12.2732
        57        2.0000           -0.4504730             -12.2580
        58        2.0000           -0.4413136             -12.0088
        59        2.0000           -0.4388381             -11.9414
        60        2.0000           -0.4306638             -11.7190
        61        2.0000           -0.4210605             -11.4576
        62        2.0000           -0.4042883             -11.0012
        63        2.0000           -0.3773410             -10.2680
        64        2.0000           -0.3734531             -10.1622 (HOMO)
        65                         -0.2969999              -8.0818 (LUMO)
        66                         -0.2783773              -7.5750
        67                         -0.2499347              -6.8011
        68                         -0.2300902              -6.2611
        69                         -0.1921471              -5.2286
        70                         -0.1855995              -5.0504
        71                         -0.1399318              -3.8077
        72                         -0.1285073              -3.4969
        73                         -0.1102552              -3.0002
        74                         -0.1061028              -2.8872
        75                         -0.1036240              -2.8198
       ...                                ...                  ...
       124                          0.7408562              20.1597
      -------------------------------------------------------------
                  HL-Gap            0.0764532 Eh            2.0804 eV

Wiberg/Mayer (AO) data.
largest (>0.10) Wiberg bond orders for each atom

     #   Z sym  total        # sym  WBO       # sym  WBO       # sym  WBO
 ---------------------------------------------------------------------------
     1   6 C    3.887 --    26 H    0.987    25 H    0.980    27 H    0.980
                             2 O    0.912
     2   8 O    2.183 --     3 C    1.083     1 C    0.912     4 O    0.124
     3   6 C    3.838 --     4 O    1.633     2 O    1.083     5 C    1.027
     4   8 O    1.895 --     3 C    1.633     2 O    0.124
     5   6 C    3.963 --    23 C    1.481     6 N    1.199     3 C    1.027
     6   7 N    2.998 --     7 C    1.473     5 C    1.199
     7   6 C    3.958 --     6 N    1.473    20 N    1.357     8 C    0.970
     8   6 C    3.929 --     9 C    0.987    10 C    0.981     7 C    0.970
                            11 N    0.923
     9   6 C    3.994 --     8 C    0.987    28 H    0.987    30 H    0.983
                            29 H    0.983
    10   6 C    3.994 --    33 H    0.986    31 H    0.985    32 H    0.983
                             8 C    0.981
    11   7 N    3.386 --    12 C    1.302     8 C    0.923    34 H    0.871
                            13 O    0.188
    12   6 C    3.925 --    13 O    1.563    11 N    1.302    14 C    0.979
    13   8 O    1.883 --    12 C    1.563    11 N    0.188
    14   6 C    3.869 --    15 N    1.620    19 O    1.060    12 C    0.979
    15   7 N    3.010 --    14 C    1.620    16 N    1.191
    16   7 N    2.980 --    17 C    1.615    15 N    1.191
    17   6 C    3.874 --    16 N    1.615    19 O    1.080    18 C    1.030
    18   6 C    3.988 --    17 C    1.030    35 H    0.983    36 H    0.965
                            37 H    0.964
    19   8 O    2.324 --    17 C    1.080    14 C    1.060
    20   7 N    3.014 --     7 C    1.357    21 C    1.248    22 O    0.125
    21   6 C    3.930 --    22 O    1.471    20 N    1.248    23 C    1.073
    22   8 O    1.807 --    21 C    1.471    20 N    0.125
    23   6 C    3.906 --     5 C    1.481    21 C    1.073    24 O    1.071
    24   8 O    2.048 --    23 C    1.071    38 H    0.815
    25   1 H    1.011 --     1 C    0.980
    26   1 H    1.013 --     1 C    0.987
    27   1 H    1.011 --     1 C    0.980
    28   1 H    1.006 --     9 C    0.987
    29   1 H    1.018 --     9 C    0.983
    30   1 H    1.012 --     9 C    0.983
    31   1 H    1.011 --    10 C    0.985
    32   1 H    1.011 --    10 C    0.983
    33   1 H    1.006 --    10 C    0.986
    34   1 H    0.982 --    11 N    0.871
    35   1 H    0.999 --    18 C    0.983
    36   1 H    0.998 --    18 C    0.965
    37   1 H    0.998 --    18 C    0.964
    38   1 H    0.876 --    24 O    0.815
 ---------------------------------------------------------------------------

           -------------------------------------------------
          | TOTAL ENERGY              -79.617260405676 Eh   |
          | GRADIENT NORM               0.000188670917 Eh/α |
          | HOMO-LUMO GAP               2.080397337496 eV   |
           -------------------------------------------------

 * finished run on 2023/06/20 at 17:32:24.328
