   * xtb version 6.5.1 (579679a) compiled by 'ehlert@majestix' on 2022-07-11
          program call               : /lustre/hpc/kemi/ree/PhD/git/ReactivityQM/dep/xtb-6.5.1/bin/xtb --gfn 1 /lustre/hpc/kemi/ree/PhD/git/ReactivityQM/calculations/R02oxygendeprot/reac01prodN08/conf09/R02oxygendeprot_reac01prodN08_conf09_gfn1.xyz --opt --vfukui --chrg 0 --uhf 0 --alpb DMSO

   ID    Z sym.   atoms
    1    6 C      1, 3, 5, 7-10, 12, 14, 17, 18, 21, 23, 25
    2    8 O      2, 4, 13, 19, 22, 24
    3    7 N      6, 11, 15, 16, 20
    4    1 H      26-42

      * Solvation model:               ALPB
        Solvent                        DMSO
        Solvent mass                       7.8130E+01 g/mol
          :  Hamiltonian                  GFN1-xTB          :
 * total energy  :   -82.9945885 Eh     change       -0.1593037E-10 Eh
 * total energy  :   -83.0102128 Eh     change       -0.1562423E-01 Eh
 * total energy  :   -83.0155307 Eh     change       -0.5317936E-02 Eh
 * total energy  :   -83.0165918 Eh     change       -0.1061084E-02 Eh
 * total energy  :   -83.0170142 Eh     change       -0.4223886E-03 Eh
 * total energy  :   -83.0171575 Eh     change       -0.1433397E-03 Eh
 * total energy  :   -83.0172442 Eh     change       -0.8673592E-04 Eh
 * total energy  :   -83.0173034 Eh     change       -0.5910742E-04 Eh
 * total energy  :   -83.0173505 Eh     change       -0.4713249E-04 Eh
 * total energy  :   -83.0173978 Eh     change       -0.4727963E-04 Eh
 * total energy  :   -83.0174913 Eh     change       -0.2964727E-04 Eh
 * total energy  :   -83.0175146 Eh     change       -0.2336099E-04 Eh
 * total energy  :   -83.0175541 Eh     change       -0.3944725E-04 Eh
 * total energy  :   -83.0175794 Eh     change       -0.2534563E-04 Eh
 * total energy  :   -83.0175938 Eh     change       -0.1441019E-04 Eh
 * total energy  :   -83.0176086 Eh     change       -0.1474086E-04 Eh
 * total energy  :   -83.0176144 Eh     change       -0.5824876E-05 Eh
 * total energy  :   -83.0176218 Eh     change       -0.7450495E-05 Eh
 * total energy  :   -83.0176260 Eh     change       -0.4202969E-05 Eh
   *** GEOMETRY OPTIMIZATION CONVERGED AFTER 21 ITERATIONS ***

 final structure:
================
42
 xtb: 6.5.1 (579679a)
C           -5.85564094124430        2.41596780598153        0.63094771333332
O           -4.87211457416745        1.38142237396824        0.53632881917891
C           -3.70337632241181        1.72503743866426        0.00054143082870
O           -3.45894188926564        2.84758960740121       -0.38224219672126
C           -2.71481017408741        0.60652419429936       -0.09440791690085
N           -1.53245804166320        1.01374937796466       -0.65740714352150
C           -0.57557440653442        0.16857379063111       -0.81660040918476
C            0.71919890854181        0.58508385210064       -1.47902568167881
C            0.81981654555918        2.11226951295954       -1.52874109035677
C            0.75355800452513       -0.02095235704733       -2.89060554909832
N            1.81554039604502        0.03511173324488       -0.67363458429988
C            3.11955581944263        0.18015438272907       -1.00107445348662
O            3.54405961097622        0.69568708313271       -2.01837794078025
C            3.99071121033646       -0.38846273795927        0.05897166601656
N            3.59092678073661       -0.92657706234820        1.17222681226093
N            4.71047379400300       -1.29994769818490        1.85188310777406
C            5.72291079381598       -0.96407083722466        1.11002422837448
C            7.16018939532545       -1.15111729340081        1.40697622517430
O            5.33259729017176       -0.38361296882034       -0.03374220696642
N           -0.70652493685180       -1.13728005865381       -0.44635908692808
C           -1.83829437298335       -1.67393118600403        0.13121462654989
O           -1.86378181309629       -2.85860835698796        0.43158823667583
C           -2.91585969259940       -0.69501802747274        0.31183132807358
O           -4.08801938573935       -1.04135536433934        0.85927646277765
C           -4.39046514718930       -2.37034627746763        1.28549903389297
H           -6.13921643043782        2.75457224638825       -0.36862908674231
H           -5.46086799234851        3.26097387621498        1.20019739710975
H           -6.71400723489289        1.98384665112028        1.14088274615725
H            1.73367166764927        2.40781699426561       -2.04023032356424
H            0.82466001982736        2.51861488849387       -0.51843956547758
H           -0.03871004637528        2.51238288641315       -2.06612064087631
H            1.65149636881386        0.29916675197763       -3.41531195479222
H            0.74609860970413       -1.10739331864914       -2.82842751863647
H           -0.12087557673973        0.30992379003898       -3.44865297443242
H            1.60379665416746       -0.33917589572087        0.23870197614836
H            7.64084311886976       -1.69683859205359        0.59515110969875
H            7.65065467336188       -0.18142985559339        1.49871366989902
H            7.27169070758953       -1.70309999766012        2.33716824876606
H            0.05401334645833       -1.78290044037158       -0.59681814724588
H           -4.34505963481510       -3.07173327319785        0.44952987299154
H           -3.71223592849906       -2.69504747985621        2.07750575483108
H           -5.40962817398165       -2.32557215897595        1.67161200517865

          :  Hamiltonian                  GFN1-xTB          :
         :: total energy             -83.017626042489 Eh    ::
         :: gradient norm              0.000621968154 Eh/a0 ::
         :: HOMO-LUMO gap              2.771234369279 eV    ::
         :: SCC energy               -83.801368297309 Eh    ::
         :: -> Gsolv                  -0.052150849845 Eh    ::
         :: repulsion energy           0.808644918462 Eh    ::

    * Orbital Energies and Occupations

         #    Occupation            Energy/Eh            Energy/eV
      -------------------------------------------------------------
         1        2.0000           -0.8648570             -23.5340
       ...           ...                  ...                  ...
        55        2.0000           -0.5067803             -13.7902
        56        2.0000           -0.5025692             -13.6756
        57        2.0000           -0.4971432             -13.5280
        58        2.0000           -0.4872148             -13.2578
        59        2.0000           -0.4840610             -13.1720
        60        2.0000           -0.4826428             -13.1334
        61        2.0000           -0.4681189             -12.7382
        62        2.0000           -0.4629058             -12.5963
        63        2.0000           -0.4586339             -12.4801
        64        2.0000           -0.4533047             -12.3350
        65        2.0000           -0.4525151             -12.3136
        66        2.0000           -0.4491459             -12.2219
        67        2.0000           -0.4293652             -11.6836 (HOMO)
        68                         -0.3275242              -8.9124 (LUMO)
        69                         -0.3127112              -8.5093
        70                         -0.2867086              -7.8017
        71                         -0.2579223              -7.0184
        72                         -0.2427356              -6.6052
        73                         -0.2006200              -5.4591
        74                         -0.1635511              -4.4505
        75                         -0.1424927              -3.8774
        76                         -0.1383981              -3.7660
        77                         -0.1336365              -3.6364
        78                         -0.1307880              -3.5589
       ...                                ...                  ...
       134                          0.7257548              19.7488
      -------------------------------------------------------------
                  HL-Gap            0.1018410 Eh            2.7712 eV

Wiberg/Mayer (AO) data.
largest (>0.10) Wiberg bond orders for each atom

     #   Z sym  total        # sym  WBO       # sym  WBO       # sym  WBO
 ---------------------------------------------------------------------------
     1   6 C    3.871 --    28 H    0.986    27 H    0.979    26 H    0.979
                             2 O    0.896
     2   8 O    2.206 --     3 C    1.117     1 C    0.896     4 O    0.134
     3   6 C    3.852 --     4 O    1.654     2 O    1.117     5 C    1.000
     4   8 O    1.916 --     3 C    1.654     2 O    0.134
     5   6 C    3.962 --    23 C    1.483     6 N    1.184     3 C    1.000
     6   7 N    3.029 --     7 C    1.591     5 C    1.184
     7   6 C    3.930 --     6 N    1.591    20 N    1.165     8 C    0.981
     8   6 C    3.933 --     9 C    0.991     7 C    0.981    10 C    0.976
                            11 N    0.921
     9   6 C    3.989 --     8 C    0.991    30 H    0.985    31 H    0.983
                            29 H    0.982
    10   6 C    3.987 --    34 H    0.985    33 H    0.984    32 H    0.977
                             8 C    0.976
    11   7 N    3.333 --    12 C    1.242     8 C    0.921    35 H    0.894
                            13 O    0.175
    12   6 C    3.916 --    13 O    1.601    11 N    1.242    14 C    0.989
    13   8 O    1.917 --    12 C    1.601    11 N    0.175
    14   6 C    3.875 --    15 N    1.609    19 O    1.065    12 C    0.989
    15   7 N    3.018 --    14 C    1.609    16 N    1.201
    16   7 N    2.981 --    17 C    1.603    15 N    1.201
    17   6 C    3.870 --    16 N    1.603    19 O    1.084    18 C    1.031
    18   6 C    3.986 --    17 C    1.031    38 H    0.982    36 H    0.965
                            37 H    0.961
    19   8 O    2.332 --    17 C    1.084    14 C    1.065
    20   7 N    3.465 --     7 C    1.165    21 C    1.130    39 H    0.883
                            22 O    0.133
    21   6 C    3.909 --    22 O    1.577    20 N    1.130    23 C    1.066
    22   8 O    1.904 --    21 C    1.577    20 N    0.133
    23   6 C    3.918 --     5 C    1.483    24 O    1.099    21 C    1.066
    24   8 O    2.195 --    23 C    1.099    25 C    0.895
    25   6 C    3.870 --    42 H    0.984    40 H    0.979    41 H    0.979
                            24 O    0.895
    26   1 H    1.007 --     1 C    0.979
    27   1 H    1.008 --     1 C    0.979
    28   1 H    1.011 --     1 C    0.986
    29   1 H    1.007 --     9 C    0.982
    30   1 H    1.004 --     9 C    0.985
    31   1 H    1.009 --     9 C    0.983
    32   1 H    1.009 --    10 C    0.977
    33   1 H    1.001 --    10 C    0.984
    34   1 H    1.001 --    10 C    0.985
    35   1 H    0.951 --    11 N    0.894
    36   1 H    0.996 --    18 C    0.965
    37   1 H    0.997 --    18 C    0.961
    38   1 H    0.998 --    18 C    0.982
    39   1 H    0.929 --    20 N    0.883
    40   1 H    1.014 --    25 C    0.979
    41   1 H    1.014 --    25 C    0.979
    42   1 H    1.012 --    25 C    0.984
 ---------------------------------------------------------------------------

           -------------------------------------------------
          | TOTAL ENERGY              -83.017626042489 Eh   |
          | GRADIENT NORM               0.000621968154 Eh/α |
          | HOMO-LUMO GAP               2.771234369279 eV   |
           -------------------------------------------------

 * finished run on 2023/06/21 at 17:23:44.684
