   * xtb version 6.5.1 (579679a) compiled by 'ehlert@majestix' on 2022-07-11
          program call               : /lustre/hpc/kemi/ree/PhD/git/ReactivityQM/dep/xtb-6.5.1/bin/xtb --gfn 1 /lustre/hpc/kemi/ree/PhD/git/ReactivityQM/calculations/R02oxygendeprot/reac01prodE03/conf09/R02oxygendeprot_reac01prodE03_conf09_gfn1.xyz --opt --vfukui --chrg -2 --uhf 0 --alpb DMSO

   ID    Z sym.   atoms
    1    6 C      1, 3, 5, 6, 8-11, 13, 15, 18, 19, 22, 24
    2    8 O      2, 4, 14, 20, 23, 25
    3    7 N      7, 12, 16, 17, 21
    4    1 H      26-42

      * Solvation model:               ALPB
        Solvent                        DMSO
        Solvent mass                       7.8130E+01 g/mol
          :  Hamiltonian                  GFN1-xTB          :
 * total energy  :   -83.5556136 Eh     change       -0.1396302E-08 Eh
 * total energy  :   -83.5683958 Eh     change       -0.1278221E-01 Eh
 * total energy  :   -83.5737936 Eh     change       -0.5397768E-02 Eh
 * total energy  :   -83.5752178 Eh     change       -0.1424233E-02 Eh
 * total energy  :   -83.5763646 Eh     change       -0.1146832E-02 Eh
 * total energy  :   -83.5769642 Eh     change       -0.5995189E-03 Eh
 * total energy  :   -83.5773991 Eh     change       -0.4348966E-03 Eh
 * total energy  :   -83.5777168 Eh     change       -0.3177754E-03 Eh
 * total energy  :   -83.5779069 Eh     change       -0.1900712E-03 Eh
 * total energy  :   -83.5780317 Eh     change       -0.1248047E-03 Eh
 * total energy  :   -83.5834221 Eh     change       -0.5565261E-05 Eh
 * total energy  :   -83.5834363 Eh     change       -0.1427881E-04 Eh
 * total energy  :   -83.5834451 Eh     change       -0.8767121E-05 Eh
 * total energy  :   -83.5834597 Eh     change       -0.1458037E-04 Eh
 * total energy  :   -83.5834660 Eh     change       -0.6349825E-05 Eh
 * total energy  :   -83.5834766 Eh     change       -0.1057869E-04 Eh
 * total energy  :   -83.5834836 Eh     change       -0.7010092E-05 Eh
 * total energy  :   -83.5834899 Eh     change       -0.6299460E-05 Eh
 * total energy  :   -83.5834937 Eh     change       -0.3824865E-05 Eh
   *** GEOMETRY OPTIMIZATION CONVERGED AFTER 56 ITERATIONS ***

 final structure:
================
42
 xtb: 6.5.1 (579679a)
C           -5.44533875564865        1.28810440037465        1.70598181514336
O           -5.15265160538029        0.19476215824360        0.83779373828100
C           -3.92978555405236        0.23347185209308        0.19223520729317
O           -3.96177924663762        0.87174744417135       -1.05466379960613
C           -4.87808694029808        0.33779034090050       -1.99514898530875
C           -2.74912024216711       -0.29374825669124        0.67969651028700
N           -1.66924267123957       -0.25482682112850       -0.20686976906991
C           -0.54241521409277       -0.78051949957017        0.13821636581127
C            0.62620463014152       -0.78835030365568       -0.83419278294115
C            0.70155820414109       -2.18202622847427       -1.48004409657676
C            0.41507021858170        0.29185283746771       -1.90456555387091
N            1.84110672801099       -0.53231305757325       -0.05408022413907
C            3.07920278466359       -0.36057684370576       -0.69160355335121
O            3.33308389366409       -0.81209185154368       -1.82849568571689
C            4.00381037513395        0.33252933303192        0.14803789481613
N            3.74279878443851        0.85276161897927        1.35241412118903
N            4.90590044364699        1.42846296973776        1.78602097401887
C            5.79383519264811        1.24574896385745        0.86471612309780
C            7.20958151745758        1.69105367646045        0.88441262558208
O            5.31821817818684        0.56651139714358       -0.20660219227800
N           -0.35562395597771       -1.39456831453665        1.33782477995591
C           -1.32969766880209       -1.44426954355090        2.34892468808742
O           -1.00857250959152       -2.00531766364625        3.42953557422154
C           -2.60369145868463       -0.84213805155551        2.02529811660556
O           -3.54318494692581       -0.78494978208358        2.89184541029541
H           -6.47873093935596        1.16739306893624        2.03555675043062
H           -4.78285934135371        1.28183067729314        2.58059848993895
H           -5.34653436266397        2.24712379803807        1.18343803446263
H           -4.58652135467949       -0.67355222120469       -2.31042401680345
H           -5.89520313312965        0.29994812016107       -1.58630715554278
H           -4.87117789328476        0.99696905334747       -2.86478261360258
H           -0.25055382651764       -2.41392862275022       -1.95700834418385
H            0.90643195157496       -2.93288429113310       -0.71741138277189
H            1.48861055729325       -2.21942607350603       -2.23101291727052
H            0.41419094957597        1.27972065662339       -1.44385666911556
H           -0.54789951401392        0.13477062487731       -2.39037872969066
H            1.20433546074257        0.24734437238751       -2.65309956082854
H            1.70412668923213        0.12654345364789        0.70651947197139
H            7.41319609405591        2.21565395564290        1.81484739592365
H            7.87856835817227        0.83425776380757        0.80087896729559
H            7.41066737687589        2.35684122579839        0.04504887345914
H            0.53817374625536       -1.80770733671254        1.55227110449652

          :  Hamiltonian                  GFN1-xTB          :
         :: total energy             -83.583493745523 Eh    ::
         :: gradient norm              0.000573764916 Eh/a0 ::
         :: HOMO-LUMO gap              0.040214525834 eV    ::
         :: SCC energy               -84.306014281250 Eh    ::
         :: -> Gsolv                  -0.269291602152 Eh    ::
         :: repulsion energy           0.747738432323 Eh    ::

    * Orbital Energies and Occupations

         #    Occupation            Energy/Eh            Energy/eV
      -------------------------------------------------------------
         1        2.0000           -0.8015703             -21.8118
       ...           ...                  ...                  ...
        56        2.0000           -0.4338394             -11.8054
        57        2.0000           -0.4299715             -11.7001
        58        2.0000           -0.4232295             -11.5167
        59        2.0000           -0.4087607             -11.1229
        60        2.0000           -0.4062300             -11.0541
        61        2.0000           -0.4047224             -11.0131
        62        2.0000           -0.4031416             -10.9700
        63        2.0000           -0.3978360             -10.8257
        64        2.0000           -0.3891815             -10.5902
        65        2.0000           -0.3776199             -10.2756
        66        2.0000           -0.3465767              -9.4308
        67        2.0000           -0.3423499              -9.3158
        68        1.3704           -0.2688001              -7.3144 (HOMO)
        69        0.6296           -0.2673222              -7.2742 (LUMO)
        70                         -0.2103778              -5.7247
        71                         -0.2066473              -5.6232
        72                         -0.1799355              -4.8963
        73                         -0.1408618              -3.8330
        74                         -0.1243733              -3.3844
        75                         -0.1131497              -3.0790
        76                         -0.1031084              -2.8057
        77                         -0.0974154              -2.6508
        78                         -0.0926913              -2.5223
        79                         -0.0764069              -2.0791
       ...                                ...                  ...
       134                          0.7274706              19.7955
      -------------------------------------------------------------
                  HL-Gap            0.0014779 Eh            0.0402 eV

Wiberg/Mayer (AO) data.
largest (>0.10) Wiberg bond orders for each atom

     #   Z sym  total        # sym  WBO       # sym  WBO       # sym  WBO
 ---------------------------------------------------------------------------
     1   6 C    3.903 --    26 H    0.987    28 H    0.984    27 H    0.978
                             2 O    0.924
     2   8 O    2.019 --     3 C    0.962     1 C    0.924
     3   6 C    3.543 --     6 C    1.465     2 O    0.962     4 O    0.936
     4   8 O    2.008 --     5 C    0.941     3 C    0.936
     5   6 C    3.914 --    31 H    0.986    29 H    0.981    30 H    0.981
                             4 O    0.941
     6   6 C    3.942 --     3 C    1.465    24 C    1.121     7 N    1.109
     7   7 N    2.963 --     8 C    1.579     6 C    1.109    21 N    0.111
     8   6 C    3.913 --     7 N    1.579    21 N    1.161     9 C    0.975
     9   6 C    3.950 --    11 C    0.991    10 C    0.984     8 C    0.975
                            12 N    0.940
    10   6 C    3.991 --    32 H    0.988    33 H    0.986     9 C    0.984
                            34 H    0.980
    11   6 C    3.993 --     9 C    0.991    35 H    0.987    37 H    0.985
                            36 H    0.984
    12   7 N    3.143 --    13 C    1.078     9 C    0.940    38 H    0.918
                            14 O    0.108
    13   6 C    3.748 --    14 O    1.450    15 C    1.154    12 N    1.078
    14   8 O    1.692 --    13 C    1.450    12 N    0.108
    15   6 C    3.694 --    16 N    1.393    13 C    1.154    20 O    0.977
    16   7 N    2.743 --    15 C    1.393    17 N    1.184
    17   7 N    2.980 --    18 C    1.629    16 N    1.184
    18   6 C    3.820 --    17 N    1.629    20 O    1.050    19 C    1.024
    19   6 C    3.994 --    18 C    1.024    39 H    0.986    41 H    0.971
                            40 H    0.971
    20   8 O    2.184 --    18 C    1.050    15 C    0.977
    21   7 N    3.385 --     8 C    1.161    22 C    1.039    42 H    0.907
                             7 N    0.111
    22   6 C    3.778 --    23 O    1.423    24 C    1.147    21 N    1.039
    23   8 O    1.649 --    22 C    1.423
    24   6 C    3.810 --    25 O    1.374    22 C    1.147     6 C    1.121
    25   8 O    1.602 --    24 C    1.374
    26   1 H    1.021 --     1 C    0.987
    27   1 H    1.043 --     1 C    0.978
    28   1 H    1.016 --     1 C    0.984
    29   1 H    1.014 --     5 C    0.981
    30   1 H    1.021 --     5 C    0.981
    31   1 H    1.020 --     5 C    0.986
    32   1 H    1.008 --    10 C    0.988
    33   1 H    1.010 --    10 C    0.986
    34   1 H    1.023 --    10 C    0.980
    35   1 H    1.010 --    11 C    0.987
    36   1 H    1.022 --    11 C    0.984
    37   1 H    1.014 --    11 C    0.985
    38   1 H    0.979 --    12 N    0.918
    39   1 H    1.004 --    19 C    0.986
    40   1 H    1.001 --    19 C    0.971
    41   1 H    1.001 --    19 C    0.971
    42   1 H    0.966 --    21 N    0.907
 ---------------------------------------------------------------------------

           -------------------------------------------------
          | TOTAL ENERGY              -83.583493745523 Eh   |
          | GRADIENT NORM               0.000573764916 Eh/α |
          | HOMO-LUMO GAP               0.040214525834 eV   |
           -------------------------------------------------

 * finished run on 2023/06/21 at 17:02:53.901
