                         Program Version 5.0.1 -  RELEASE  -
|  1> # ORCA input file
|  2> ! SP r2SCAN-3c CPCM
|  3>
|  4> %maxcore 1875.0
|  5> %pal nprocs 4 end
|  6> %cpcm smd true SMDsolvent "DMSO" end
|  7>
|  8> *xyz -2 1
|  9> C      -6.477824   -0.317388    0.676867
| 10> O      -5.303019    0.081908   -0.002297
| 11> C      -4.152909   -0.564227    0.377099
| 12> O      -4.210786   -1.422173    1.262694
| 13> C      -2.944861   -0.162877   -0.326274
| 14> C      -2.943564    0.823862   -1.353644
| 15> O      -3.933639    1.526199   -1.717352
| 16> C      -1.643475    0.976102   -2.086239
| 17> O      -1.512996    1.618031   -3.141200
| 18> N      -0.568372    0.327488   -1.562586
| 19> C      -0.571002   -0.508035   -0.377591
| 20> C       0.242401   -1.776989   -0.707668
| 21> C       0.163035    0.290904    0.835109
| 22> C       0.061145   -0.556320    2.109121
| 23> C      -0.548333    1.626128    1.071505
| 24> N       1.569725    0.470856    0.550545
| 25> C       2.163117    1.438388   -0.217785
| 26> O       1.601483    2.475427   -0.621208
| 27> C       3.557164    1.158430   -0.496702
| 28> N       4.414142    1.916981   -1.159799
| 29> N       5.605051    1.240570   -1.174141
| 30> C       5.423347    0.131554   -0.537470
| 31> C       6.419787   -0.937993   -0.288792
| 32> O       4.158780   -0.004092   -0.075493
| 33> N      -1.851757   -0.892316    0.058246
| 34> H      -6.400615   -0.115886    1.751306
| 35> H      -7.306375    0.255495    0.259468
| 36> H      -6.669473   -1.387631    0.539020
| 37> H       0.302524    0.406263   -2.063714
| 38> H      -0.200867   -2.261247   -1.576952
| 39> H       1.280139   -1.536398   -0.930044
| 40> H       0.204205   -2.470653    0.128526
| 41> H      -0.969321   -0.892741    2.238202
| 42> H       0.357700    0.030309    2.978528
| 43> H       0.708130   -1.430210    2.052637
| 44> H      -1.553150    1.432588    1.448789
| 45> H      -0.005005    2.212092    1.812645
| 46> H      -0.625410    2.209680    0.154988
| 47> H       2.156146   -0.312091    0.788336
| 48> H       7.394485   -0.617905   -0.649034
| 49> H       6.480398   -1.156796    0.776859
| 50> H       6.129850   -1.853899   -0.804510
| 51> **                         ****END OF INPUT****

CARTESIAN COORDINATES (ANGSTROEM)
---------------------------------
  C     -6.477824   -0.317388    0.676867
  O     -5.303019    0.081908   -0.002297
  C     -4.152909   -0.564227    0.377099
  O     -4.210786   -1.422173    1.262694
  C     -2.944861   -0.162877   -0.326274
  C     -2.943564    0.823862   -1.353644
  O     -3.933639    1.526199   -1.717352
  C     -1.643475    0.976102   -2.086239
  O     -1.512996    1.618031   -3.141200
  N     -0.568372    0.327488   -1.562586
  C     -0.571002   -0.508035   -0.377591
  C      0.242401   -1.776989   -0.707668
  C      0.163035    0.290904    0.835109
  C      0.061145   -0.556320    2.109121
  C     -0.548333    1.626128    1.071505
  N      1.569725    0.470856    0.550545
  C      2.163117    1.438388   -0.217785
  O      1.601483    2.475427   -0.621208
  C      3.557164    1.158430   -0.496702
  N      4.414142    1.916981   -1.159799
  N      5.605051    1.240570   -1.174141
  C      5.423347    0.131554   -0.537470
  C      6.419787   -0.937993   -0.288792
  O      4.158780   -0.004092   -0.075493
  N     -1.851757   -0.892316    0.058246
  H     -6.400615   -0.115886    1.751306
  H     -7.306375    0.255495    0.259468
  H     -6.669473   -1.387631    0.539020
  H      0.302524    0.406263   -2.063714
  H     -0.200867   -2.261247   -1.576952
  H      1.280139   -1.536398   -0.930044
  H      0.204205   -2.470653    0.128526
  H     -0.969321   -0.892741    2.238202
  H      0.357700    0.030309    2.978528
  H      0.708130   -1.430210    2.052637
  H     -1.553150    1.432588    1.448789
  H     -0.005005    2.212092    1.812645
  H     -0.625410    2.209680    0.154988
  H      2.156146   -0.312091    0.788336
  H      7.394485   -0.617905   -0.649034
  H      6.480398   -1.156796    0.776859
  H      6.129850   -1.853899   -0.804510

 Total Charge           Charge          ....   -2
 Multiplicity           Mult            ....    1
 Number of Electrons    NEL             ....  186
 Basis Dimension        Dim             ....  615

ORBITAL ENERGIES
----------------

  NO   OCC          E(Eh)            E(eV)
   0   2.0000     -19.030357      -517.8423
   1   2.0000     -18.951078      -515.6851
   2   2.0000     -18.884772      -513.8808
   3   2.0000     -18.884526      -513.8741
   4   2.0000     -18.875707      -513.6341
   5   2.0000     -18.847120      -512.8562
   6   2.0000     -14.174718      -385.7137
   7   2.0000     -14.167996      -385.5308
   8   2.0000     -14.167776      -385.5248
   9   2.0000     -14.144502      -384.8915
  10   2.0000     -14.069598      -382.8532
  11   2.0000     -10.118530      -275.3392
  12   2.0000     -10.107521      -275.0396
  13   2.0000     -10.104080      -274.9460
  14   2.0000     -10.101672      -274.8805
  15   2.0000     -10.082571      -274.3607
  16   2.0000     -10.069968      -274.0178
  17   2.0000     -10.057106      -273.6678
  18   2.0000     -10.052787      -273.5502
  19   2.0000     -10.034793      -273.0606
  20   2.0000     -10.034376      -273.0493
  21   2.0000     -10.009515      -272.3727
  22   2.0000      -9.999332      -272.0957
  23   2.0000      -9.996306      -272.0133
  24   2.0000      -9.994810      -271.9726
  25   2.0000      -1.112428       -30.2707
  26   2.0000      -1.018758       -27.7218
  27   2.0000      -0.966598       -26.3025
  28   2.0000      -0.958159       -26.0728
  29   2.0000      -0.941158       -25.6102
  30   2.0000      -0.924481       -25.1564
  31   2.0000      -0.897275       -24.4161
  32   2.0000      -0.886108       -24.1122
  33   2.0000      -0.863868       -23.5071
  34   2.0000      -0.799077       -21.7440
  35   2.0000      -0.789880       -21.4937
  36   2.0000      -0.734113       -19.9762
  37   2.0000      -0.696808       -18.9611
  38   2.0000      -0.691538       -18.8177
  39   2.0000      -0.663914       -18.0660
  40   2.0000      -0.637792       -17.3552
  41   2.0000      -0.634773       -17.2730
  42   2.0000      -0.614555       -16.7229
  43   2.0000      -0.584015       -15.8919
  44   2.0000      -0.571628       -15.5548
  45   2.0000      -0.565319       -15.3831
  46   2.0000      -0.541254       -14.7283
  47   2.0000      -0.503973       -13.7138
  48   2.0000      -0.500263       -13.6129
  49   2.0000      -0.493926       -13.4404
  50   2.0000      -0.461421       -12.5559
  51   2.0000      -0.452310       -12.3080
  52   2.0000      -0.449325       -12.2267
  53   2.0000      -0.436370       -11.8742
  54   2.0000      -0.430816       -11.7231
  55   2.0000      -0.419458       -11.4140
  56   2.0000      -0.410540       -11.1713
  57   2.0000      -0.405271       -11.0280
  58   2.0000      -0.391503       -10.6533
  59   2.0000      -0.386689       -10.5223
  60   2.0000      -0.382188       -10.3999
  61   2.0000      -0.372864       -10.1462
  62   2.0000      -0.368754       -10.0343
  63   2.0000      -0.363830        -9.9003
  64   2.0000      -0.357037        -9.7155
  65   2.0000      -0.356051        -9.6886
  66   2.0000      -0.350915        -9.5489
  67   2.0000      -0.345561        -9.4032
  68   2.0000      -0.338611        -9.2141
  69   2.0000      -0.334953        -9.1145
  70   2.0000      -0.328719        -8.9449
  71   2.0000      -0.326757        -8.8915
  72   2.0000      -0.325479        -8.8567
  73   2.0000      -0.321761        -8.7556
  74   2.0000      -0.315280        -8.5792
  75   2.0000      -0.307007        -8.3541
  76   2.0000      -0.290808        -7.9133
  77   2.0000      -0.288844        -7.8598
  78   2.0000      -0.287825        -7.8321
  79   2.0000      -0.283580        -7.7166
  80   2.0000      -0.272048        -7.4028
  81   2.0000      -0.243332        -6.6214
  82   2.0000      -0.234734        -6.3874
  83   2.0000      -0.231903        -6.3104
  84   2.0000      -0.225433        -6.1343
  85   2.0000      -0.208676        -5.6784
  86   2.0000      -0.203065        -5.5257
  87   2.0000      -0.201502        -5.4832
  88   2.0000      -0.196724        -5.3531
  89   2.0000      -0.181684        -4.9439
  90   2.0000      -0.176930        -4.8145
  91   2.0000      -0.141490        -3.8501
  92   2.0000      -0.076643        -2.0856
  93   0.0000      -0.061092        -1.6624
  94   0.0000      -0.027320        -0.7434
  95   0.0000       0.002034         0.0554
  96   0.0000       0.060880         1.6566
  97   0.0000       0.066197         1.8013

MULLIKEN ATOMIC CHARGES
-----------------------
   0 C :   -0.342066
   1 O :   -0.148490
   2 C :    0.099689
   3 O :   -0.443806
   4 C :   -0.047342
   5 C :   -0.167379
   6 O :   -0.387313
   7 C :   -0.070898
   8 O :   -0.410605
   9 N :    0.070101
  10 C :   -0.000528
  11 C :   -0.675977
  12 C :    0.245879
  13 C :   -0.639494
  14 C :   -0.720394
  15 N :   -0.059876
  16 C :   -0.293078
  17 O :   -0.469496
  18 C :    0.375669
  19 N :   -0.233263
  20 N :   -0.290101
  21 C :    0.348318
  22 C :   -0.643717
  23 O :   -0.082946
  24 N :   -0.188530
  25 H :    0.155846
  26 H :    0.156071
  27 H :    0.156049
  28 H :    0.239293
  29 H :    0.168258
  30 H :    0.166481
  31 H :    0.178259
  32 H :    0.200396
  33 H :    0.168179
  34 H :    0.165117
  35 H :    0.169773
  36 H :    0.168856
  37 H :    0.208272
  38 H :    0.298634
  39 H :    0.196649
  40 H :    0.188254
  41 H :    0.191253
Sum of atomic charges:   -2.0000000

LOEWDIN ATOMIC CHARGES
----------------------
   0 C :   -0.065406
   1 O :   -0.621868
   2 C :    0.376371
   3 O :   -0.509919
   4 C :    0.109158
   5 C :    0.177141
   6 O :   -0.623831
   7 C :    0.332902
   8 O :   -0.529273
   9 N :   -0.569000
  10 C :    0.233005
  11 C :   -0.353658
  12 C :    0.097039
  13 C :   -0.368222
  14 C :   -0.354549
  15 N :   -0.635323
  16 C :    0.330252
  17 O :   -0.541724
  18 C :    0.381539
  19 N :   -0.401142
  20 N :   -0.410358
  21 C :    0.345798
  22 C :   -0.327992
  23 O :   -0.435602
  24 N :   -0.778296
  25 H :    0.168154
  26 H :    0.172148
  27 H :    0.168760
  28 H :    0.282012
  29 H :    0.163115
  30 H :    0.161407
  31 H :    0.166879
  32 H :    0.181139
  33 H :    0.159327
  34 H :    0.162925
  35 H :    0.166221
  36 H :    0.161771
  37 H :    0.185938
  38 H :    0.290790
  39 H :    0.185584
  40 H :    0.182926
  41 H :    0.183860

  Mayer bond orders larger than 0.100000
B(  0-C ,  1-O ) :   0.8577 B(  0-C , 25-H ) :   0.9649 B(  0-C , 26-H ) :   0.9717
B(  0-C , 27-H ) :   0.9652 B(  1-O ,  2-C ) :   1.0833 B(  2-C ,  3-O ) :   1.8646
B(  2-C ,  4-C ) :   1.1784 B(  2-C , 24-N ) :   0.1039 B(  4-C ,  5-C ) :   0.9507
B(  4-C ,  6-O ) :  -0.1301 B(  4-C , 24-N ) :   1.0251 B(  5-C ,  6-O ) :   1.9403
B(  5-C ,  7-C ) :   0.8928 B(  7-C ,  8-O ) :   2.0843 B(  7-C ,  9-N ) :   1.0563
B(  9-N , 10-C ) :   0.9560 B(  9-N , 28-H ) :   0.9008 B( 10-C , 11-C ) :   0.9244
B( 10-C , 12-C ) :   0.6257 B( 10-C , 24-N ) :   0.9087 B( 11-C , 29-H ) :   0.9825
B( 11-C , 30-H ) :   0.9806 B( 11-C , 31-H ) :   0.9804 B( 12-C , 13-C ) :   0.9247
B( 12-C , 14-C ) :   0.7577 B( 12-C , 15-N ) :   0.9713 B( 13-C , 32-H ) :   0.9765
B( 13-C , 33-H ) :   0.9729 B( 13-C , 34-H ) :   0.9685 B( 14-C , 35-H ) :   0.9625
B( 14-C , 36-H ) :   0.9866 B( 14-C , 37-H ) :   0.9943 B( 15-N , 16-C ) :   1.0711
B( 15-N , 38-H ) :   0.8829 B( 16-C , 17-O ) :   1.8344 B( 16-C , 18-C ) :   0.8265
B( 17-O , 18-C ) :  -0.1137 B( 18-C , 19-N ) :   1.6203 B( 18-C , 21-C ) :   0.1046
B( 18-C , 23-O ) :   1.0419 B( 19-N , 20-N ) :   1.3018 B( 20-N , 21-C ) :   1.6896
B( 21-C , 22-C ) :   0.8157 B( 21-C , 23-O ) :   1.0379 B( 22-C , 39-H ) :   0.9970
B( 22-C , 40-H ) :   0.9524 B( 22-C , 41-H ) :   0.9446

Dispersion correction           -0.020399619
FINAL SINGLE POINT ENERGY     -1268.837951801614

DIPOLE MOMENT
-------------
                                X             Y             Z
Electronic contribution:      2.95992       8.61431     -10.25787
Nuclear contribution   :      2.60509     -12.58148      13.83678
                        -----------------------------------------
Total Dipole Moment    :      5.56500      -3.96717       3.57891
                        -----------------------------------------
Magnitude (a.u.)       :      7.71468
Magnitude (Debye)      :     19.60916

Rotational constants in cm-1:     0.018690     0.003576     0.003299
Rotational constants in MHz :   560.306392   107.195348    98.886672

                             ****ORCA TERMINATED NORMALLY****
TOTAL RUN TIME: 0 days 0 hours 2 minutes 3 seconds 352 msec
