   * xtb version 6.5.1 (579679a) compiled by 'ehlert@majestix' on 2022-07-11
          program call               : /lustre/hpc/kemi/ree/PhD/git/ReactivityQM/dep/xtb-6.5.1/bin/xtb --gfn 1 /lustre/hpc/kemi/ree/PhD/git/ReactivityQM/calculations/R02oxygendeprot/reac01prodE06/conf13/R02oxygendeprot_reac01prodE06_conf13_gfn1.xyz --opt --vfukui --chrg -2 --uhf 0 --alpb DMSO

   ID    Z sym.   atoms
    1    6 C      1, 3, 5, 6, 8, 11-15, 17, 19, 22, 23
    2    8 O      2, 4, 7, 9, 18, 24
    3    7 N      10, 16, 20, 21, 25
    4    1 H      26-42

      * Solvation model:               ALPB
        Solvent                        DMSO
        Solvent mass                       7.8130E+01 g/mol
          :  Hamiltonian                  GFN1-xTB          :
 * total energy  :   -83.6051542 Eh     change       -0.2314948E-10 Eh
 * total energy  :   -83.6168975 Eh     change       -0.1174337E-01 Eh
 * total energy  :   -83.6209127 Eh     change       -0.4015206E-02 Eh
 * total energy  :   -83.6217532 Eh     change       -0.8404190E-03 Eh
 * total energy  :   -83.6225506 Eh     change       -0.7974090E-03 Eh
 * total energy  :   -83.6230560 Eh     change       -0.5054160E-03 Eh
 * total energy  :   -83.6234714 Eh     change       -0.4154496E-03 Eh
 * total energy  :   -83.6238001 Eh     change       -0.3286332E-03 Eh
 * total energy  :   -83.6240035 Eh     change       -0.2034239E-03 Eh
 * total energy  :   -83.6241280 Eh     change       -0.1244749E-03 Eh
 * total energy  :   -83.6265167 Eh     change       -0.2954249E-04 Eh
 * total energy  :   -83.6265428 Eh     change       -0.2607108E-04 Eh
 * total energy  :   -83.6265698 Eh     change       -0.2699254E-04 Eh
 * total energy  :   -83.6265858 Eh     change       -0.1603520E-04 Eh
 * total energy  :   -83.6265955 Eh     change       -0.9653250E-05 Eh
 * total energy  :   -83.6266121 Eh     change       -0.1658479E-04 Eh
 * total energy  :   -83.6265904 Eh     change        0.2161780E-04 Eh
 * total energy  :   -83.6266169 Eh     change       -0.2644509E-04 Eh
 * total energy  :   -83.6266202 Eh     change       -0.3275928E-05 Eh
   *** GEOMETRY OPTIMIZATION CONVERGED AFTER 50 ITERATIONS ***

 final structure:
================
42
 xtb: 6.5.1 (579679a)
C           -6.47782429778391       -0.31738817694144        0.67686706953810
O           -5.30301912296200        0.08190829618690       -0.00229682572882
C           -4.15290871392977       -0.56422701809898        0.37709881412566
O           -4.21078614827245       -1.42217261514900        1.26269408314785
C           -2.94486128054294       -0.16287667714704       -0.32627433553292
C           -2.94356354063186        0.82386201747732       -1.35364421407409
O           -3.93363868381448        1.52619890842665       -1.71735161386326
C           -1.64347508512981        0.97610176335147       -2.08623857652345
O           -1.51299637178289        1.61803079098741       -3.14119990128077
N           -0.56837231909844        0.32748831730605       -1.56258598132163
C           -0.57100248303616       -0.50803547954440       -0.37759094866509
C            0.24240068948439       -1.77698924849348       -0.70766823239694
C            0.16303455732376        0.29090410407719        0.83510942564530
C            0.06114539297007       -0.55631958392601        2.10912074054178
C           -0.54833263888893        1.62612779169703        1.07150528306563
N            1.56972489930334        0.47085639383320        0.55054546638085
C            2.16311737824078        1.43838762528914       -0.21778514224319
O            1.60148344907290        2.47542725989994       -0.62120829938611
C            3.55716351839992        1.15843016725619       -0.49670185416626
N            4.41414175347858        1.91698065545983       -1.15979866744613
N            5.60505137829209        1.24056963466397       -1.17414059822004
C            5.42334672877964        0.13155423304648       -0.53747026532706
C            6.41978684927932       -0.93799255266957       -0.28879161778107
O            4.15878037516033       -0.00409228063082       -0.07549279154801
N           -1.85175686755675       -0.89231552418239        0.05824579522108
H           -6.40061537631335       -0.11588614729558        1.75130579100815
H           -7.30637451227705        0.25549522816578        0.25946829294456
H           -6.66947298222429       -1.38763110273234        0.53901997049284
H            0.30252375237944        0.40626314533907       -2.06371358597984
H           -0.20086684198974       -2.26124688867511       -1.57695224690662
H            1.28013912240172       -1.53639777514058       -0.93004412925840
H            0.20420531762474       -2.47065345688358        0.12852583550341
H           -0.96932093621275       -0.89274079189190        2.23820202871171
H            0.35770000758444        0.03030900832570        2.97852815175401
H            0.70812962034120       -1.43021002516718        2.05263695962328
H           -1.55314983837407        1.43258775420811        1.44878947441693
H           -0.00500477340652        2.21209180714813        1.81264468361116
H           -0.62541025133774        2.20967987637671        0.15498755819884
H            2.15614649840189       -0.31209101999118        0.78833556979521
H            7.39448543677525       -0.61790496611865       -0.64903400404951
H            6.48039758449847       -1.15679607538231        0.77685871553880
H            6.12984975578566       -1.85389937246126       -0.80450987757882

          :  Hamiltonian                  GFN1-xTB          :
         :: total energy             -83.626620161171 Eh    ::
         :: gradient norm              0.000494045493 Eh/a0 ::
         :: HOMO-LUMO gap              0.295494967240 eV    ::
         :: SCC energy               -84.351957577176 Eh    ::
         :: -> Gsolv                  -0.286170483219 Eh    ::
         :: repulsion energy           0.753322282853 Eh    ::

    * Orbital Energies and Occupations

         #    Occupation            Energy/Eh            Energy/eV
      -------------------------------------------------------------
         1        2.0000           -0.8160521             -22.2059
       ...           ...                  ...                  ...
        56        2.0000           -0.4450149             -12.1095
        57        2.0000           -0.4368011             -11.8860
        58        2.0000           -0.4157136             -11.3121
        59        2.0000           -0.4147125             -11.2849
        60        2.0000           -0.4134720             -11.2511
        61        2.0000           -0.4086824             -11.1208
        62        2.0000           -0.4040623             -10.9951
        63        2.0000           -0.4010647             -10.9135
        64        2.0000           -0.3886869             -10.5767
        65        2.0000           -0.3712277             -10.1016
        66        2.0000           -0.3660403              -9.9605
        67        2.0000           -0.3352393              -9.1223
        68        1.9934           -0.2776106              -7.5542 (HOMO)
        69        0.0066           -0.2667514              -7.2587 (LUMO)
        70                         -0.2349259              -6.3927
        71                         -0.2187644              -5.9529
        72                         -0.1630507              -4.4368
        73                         -0.1475042              -4.0138
        74                         -0.1265909              -3.4447
        75                         -0.1121486              -3.0517
        76                         -0.1026229              -2.7925
        77                         -0.0958784              -2.6090
        78                         -0.0876514              -2.3851
        79                         -0.0788330              -2.1452
       ...                                ...                  ...
       134                          0.7425007              20.2045
      -------------------------------------------------------------
                  HL-Gap            0.0108592 Eh            0.2955 eV

Wiberg/Mayer (AO) data.
largest (>0.10) Wiberg bond orders for each atom

     #   Z sym  total        # sym  WBO       # sym  WBO       # sym  WBO
 ---------------------------------------------------------------------------
     1   6 C    3.912 --    27 H    0.987    26 H    0.980    28 H    0.980
                             2 O    0.940
     2   8 O    2.133 --     3 C    1.012     1 C    0.940
     3   6 C    3.815 --     4 O    1.542     5 C    1.125     2 O    1.012
     4   8 O    1.813 --     3 C    1.542
     5   6 C    3.919 --     6 C    1.245    25 N    1.242     3 C    1.125
                             7 O    0.102
     6   6 C    3.908 --     7 O    1.426     5 C    1.245     8 C    0.992
     7   8 O    1.677 --     6 C    1.426     5 C    0.102
     8   6 C    3.876 --     9 O    1.516    10 N    1.204     6 C    0.992
     9   8 O    1.790 --     8 C    1.516    10 N    0.143
    10   7 N    3.323 --     8 C    1.204    11 C    0.933    29 H    0.913
                             9 O    0.143
    11   6 C    3.937 --    25 N    1.073    12 C    0.979    10 N    0.933
                            13 C    0.852
    12   6 C    3.992 --    30 H    0.985    31 H    0.985    32 H    0.984
                            11 C    0.979
    13   6 C    3.925 --    15 C    1.001    14 C    1.000    16 N    0.958
                            11 C    0.852
    14   6 C    3.994 --    13 C    1.000    34 H    0.986    35 H    0.982
                            33 H    0.978
    15   6 C    3.996 --    13 C    1.001    37 H    0.986    36 H    0.985
                            38 H    0.979
    16   7 N    3.312 --    17 C    1.169    13 C    0.958    39 H    0.912
                            18 O    0.141
    17   6 C    3.900 --    18 O    1.450    16 N    1.169    19 C    1.093
    18   8 O    1.784 --    17 C    1.450    16 N    0.141
    19   6 C    3.747 --    20 N    1.475    17 C    1.093    24 O    0.990
    20   7 N    2.814 --    19 C    1.475    21 N    1.181
    21   7 N    2.980 --    22 C    1.634    20 N    1.181
    22   6 C    3.833 --    21 N    1.634    24 O    1.048    23 C    1.025
    23   6 C    3.993 --    22 C    1.025    40 H    0.985    41 H    0.971
                            42 H    0.968
    24   8 O    2.223 --    22 C    1.048    19 C    0.990
    25   7 N    2.725 --     5 C    1.242    11 C    1.073
    26   1 H    1.018 --     1 C    0.980
    27   1 H    1.018 --     1 C    0.987
    28   1 H    1.018 --     1 C    0.980
    29   1 H    0.965 --    10 N    0.913
    30   1 H    1.016 --    12 C    0.985
    31   1 H    1.007 --    12 C    0.985
    32   1 H    1.015 --    12 C    0.984
    33   1 H    1.030 --    14 C    0.978
    34   1 H    1.006 --    14 C    0.986
    35   1 H    1.005 --    14 C    0.982
    36   1 H    1.014 --    15 C    0.985
    37   1 H    1.009 --    15 C    0.986
    38   1 H    1.028 --    15 C    0.979
    39   1 H    0.963 --    16 N    0.912
    40   1 H    1.003 --    23 C    0.985
    41   1 H    1.000 --    23 C    0.971
    42   1 H    1.000 --    23 C    0.968
 ---------------------------------------------------------------------------

           -------------------------------------------------
          | TOTAL ENERGY              -83.626620161171 Eh   |
          | GRADIENT NORM               0.000494045493 Eh/α |
          | HOMO-LUMO GAP               0.295494967240 eV   |
           -------------------------------------------------

 * finished run on 2023/06/21 at 17:07:52.462
