   * xtb version 6.5.1 (579679a) compiled by 'ehlert@majestix' on 2022-07-11
          program call               : /lustre/hpc/kemi/ree/PhD/git/ReactivityQM/dep/xtb-6.5.1/bin/xtb --gfn 1 /lustre/hpc/kemi/ree/PhD/git/ReactivityQM/calculations/R02oxygendeprot/reac01prodE08/conf14/R02oxygendeprot_reac01prodE08_conf14_gfn1.xyz --opt --vfukui --chrg -2 --uhf 0 --alpb DMSO

   ID    Z sym.   atoms
    1    6 C      1, 3, 5, 7-10, 12, 14, 15, 18, 19, 22, 24
    2    8 O      2, 4, 13, 20, 23, 25
    3    7 N      6, 11, 16, 17, 21
    4    1 H      26-42

      * Solvation model:               ALPB
        Solvent                        DMSO
        Solvent mass                       7.8130E+01 g/mol
          :  Hamiltonian                  GFN1-xTB          :
 * total energy  :   -83.6226450 Eh     change       -0.9933387E-11 Eh
 * total energy  :   -83.6361579 Eh     change       -0.1351291E-01 Eh
 * total energy  :   -83.6411586 Eh     change       -0.5000710E-02 Eh
 * total energy  :   -83.6422619 Eh     change       -0.1103222E-02 Eh
 * total energy  :   -83.6431869 Eh     change       -0.9250092E-03 Eh
 * total energy  :   -83.6436614 Eh     change       -0.4745481E-03 Eh
 * total energy  :   -83.6439808 Eh     change       -0.3193705E-03 Eh
 * total energy  :   -83.6442535 Eh     change       -0.2726814E-03 Eh
 * total energy  :   -83.6445928 Eh     change       -0.3392846E-03 Eh
 * total energy  :   -83.6455591 Eh     change       -0.9663627E-03 Eh
 * total energy  :   -83.6735697 Eh     change       -0.1507959E-04 Eh
 * total energy  :   -83.6735784 Eh     change       -0.8723381E-05 Eh
 * total energy  :   -83.6735887 Eh     change       -0.1022956E-04 Eh
 * total energy  :   -83.6735987 Eh     change       -0.1001493E-04 Eh
 * total energy  :   -83.6736080 Eh     change       -0.9340571E-05 Eh
 * total energy  :   -83.6736178 Eh     change       -0.9769533E-05 Eh
 * total energy  :   -83.6736263 Eh     change       -0.8483882E-05 Eh
 * total energy  :   -83.6736321 Eh     change       -0.5859367E-05 Eh
 * total energy  :   -83.6736365 Eh     change       -0.4376324E-05 Eh
   *** GEOMETRY OPTIMIZATION CONVERGED AFTER 59 ITERATIONS ***

 final structure:
================
42
 xtb: 6.5.1 (579679a)
C           -5.96627365298502        1.45543613726670       -1.30373570680110
O           -4.74991995898520        0.88858048857577       -0.84753037974045
C           -4.69083511983097       -0.48498625883051       -0.87326192864811
O           -5.65376355051709       -1.12585403679140       -1.27502912239003
C           -3.42369062827387       -0.99832200637837       -0.39537959393696
N           -2.49948872384972       -0.03521616292851       -0.01710352591734
C           -1.33941919905065       -0.38516136722555        0.40564077668215
C           -0.31180638636493        0.63774044119367        0.86864232240477
C           -0.48723635712532        1.91889457987218        0.03549158778522
C           -0.60438641636151        0.92862106133050        2.35661455540226
N            1.00756906857240        0.03755606308206        0.68591712944245
C            2.05240550352615        0.74139630901825        1.02586703556595
O            2.13977230924673        1.88490956989201        1.53306240601256
C            3.40516919237259       -0.01387544905711        0.74765976638395
C            4.31977670239928        0.05903295330019        1.97031798788676
N            3.19871984915097       -1.41412993374155        0.34004125342895
N            3.65753250031281       -1.51532408523588       -1.00669465619984
C            4.14964226793639       -0.38549899728017       -1.31731288910130
C            4.79256950717157       -0.05183798396511       -2.61735637310808
O            4.08133793859820        0.58176146810747       -0.37833313567012
N           -0.97901945045568       -1.70874593409189        0.51311152364851
C           -1.78014841001888       -2.75876314880597        0.17894876541184
O           -1.36880805945913       -3.91701925420287        0.29350315322988
C           -3.15705521194535       -2.39140796655294       -0.32683318717091
O           -3.94403215106875       -3.30736382730528       -0.64598587007054
H           -6.81091486297027        1.11107925487627       -0.69729563201062
H           -6.15538634872597        1.18916636288415       -2.34930763604411
H           -5.87061332912119        2.53710468036887       -1.21466502368527
H           -0.23591833010507        1.72251150370695       -1.00754523421184
H            0.15718849107128        2.71145467585441        0.41258403427069
H           -1.52508210446054        2.25061897269979        0.08817695582071
H           -0.45375316272765        0.02506294336508        2.94754488068585
H            0.05895686681675        1.70845609031064        2.72807729344448
H           -1.63747613938637        1.25821958660351        2.47355952653925
H            2.18254022185310       -1.59719229086901        0.30858080976753
H            3.87674990284086       -0.51066174316247        2.78505342646919
H            5.29744036018759       -0.35718716319514        1.73365066569941
H            4.43184285194756        1.09837243438831        2.27684823983255
H            4.27949014015090        0.78769324010752       -3.08601809253922
H            5.83013182777989        0.23814293892688       -2.45497632116906
H            4.75941937015333       -0.91416080155069       -3.27871262240426
H           -0.03322931828786       -1.89910334454665        0.82574583499954

          :  Hamiltonian                  GFN1-xTB          :
         :: total energy             -83.673636516521 Eh    ::
         :: gradient norm              0.000339782007 Eh/a0 ::
         :: HOMO-LUMO gap              2.438199222788 eV    ::
         :: SCC energy               -84.413448304189 Eh    ::
         :: -> Gsolv                  -0.262049284945 Eh    ::
         :: repulsion energy           0.766026434746 Eh    ::

    * Orbital Energies and Occupations

         #    Occupation            Energy/Eh            Energy/eV
      -------------------------------------------------------------
         1        2.0000           -0.7897163             -21.4893
       ...           ...                  ...                  ...
        56        2.0000           -0.4472879             -12.1713
        57        2.0000           -0.4420766             -12.0295
        58        2.0000           -0.4373546             -11.9010
        59        2.0000           -0.4252843             -11.5726
        60        2.0000           -0.4230710             -11.5123
        61        2.0000           -0.4190094             -11.4018
        62        2.0000           -0.3958019             -10.7703
        63        2.0000           -0.3914897             -10.6530
        64        2.0000           -0.3669152              -9.9843
        65        2.0000           -0.3594730              -9.7818
        66        2.0000           -0.3501388              -9.5278
        67        2.0000           -0.3474911              -9.4557
        68        2.0000           -0.3453831              -9.3984 (HOMO)
        69                         -0.2557809              -6.9602 (LUMO)
        70                         -0.2147158              -5.8427
        71                         -0.2137086              -5.8153
        72                         -0.1820850              -4.9548
        73                         -0.1663607              -4.5269
        74                         -0.1255320              -3.4159
        75                         -0.1175161              -3.1978
        76                         -0.0969944              -2.6394
        77                         -0.0929499              -2.5293
        78                         -0.0872345              -2.3738
        79                         -0.0840923              -2.2883
       ...                                ...                  ...
       134                          0.7706287              20.9699
      -------------------------------------------------------------
                  HL-Gap            0.0896022 Eh            2.4382 eV

Wiberg/Mayer (AO) data.
largest (>0.10) Wiberg bond orders for each atom

     #   Z sym  total        # sym  WBO       # sym  WBO       # sym  WBO
 ---------------------------------------------------------------------------
     1   6 C    3.905 --    28 H    0.987    27 H    0.980    26 H    0.980
                             2 O    0.933
     2   8 O    2.130 --     3 C    1.012     1 C    0.933     4 O    0.105
     3   6 C    3.848 --     4 O    1.578     5 C    1.136     2 O    1.012
     4   8 O    1.856 --     3 C    1.578     2 O    0.105
     5   6 C    3.920 --    24 C    1.275     6 N    1.143     3 C    1.136
                            25 O    0.129
     6   7 N    3.018 --     7 C    1.629     5 C    1.143
     7   6 C    3.922 --     6 N    1.629    21 N    1.104     8 C    0.973
     8   6 C    3.973 --     9 C    0.985    11 N    0.981     7 C    0.973
                            10 C    0.969
     9   6 C    3.996 --    29 H    0.987    31 H    0.986     8 C    0.985
                            30 H    0.983
    10   6 C    3.994 --    34 H    0.988    32 H    0.987    33 H    0.981
                             8 C    0.969
    11   7 N    2.937 --    12 C    1.528     8 C    0.981    13 O    0.212
    12   6 C    3.935 --    11 N    1.528    13 O    1.435    14 C    0.886
    13   8 O    1.793 --    12 C    1.435    11 N    0.212
    14   6 C    3.839 --    15 C    0.992    16 N    0.961    12 C    0.886
                            20 O    0.880
    15   6 C    3.996 --    14 C    0.992    37 H    0.987    36 H    0.986
                            38 H    0.983
    16   7 N    3.034 --    17 N    1.006    14 C    0.961    35 H    0.909
    17   7 N    2.969 --    18 C    1.748    16 N    1.006    20 O    0.124
    18   6 C    3.904 --    17 N    1.748    20 O    1.050    19 C    1.017
    19   6 C    3.994 --    18 C    1.017    41 H    0.986    39 H    0.972
                            40 H    0.971
    20   8 O    2.143 --    18 C    1.050    14 C    0.880    17 N    0.124
    21   7 N    3.449 --    22 C    1.187     7 C    1.104    42 H    0.886
                            23 O    0.136
    22   6 C    3.886 --    23 O    1.550    21 N    1.187    24 C    0.973
    23   8 O    1.829 --    22 C    1.550    21 N    0.136
    24   6 C    3.944 --    25 O    1.503     5 C    1.275    22 C    0.973
    25   8 O    1.807 --    24 C    1.503     5 C    0.129
    26   1 H    1.016 --     1 C    0.980
    27   1 H    1.015 --     1 C    0.980
    28   1 H    1.017 --     1 C    0.987
    29   1 H    1.011 --     9 C    0.987
    30   1 H    1.021 --     9 C    0.983
    31   1 H    1.021 --     9 C    0.986
    32   1 H    1.010 --    10 C    0.987
    33   1 H    1.021 --    10 C    0.981
    34   1 H    1.010 --    10 C    0.988
    35   1 H    1.015 --    16 N    0.909
    36   1 H    1.010 --    15 C    0.986
    37   1 H    1.012 --    15 C    0.987
    38   1 H    1.018 --    15 C    0.983
    39   1 H    1.003 --    19 C    0.972
    40   1 H    1.003 --    19 C    0.971
    41   1 H    1.004 --    19 C    0.986
    42   1 H    0.980 --    21 N    0.886
 ---------------------------------------------------------------------------

           -------------------------------------------------
          | TOTAL ENERGY              -83.673636516521 Eh   |
          | GRADIENT NORM               0.000339782007 Eh/α |
          | HOMO-LUMO GAP               2.438199222788 eV   |
           -------------------------------------------------

 * finished run on 2023/06/21 at 17:10:36.190
