   * xtb version 6.5.1 (579679a) compiled by 'ehlert@majestix' on 2022-07-11
          program call               : /lustre/hpc/kemi/ree/PhD/git/ReactivityQM/dep/xtb-6.5.1/bin/xtb --gfn 1 /lustre/hpc/kemi/ree/PhD/git/ReactivityQM/calculations/R03/reac01prodE01/conf06/R03_reac01prodE01_conf06_gfn1.xyz --opt --vfukui --chrg -1 --uhf 0 --alpb DMSO

   ID    Z sym.   atoms
    1    6 C      1-3, 5-7, 9, 10
    2    7 N      4
    3    9 F      8
    4    1 H      11-21

      * Solvation model:               ALPB
        Solvent                        DMSO
        Solvent mass                       7.8130E+01 g/mol
          :  Hamiltonian                  GFN1-xTB          :
 * total energy  :   -31.4534989 Eh     change       -0.1488587E-11 Eh
 * total energy  :   -31.4552732 Eh     change       -0.1774236E-02 Eh
 * total energy  :   -31.4556009 Eh     change       -0.3277227E-03 Eh
 * total energy  :   -31.4556790 Eh     change       -0.7812196E-04 Eh
 * total energy  :   -31.4557498 Eh     change       -0.7076143E-04 Eh
 * total energy  :   -31.4558077 Eh     change       -0.5789898E-04 Eh
 * total energy  :   -31.4558683 Eh     change       -0.6067614E-04 Eh
 * total energy  :   -31.4558955 Eh     change       -0.2713274E-04 Eh
 * total energy  :   -31.4559011 Eh     change       -0.5615628E-05 Eh
 * total energy  :   -31.4559045 Eh     change       -0.3426116E-05 Eh
 * total energy  :   -31.4559082 Eh     change       -0.3708849E-05 Eh
   *** GEOMETRY OPTIMIZATION CONVERGED AFTER 11 ITERATIONS ***

 final structure:
================
21
 xtb: 6.5.1 (579679a)
C           -0.57512181480058        1.58886397919851       -0.88155589815042
C           -0.21618932016149        0.32390250376363       -0.04569768217473
C           -1.55913700328526       -0.28384949593838        0.47677179822274
N           -2.50924403163381       -0.55778926607462       -0.61208493435754
C            0.62869557869369        0.72358667470376        1.15397555747124
C            1.86738618306387        0.19919536803117        1.40717463388173
C            2.42985720262825       -0.74400058599470        0.54759172011479
F            3.69486747492476       -1.25850291496094        0.83185587118080
C            1.76533626927556       -1.16457543751622       -0.60564650995300
C            0.52512747553354       -0.67824215157105       -0.91502279261242
H            0.33441508746402        2.01357314173289       -1.30830345347681
H           -1.25793325901480        1.33074582926153       -1.69361976257881
H           -1.05116946333243        2.34456793595694       -0.25286544479472
H           -1.33448637612985       -1.20285356856205        1.04191058591313
H           -2.03164403174020        0.42810729639976        1.16560940815109
H           -2.20421156625756       -1.38013343254260       -1.12113434982345
H           -3.40687461797196       -0.78173808873334       -0.20853243168520
H            0.20099409639642        1.46635068638165        1.82270698727059
H            2.42558721047214        0.51861455509744        2.28467296089468
H            2.24748662470442       -1.88510479221504       -1.26303550971106
H            0.02625828117125       -1.00071723641839       -1.82477275378269

          :  Hamiltonian                  GFN1-xTB          :
         :: total energy             -31.455908221942 Eh    ::
         :: gradient norm              0.000387593481 Eh/a0 ::
         :: HOMO-LUMO gap              2.351210184706 eV    ::
         :: SCC energy               -31.825663455229 Eh    ::
         :: -> Gsolv                  -0.081330173776 Eh    ::
         :: repulsion energy           0.380256830957 Eh    ::

    * Orbital Energies and Occupations

         #    Occupation            Energy/Eh            Energy/eV
      -------------------------------------------------------------
         1        2.0000           -0.7742003             -21.0671
       ...           ...                  ...                  ...
        16        2.0000           -0.4843158             -13.1789
        17        2.0000           -0.4752328             -12.9317
        18        2.0000           -0.4670768             -12.7098
        19        2.0000           -0.4624153             -12.5830
        20        2.0000           -0.4539630             -12.3530
        21        2.0000           -0.4450727             -12.1110
        22        2.0000           -0.4331434             -11.7864
        23        2.0000           -0.4140952             -11.2681
        24        2.0000           -0.4050613             -11.0223
        25        2.0000           -0.3924691             -10.6796
        26        2.0000           -0.3737785             -10.1710
        27        2.0000           -0.3701683             -10.0728
        28        2.0000           -0.2714609              -7.3868 (HOMO)
        29                         -0.1850555              -5.0356 (LUMO)
        30                         -0.1053198              -2.8659
        31                         -0.0817423              -2.2243
        32                         -0.0752548              -2.0478
        33                         -0.0717772              -1.9532
        34                         -0.0512175              -1.3937
        35                         -0.0466859              -1.2704
        36                         -0.0419988              -1.1428
        37                         -0.0341248              -0.9286
        38                         -0.0251287              -0.6838
        39                         -0.0187521              -0.5103
       ...                                ...                  ...
        62                          0.6500456              17.6886
      -------------------------------------------------------------
                  HL-Gap            0.0864054 Eh            2.3512 eV

Wiberg/Mayer (AO) data.
largest (>0.10) Wiberg bond orders for each atom

     #   Z sym  total        # sym  WBO       # sym  WBO       # sym  WBO
 ---------------------------------------------------------------------------
     1   6 C    3.992 --    11 H    0.989    13 H    0.986    12 H    0.985
                             2 C    0.971
     2   6 C    3.984 --    10 C    1.006     5 C    1.005     1 C    0.971
                             3 C    0.955
     3   6 C    3.963 --     4 N    0.984    15 H    0.982    14 H    0.977
                             2 C    0.955
     4   7 N    2.951 --     3 C    0.984    16 H    0.957    17 H    0.955
     5   6 C    3.924 --     6 C    1.588     2 C    1.005    18 H    0.975
                             7 C    0.108    10 C    0.108
     6   6 C    3.992 --     5 C    1.588     7 C    1.320    19 H    0.972
     7   6 C    3.742 --     6 C    1.320     9 C    1.313     8 F    0.830
                             5 C    0.108    10 C    0.106
     8   9 F    0.922 --     7 C    0.830
     9   6 C    3.992 --    10 C    1.596     7 C    1.313    20 H    0.972
    10   6 C    3.929 --     9 C    1.596     2 C    1.006    21 H    0.974
                             5 C    0.108     7 C    0.106
    11   1 H    1.030 --     1 C    0.989
    12   1 H    1.024 --     1 C    0.985
    13   1 H    1.011 --     1 C    0.986
    14   1 H    1.026 --     3 C    0.977
    15   1 H    1.018 --     3 C    0.982
    16   1 H    0.976 --     4 N    0.957
    17   1 H    0.971 --     4 N    0.955
    18   1 H    1.003 --     5 C    0.975
    19   1 H    1.008 --     6 C    0.972
    20   1 H    1.008 --     9 C    0.972
    21   1 H    1.004 --    10 C    0.974
 ---------------------------------------------------------------------------

           -------------------------------------------------
          | TOTAL ENERGY              -31.455908221942 Eh   |
          | GRADIENT NORM               0.000387593481 Eh/α |
          | HOMO-LUMO GAP               2.351210184706 eV   |
           -------------------------------------------------

 * finished run on 2023/06/20 at 15:12:34.908
