   * xtb version 6.5.1 (579679a) compiled by 'ehlert@majestix' on 2022-07-11
          program call               : /lustre/hpc/kemi/ree/PhD/git/ReactivityQM/dep/xtb-6.5.1/bin/xtb --gfn 1 /lustre/hpc/kemi/ree/PhD/git/ReactivityQM/calculations/R02deprot/reac01prodE05/conf16/R02deprot_reac01prodE05_conf16_gfn1.xyz --opt --vfukui --chrg -2 --uhf 0 --alpb DMSO

   ID    Z sym.   atoms
    1    6 C      1, 3, 5, 6, 8, 11-14, 16, 18, 21, 22, 25
    2    8 O      2, 4, 7, 9, 17, 23
    3    7 N      10, 15, 19, 20, 24
    4    1 H      26-42

      * Solvation model:               ALPB
        Solvent                        DMSO
        Solvent mass                       7.8130E+01 g/mol
          :  Hamiltonian                  GFN1-xTB          :
 * total energy  :   -83.5557976 Eh     change       -0.2028600E-09 Eh
 * total energy  :   -83.5723503 Eh     change       -0.1655263E-01 Eh
 * total energy  :   -83.5786757 Eh     change       -0.6325408E-02 Eh
 * total energy  :   -83.5799626 Eh     change       -0.1286887E-02 Eh
 * total energy  :   -83.5808281 Eh     change       -0.8655550E-03 Eh
 * total energy  :   -83.5811904 Eh     change       -0.3623091E-03 Eh
 * total energy  :   -83.5815940 Eh     change       -0.4036165E-03 Eh
 * total energy  :   -83.5819559 Eh     change       -0.3619142E-03 Eh
 * total energy  :   -83.5822721 Eh     change       -0.3161207E-03 Eh
 * total energy  :   -83.5825135 Eh     change       -0.2414006E-03 Eh
 * total energy  :   -83.5835748 Eh     change        0.3154864E-04 Eh
 * total energy  :   -83.5836489 Eh     change       -0.7412267E-04 Eh
 * total energy  :   -83.5836573 Eh     change       -0.8403303E-05 Eh
 * total energy  :   -83.5836918 Eh     change       -0.3449452E-04 Eh
 * total energy  :   -83.5837016 Eh     change       -0.9803624E-05 Eh
 * total energy  :   -83.5837128 Eh     change       -0.1113915E-04 Eh
 * total energy  :   -83.5837170 Eh     change       -0.4238683E-05 Eh
 * total energy  :   -83.5837181 Eh     change       -0.1080562E-05 Eh
 * total energy  :   -83.5837219 Eh     change       -0.3804776E-05 Eh
   *** GEOMETRY OPTIMIZATION CONVERGED AFTER 39 ITERATIONS ***

 final structure:
================
42
 xtb: 6.5.1 (579679a)
C           -5.07236458986363        1.77068996116233        1.84459953609381
O           -4.59724768665193        0.82196611908112        0.90797931769605
C           -3.22460968923957        0.95558572550908        0.58894804665928
O           -2.57240585731785        1.84646785487986        1.18712546764896
C           -2.77210762409302        0.05996395127265       -0.39041301624129
C           -3.49197784734799       -1.01179488174708       -1.00422916096512
O           -4.87663080199023       -1.09560637243569       -0.92847200854928
C           -2.84579084794929       -2.03755353051441       -1.71996504304058
O           -3.42028092471382       -2.99157487829806       -2.31692438736119
N           -1.42862026315548       -1.99179145687283       -1.72807439679612
C           -0.78259820790064       -0.95237500653830       -1.32222962082056
C            0.74202575358683       -1.03223502419046       -1.49375456390631
C            1.09476826399387       -0.59232259995364       -2.92453434351661
C            1.17712307832256       -2.49862842233994       -1.29800227450014
N            1.39203020578612       -0.19088371057257       -0.49041730532524
C            2.79473598705726       -0.17429460781078       -0.36345254366682
O            3.57141415508375       -0.43449478384519       -1.31023563134927
C            3.18828804432210        0.23477533590733        0.94266145967857
N            2.36755923331160        0.47933258465777        1.97426238847305
N            3.16655757038016        0.80809640052045        3.03514709263489
C            4.39204719765255        0.75347418459383        2.62901355784904
C            5.61195284792575        1.02865425072470        3.42922700191404
O            4.50845608794031        0.40004999474463        1.32455949038982
N           -1.38058398929841        0.14097864882000       -0.76508685017629
C           -0.79767708987675        1.48059543004366       -0.84076853526360
H           -4.54440675263569        1.68379547256473        2.80244852659157
H           -4.94761627524765        2.79405207920100        1.46990837188802
H           -6.13320872080069        1.57209009485925        1.99987975904667
H           -5.22444866096837       -0.39506246272174       -0.35566964075554
H            2.14475186345781       -0.78240223814374       -3.13940032521792
H            0.48418201800348       -1.15852036234976       -3.62817533739107
H            0.89996742707251        0.46899274659843       -3.07004369144083
H            0.65289010964442       -3.13806719413701       -2.00754452197295
H            0.93872300358240       -2.82903607345565       -0.28690787646124
H            2.24963853159765       -2.59500114268731       -1.46009197070531
H            0.93660085368028       -0.24668791259852        0.41744836950611
H            6.14932525417870        1.88682536829301        3.02443694528386
H            5.33123869170859        1.23725712019791        4.45887667642390
H            6.28348053818973        0.17002873225333        3.40555685946022
H           -1.57458244466558        2.19033931128043       -1.13063984492417
H           -0.00764853464248        1.50899406142635       -1.58856965162628
H           -0.38294790811474        1.78854223262067        0.12152267473561

          :  Hamiltonian                  GFN1-xTB          :
         :: total energy             -83.583721902968 Eh    ::
         :: gradient norm              0.000594823721 Eh/a0 ::
         :: HOMO-LUMO gap              0.034485500915 eV    ::
         :: SCC energy               -84.306636751678 Eh    ::
         :: -> Gsolv                  -0.263618311144 Eh    ::
         :: repulsion energy           0.749719227564 Eh    ::

    * Orbital Energies and Occupations

         #    Occupation            Energy/Eh            Energy/eV
      -------------------------------------------------------------
         1        2.0000           -0.7968276             -21.6828
       ...           ...                  ...                  ...
        56        2.0000           -0.4362318             -11.8705
        57        2.0000           -0.4309512             -11.7268
        58        2.0000           -0.4259554             -11.5908
        59        2.0000           -0.4051603             -11.0250
        60        2.0000           -0.4013679             -10.9218
        61        2.0000           -0.3998695             -10.8810
        62        2.0000           -0.3945140             -10.7353
        63        2.0000           -0.3932039             -10.6996
        64        2.0000           -0.3901074             -10.6154
        65        2.0000           -0.3827489             -10.4151
        66        2.0000           -0.3523865              -9.5889
        67        2.0000           -0.3476378              -9.4597
        68        1.3217           -0.2655702              -7.2265 (HOMO)
        69        0.6783           -0.2643028              -7.1920 (LUMO)
        70                         -0.2166682              -5.8958
        71                         -0.2067469              -5.6259
        72                         -0.1548502              -4.2137
        73                         -0.1368270              -3.7233
        74                         -0.1231025              -3.3498
        75                         -0.1074978              -2.9252
        76                         -0.1043851              -2.8405
        77                         -0.0935576              -2.5458
        78                         -0.0898113              -2.4439
        79                         -0.0801225              -2.1802
       ...                                ...                  ...
       134                          0.7009291              19.0733
      -------------------------------------------------------------
                  HL-Gap            0.0012673 Eh            0.0345 eV

Wiberg/Mayer (AO) data.
largest (>0.10) Wiberg bond orders for each atom

     #   Z sym  total        # sym  WBO       # sym  WBO       # sym  WBO
 ---------------------------------------------------------------------------
     1   6 C    3.911 --    28 H    0.987    27 H    0.981    26 H    0.981
                             2 O    0.940
     2   8 O    2.066 --     1 C    0.940     3 C    0.915
     3   6 C    3.735 --     4 O    1.407     5 C    1.318     2 O    0.915
     4   8 O    1.683 --     3 C    1.407     5 C    0.100
     5   6 C    3.741 --     3 C    1.318     6 C    1.216    24 N    0.963
                             4 O    0.100
     6   6 C    3.700 --     8 C    1.288     5 C    1.216     7 O    0.994
     7   8 O    1.942 --     6 C    0.994    29 H    0.836
     8   6 C    3.833 --     9 O    1.403     6 C    1.288    10 N    1.032
     9   8 O    1.620 --     8 C    1.403
    10   7 N    2.967 --    11 C    1.600     8 C    1.032    24 N    0.129
    11   6 C    3.932 --    10 N    1.600    24 N    1.196    12 C    0.966
    12   6 C    3.950 --    13 C    0.986    14 C    0.985    11 C    0.966
                            15 N    0.948
    13   6 C    3.994 --    31 H    0.987    12 C    0.986    32 H    0.980
                            30 H    0.979
    14   6 C    3.992 --    34 H    0.987    12 C    0.985    35 H    0.984
                            33 H    0.983
    15   7 N    3.141 --    16 C    1.063    12 C    0.948    36 H    0.920
                            17 O    0.103
    16   6 C    3.741 --    17 O    1.438    18 C    1.170    15 N    1.063
    17   8 O    1.677 --    16 C    1.438    15 N    0.103
    18   6 C    3.689 --    19 N    1.377    16 C    1.170    23 O    0.971
    19   7 N    2.732 --    18 C    1.377    20 N    1.185
    20   7 N    2.981 --    21 C    1.630    19 N    1.185
    21   6 C    3.817 --    20 N    1.630    23 O    1.046    22 C    1.023
    22   6 C    3.994 --    21 C    1.023    38 H    0.986    39 H    0.973
                            37 H    0.971
    23   8 O    2.174 --    21 C    1.046    18 C    0.971
    24   7 N    3.336 --    11 C    1.196     5 C    0.963    25 C    0.944
                            10 N    0.129
    25   6 C    3.954 --    40 H    0.982    42 H    0.980    41 H    0.980
                            24 N    0.944
    26   1 H    1.021 --     1 C    0.981
    27   1 H    1.019 --     1 C    0.981
    28   1 H    1.018 --     1 C    0.987
    29   1 H    0.896 --     7 O    0.836
    30   1 H    1.025 --    13 C    0.979
    31   1 H    1.012 --    13 C    0.987
    32   1 H    1.011 --    13 C    0.980
    33   1 H    1.028 --    14 C    0.983
    34   1 H    1.010 --    14 C    0.987
    35   1 H    1.014 --    14 C    0.984
    36   1 H    0.983 --    15 N    0.920
    37   1 H    1.001 --    22 C    0.971
    38   1 H    1.005 --    22 C    0.986
    39   1 H    1.001 --    22 C    0.973
    40   1 H    1.016 --    25 C    0.982
    41   1 H    1.021 --    25 C    0.980
    42   1 H    1.034 --    25 C    0.980
 ---------------------------------------------------------------------------

           -------------------------------------------------
          | TOTAL ENERGY              -83.583721902968 Eh   |
          | GRADIENT NORM               0.000594823721 Eh/α |
          | HOMO-LUMO GAP               0.034485500915 eV   |
           -------------------------------------------------

 * finished run on 2023/06/20 at 17:41:25.684
