   * xtb version 6.5.1 (579679a) compiled by 'ehlert@majestix' on 2022-07-11
          program call               : /lustre/hpc/kemi/ree/PhD/git/ReactivityQM/dep/xtb-6.5.1/bin/xtb --gfn 1 /lustre/hpc/kemi/ree/PhD/git/ReactivityQM/calculations/R01/reac01prodN01/conf13/R01_reac01prodN01_conf13_gfn1.xyz --opt --vfukui --chrg 1 --uhf 0 --alpb DMSO

   ID    Z sym.   atoms
    1    6 C      1, 3, 5, 8, 9, 11
    2    8 O      2, 4, 10
    3    7 N      6, 7
    4    1 H      12-20

      * Solvation model:               ALPB
        Solvent                        DMSO
        Solvent mass                       7.8130E+01 g/mol
          :  Hamiltonian                  GFN1-xTB          :
 * total energy  :   -37.5504820 Eh     change       -0.1286082E-10 Eh
 * total energy  :   -37.5661096 Eh     change       -0.1562761E-01 Eh
 * total energy  :   -37.5732232 Eh     change       -0.7113598E-02 Eh
 * total energy  :   -37.5751956 Eh     change       -0.1972460E-02 Eh
 * total energy  :   -37.5764391 Eh     change       -0.1243491E-02 Eh
 * total energy  :   -37.5769860 Eh     change       -0.5468735E-03 Eh
 * total energy  :   -37.5774393 Eh     change       -0.4533246E-03 Eh
 * total energy  :   -37.5777732 Eh     change       -0.3338384E-03 Eh
 * total energy  :   -37.5779666 Eh     change       -0.1934412E-03 Eh
 * total energy  :   -37.5781003 Eh     change       -0.1336925E-03 Eh
 * total energy  :   -37.5792867 Eh     change       -0.4729806E-04 Eh
 * total energy  :   -37.5793504 Eh     change       -0.6370108E-04 Eh
 * total energy  :   -37.5793965 Eh     change       -0.4604730E-04 Eh
 * total energy  :   -37.5794119 Eh     change       -0.1547544E-04 Eh
 * total energy  :   -37.5794715 Eh     change       -0.5960267E-04 Eh
 * total energy  :   -37.5794975 Eh     change       -0.2600340E-04 Eh
 * total energy  :   -37.5795192 Eh     change       -0.2162495E-04 Eh
 * total energy  :   -37.5795292 Eh     change       -0.9986119E-05 Eh
 * total energy  :   -37.5795337 Eh     change       -0.4536268E-05 Eh
   *** GEOMETRY OPTIMIZATION CONVERGED AFTER 36 ITERATIONS ***

 final structure:
================
20
 xtb: 6.5.1 (579679a)
C           -3.83194841399701       -0.63819561769645        0.49117690238678
O           -2.42296927791494       -0.88954435600307        0.66419347782632
C           -1.59610122616495       -0.11503547466628        0.01162173818620
O           -1.88464657003861        0.79247766663910       -0.72257511110378
C           -0.17821281580071       -0.50741774333723        0.29411911379414
N            0.28691350244745       -1.44546668941977        1.02848815888731
N            1.64808784290597       -1.41527632884407        0.97047408672371
C            2.01448828721295       -0.46061436648980        0.20146617272611
C            3.36986082012482       -0.03292812680087       -0.17191499614657
O            0.87993374307927        0.19512292746789       -0.28821313590485
C            0.78551472006093        1.32665638042158       -1.21538967710238
H           -4.07179325345357        0.35602800774737        0.87052072980996
H           -4.34711143307159       -1.40708365057109        1.06195964690210
H           -4.08458667298270       -0.70069991416850       -0.56807934792406
H            4.08970735093126       -0.67716833906530        0.33053846973816
H            3.53729161150965        1.00286006339231        0.12511955617672
H            3.50805956902875       -0.10411823268397       -1.25133420468608
H            1.80357357798642        1.62788274229759       -1.44066424583923
H            0.23398077856682        2.11516811842737       -0.70793512910537
H            0.25995785956975        0.97735193335328       -2.10169520534510

          :  Hamiltonian                  GFN1-xTB          :
         :: total energy             -37.579533694659 Eh    ::
         :: gradient norm              0.000748829478 Eh/a0 ::
         :: HOMO-LUMO gap              3.704614961864 eV    ::
         :: SCC energy               -37.928984236975 Eh    ::
         :: -> Gsolv                  -0.089871391845 Eh    ::
         :: repulsion energy           0.358172417963 Eh    ::

    * Orbital Energies and Occupations

         #    Occupation            Energy/Eh            Energy/eV
      -------------------------------------------------------------
         1        2.0000           -0.9754901             -26.5444
       ...           ...                  ...                  ...
        18        2.0000           -0.6071581             -16.5216
        19        2.0000           -0.6031524             -16.4126
        20        2.0000           -0.5993671             -16.3096
        21        2.0000           -0.5934496             -16.1486
        22        2.0000           -0.5858006             -15.9404
        23        2.0000           -0.5723523             -15.5745
        24        2.0000           -0.5624662             -15.3055
        25        2.0000           -0.5501690             -14.9709
        26        2.0000           -0.5416818             -14.7399
        27        2.0000           -0.5294930             -14.4082
        28        2.0000           -0.5287695             -14.3886
        29        2.0000           -0.5195500             -14.1377
        30        2.0000           -0.5140911             -13.9891 (HOMO)
        31                         -0.3779490             -10.2845 (LUMO)
        32                         -0.3209427              -8.7333
        33                         -0.2590667              -7.0496
        34                         -0.1947575              -5.2996
        35                         -0.1789093              -4.8684
        36                         -0.1551045              -4.2206
        37                         -0.1278201              -3.4782
        38                         -0.1189090              -3.2357
        39                         -0.1174938              -3.1972
        40                         -0.1042310              -2.8363
        41                         -0.0901497              -2.4531
       ...                                ...                  ...
        62                          0.7184993              19.5514
      -------------------------------------------------------------
                  HL-Gap            0.1361421 Eh            3.7046 eV

Wiberg/Mayer (AO) data.
largest (>0.10) Wiberg bond orders for each atom

     #   Z sym  total        # sym  WBO       # sym  WBO       # sym  WBO
 ---------------------------------------------------------------------------
     1   6 C    3.832 --    13 H    0.984    14 H    0.977    12 H    0.976
                             2 O    0.861
     2   8 O    2.245 --     3 C    1.178     1 C    0.861     4 O    0.154
     3   6 C    3.879 --     4 O    1.670     2 O    1.178     5 C    0.962
     4   8 O    1.975 --     3 C    1.670     2 O    0.154
     5   6 C    3.810 --     6 N    1.707     3 C    0.962    10 O    0.884
     6   7 N    3.040 --     5 C    1.707     7 N    1.159
     7   7 N    3.024 --     8 C    1.684     6 N    1.159
     8   6 C    3.800 --     7 N    1.684     9 C    1.046    10 O    0.881
     9   6 C    3.967 --     8 C    1.046    15 H    0.968    16 H    0.948
                            17 H    0.948
    10   8 O    2.653 --     5 C    0.884     8 C    0.881    11 C    0.742
    11   6 C    3.717 --    18 H    0.973    20 H    0.967    19 H    0.967
                            10 O    0.742
    12   1 H    0.999 --     1 C    0.976
    13   1 H    1.005 --     1 C    0.984
    14   1 H    0.999 --     1 C    0.977
    15   1 H    0.988 --     9 C    0.968
    16   1 H    0.987 --     9 C    0.948
    17   1 H    0.987 --     9 C    0.948
    18   1 H    0.989 --    11 C    0.973
    19   1 H    0.996 --    11 C    0.967
    20   1 H    0.995 --    11 C    0.967
 ---------------------------------------------------------------------------

           -------------------------------------------------
          | TOTAL ENERGY              -37.579533694659 Eh   |
          | GRADIENT NORM               0.000748829478 Eh/α |
          | HOMO-LUMO GAP               3.704614961864 eV   |
           -------------------------------------------------

 * finished run on 2023/06/20 at 14:54:43.271
