                         Program Version 5.0.1 -  RELEASE  -
|  1> # ORCA input file
|  2> ! SP r2SCAN-3c CPCM
|  3>
|  4> %maxcore 1875.0
|  5> %pal nprocs 4 end
|  6> %cpcm smd true SMDsolvent "DMSO" end
|  7>
|  8> *xyz 1 1
|  9> C      -5.677754   -1.888632    0.943796
| 10> O      -4.456463   -1.256754    0.537412
| 11> C      -4.378702    0.052137    0.713722
| 12> O      -5.277638    0.720093    1.192651
| 13> C      -3.092850    0.644412    0.276021
| 14> N      -2.142568   -0.198754   -0.227436
| 15> C      -1.005350    0.260758   -0.631869
| 16> C      -0.064744   -0.785090   -1.212364
| 17> C      -0.477917   -2.179895   -0.722474
| 18> C      -0.097288   -0.746103   -2.743301
| 19> N       1.326786   -0.564808   -0.776907
| 20> C       1.709915   -0.415335    0.468279
| 21> O       0.806095   -0.361989    1.399847
| 22> C       1.136885   -0.199638    2.790153
| 23> C       3.123573   -0.291181    0.715760
| 24> N       3.771815   -0.138106    1.838486
| 25> N       5.077252   -0.063107    1.530240
| 26> C       5.172860   -0.171384    0.230892
| 27> C       6.392254   -0.139364   -0.596168
| 28> O       3.969854   -0.318314   -0.335109
| 29> N      -0.704277    1.595696   -0.599267
| 30> C       0.552750    2.177219   -1.069896
| 31> C      -1.577332    2.542142   -0.049989
| 32> O      -1.250603    3.714097    0.026092
| 33> C      -2.858759    1.991498    0.389046
| 34> O      -3.731196    2.864713    0.887093
| 35> H      -6.514815   -1.482716    0.371341
| 36> H      -5.557365   -2.950889    0.742494
| 37> H      -5.847783   -1.717546    2.008992
| 38> H      -0.516605   -2.204280    0.364350
| 39> H      -1.464726   -2.419375   -1.114298
| 40> H       0.240912   -2.915927   -1.075777
| 41> H       0.538712   -1.533250   -3.143605
| 42> H       0.245148    0.212008   -3.126789
| 43> H      -1.119529   -0.913426   -3.079656
| 44> H       2.053162   -0.646970   -1.474667
| 45> H       1.749698   -1.037896    3.124121
| 46> H       1.679028    0.735584    2.936960
| 47> H       0.183912   -0.183486    3.315680
| 48> H       6.370204    0.738568   -1.243283
| 49> H       6.427048   -1.021415   -1.235180
| 50> H       7.272868   -0.103446    0.040890
| 51> H       0.323524    3.123605   -1.560796
| 52> H       1.203420    2.364918   -0.215797
| 53> H       1.045068    1.514834   -1.768787
| 54> H      -4.558479    2.402138    1.159098
| 55> **                         ****END OF INPUT****

CARTESIAN COORDINATES (ANGSTROEM)
---------------------------------
  C     -5.677754   -1.888632    0.943796
  O     -4.456463   -1.256754    0.537412
  C     -4.378702    0.052137    0.713722
  O     -5.277638    0.720093    1.192651
  C     -3.092850    0.644412    0.276021
  N     -2.142568   -0.198754   -0.227436
  C     -1.005350    0.260758   -0.631869
  C     -0.064744   -0.785090   -1.212364
  C     -0.477917   -2.179895   -0.722474
  C     -0.097288   -0.746103   -2.743301
  N      1.326786   -0.564808   -0.776907
  C      1.709915   -0.415335    0.468279
  O      0.806095   -0.361989    1.399847
  C      1.136885   -0.199638    2.790153
  C      3.123573   -0.291181    0.715760
  N      3.771815   -0.138106    1.838486
  N      5.077252   -0.063107    1.530240
  C      5.172860   -0.171384    0.230892
  C      6.392254   -0.139364   -0.596168
  O      3.969854   -0.318314   -0.335109
  N     -0.704277    1.595696   -0.599267
  C      0.552750    2.177219   -1.069896
  C     -1.577332    2.542142   -0.049989
  O     -1.250603    3.714097    0.026092
  C     -2.858759    1.991498    0.389046
  O     -3.731196    2.864713    0.887093
  H     -6.514815   -1.482716    0.371341
  H     -5.557365   -2.950889    0.742494
  H     -5.847783   -1.717546    2.008992
  H     -0.516605   -2.204280    0.364350
  H     -1.464726   -2.419375   -1.114298
  H      0.240912   -2.915927   -1.075777
  H      0.538712   -1.533250   -3.143605
  H      0.245148    0.212008   -3.126789
  H     -1.119529   -0.913426   -3.079656
  H      2.053162   -0.646970   -1.474667
  H      1.749698   -1.037896    3.124121
  H      1.679028    0.735584    2.936960
  H      0.183912   -0.183486    3.315680
  H      6.370204    0.738568   -1.243283
  H      6.427048   -1.021415   -1.235180
  H      7.272868   -0.103446    0.040890
  H      0.323524    3.123605   -1.560796
  H      1.203420    2.364918   -0.215797
  H      1.045068    1.514834   -1.768787
  H     -4.558479    2.402138    1.159098

 Total Charge           Charge          ....    1
 Multiplicity           Mult            ....    1
 Number of Electrons    NEL             ....  192
 Basis Dimension        Dim             ....  649

ORBITAL ENERGIES
----------------

  NO   OCC          E(Eh)            E(eV)
   0   2.0000     -19.092570      -519.5352
   1   2.0000     -19.068752      -518.8871
   2   2.0000     -19.013855      -517.3933
   3   2.0000     -19.000489      -517.0296
   4   2.0000     -18.959989      -515.9275
   5   2.0000     -18.936746      -515.2951
   6   2.0000     -14.263807      -388.1379
   7   2.0000     -14.247304      -387.6888
   8   2.0000     -14.236983      -387.4080
   9   2.0000     -14.220248      -386.9526
  10   2.0000     -14.170894      -385.6096
  11   2.0000     -10.228905      -278.3427
  12   2.0000     -10.179663      -277.0027
  13   2.0000     -10.177596      -276.9465
  14   2.0000     -10.173616      -276.8382
  15   2.0000     -10.152739      -276.2701
  16   2.0000     -10.136400      -275.8255
  17   2.0000     -10.130345      -275.6607
  18   2.0000     -10.128969      -275.6233
  19   2.0000     -10.104091      -274.9463
  20   2.0000     -10.095914      -274.7238
  21   2.0000     -10.082655      -274.3630
  22   2.0000     -10.071257      -274.0528
  23   2.0000     -10.055268      -273.6178
  24   2.0000     -10.039321      -273.1838
  25   2.0000     -10.031617      -272.9742
  26   2.0000      -1.185003       -32.2456
  27   2.0000      -1.131177       -30.7809
  28   2.0000      -1.093243       -29.7487
  29   2.0000      -1.057662       -28.7805
  30   2.0000      -1.028354       -27.9829
  31   2.0000      -1.007901       -27.4264
  32   2.0000      -1.001692       -27.2574
  33   2.0000      -0.989850       -26.9352
  34   2.0000      -0.969338       -26.3770
  35   2.0000      -0.896500       -24.3950
  36   2.0000      -0.861835       -23.4517
  37   2.0000      -0.813423       -22.1344
  38   2.0000      -0.764843       -20.8124
  39   2.0000      -0.739794       -20.1308
  40   2.0000      -0.733234       -19.9523
  41   2.0000      -0.728575       -19.8255
  42   2.0000      -0.702774       -19.1235
  43   2.0000      -0.695491       -18.9253
  44   2.0000      -0.677504       -18.4358
  45   2.0000      -0.652269       -17.7491
  46   2.0000      -0.640751       -17.4357
  47   2.0000      -0.633864       -17.2483
  48   2.0000      -0.618167       -16.8212
  49   2.0000      -0.591065       -16.0837
  50   2.0000      -0.577995       -15.7280
  51   2.0000      -0.562387       -15.3033
  52   2.0000      -0.559794       -15.2328
  53   2.0000      -0.531321       -14.4580
  54   2.0000      -0.527915       -14.3653
  55   2.0000      -0.523770       -14.2525
  56   2.0000      -0.502322       -13.6689
  57   2.0000      -0.491084       -13.3631
  58   2.0000      -0.488038       -13.2802
  59   2.0000      -0.482736       -13.1359
  60   2.0000      -0.470712       -12.8087
  61   2.0000      -0.459646       -12.5076
  62   2.0000      -0.457697       -12.4546
  63   2.0000      -0.451176       -12.2771
  64   2.0000      -0.443364       -12.0646
  65   2.0000      -0.440163       -11.9775
  66   2.0000      -0.424031       -11.5385
  67   2.0000      -0.417216       -11.3530
  68   2.0000      -0.413172       -11.2430
  69   2.0000      -0.409216       -11.1353
  70   2.0000      -0.403679       -10.9847
  71   2.0000      -0.394359       -10.7311
  72   2.0000      -0.392035       -10.6678
  73   2.0000      -0.389546       -10.6001
  74   2.0000      -0.383750       -10.4424
  75   2.0000      -0.376575       -10.2471
  76   2.0000      -0.376376       -10.2417
  77   2.0000      -0.370764       -10.0890
  78   2.0000      -0.369551       -10.0560
  79   2.0000      -0.366209        -9.9650
  80   2.0000      -0.362294        -9.8585
  81   2.0000      -0.356047        -9.6885
  82   2.0000      -0.349380        -9.5071
  83   2.0000      -0.347141        -9.4462
  84   2.0000      -0.338050        -9.1988
  85   2.0000      -0.331662        -9.0250
  86   2.0000      -0.330617        -8.9965
  87   2.0000      -0.307285        -8.3617
  88   2.0000      -0.291236        -7.9249
  89   2.0000      -0.286229        -7.7887
  90   2.0000      -0.282777        -7.6948
  91   2.0000      -0.277842        -7.5605
  92   2.0000      -0.276764        -7.5311
  93   2.0000      -0.252090        -6.8597
  94   2.0000      -0.246965        -6.7202
  95   2.0000      -0.216198        -5.8830
  96   0.0000      -0.140867        -3.8332
  97   0.0000      -0.099159        -2.6983
  98   0.0000      -0.049302        -1.3416
  99   0.0000      -0.043244        -1.1767
 100   0.0000       0.003018         0.0821

MULLIKEN ATOMIC CHARGES
-----------------------
   0 C :   -0.309885
   1 O :   -0.185099
   2 C :    0.211799
   3 O :   -0.478436
   4 C :    0.109488
   5 N :   -0.092569
   6 C :    0.051980
   7 C :   -0.017780
   8 C :   -0.586899
   9 C :   -0.478268
  10 N :   -0.107875
  11 C :    0.132871
  12 O :   -0.181091
  13 C :   -0.297225
  14 C :    0.188578
  15 N :    0.050212
  16 N :   -0.394985
  17 C :    0.480738
  18 C :   -0.628079
  19 O :   -0.036386
  20 N :    0.280281
  21 C :   -0.455890
  22 C :    0.138479
  23 O :   -0.428241
  24 C :    0.057181
  25 O :   -0.355421
  26 H :    0.180663
  27 H :    0.180964
  28 H :    0.180797
  29 H :    0.200159
  30 H :    0.202715
  31 H :    0.193688
  32 H :    0.200359
  33 H :    0.194192
  34 H :    0.209250
  35 H :    0.358568
  36 H :    0.201557
  37 H :    0.200890
  38 H :    0.198909
  39 H :    0.213667
  40 H :    0.209296
  41 H :    0.212737
  42 H :    0.200599
  43 H :    0.215268
  44 H :    0.203354
  45 H :    0.374888
Sum of atomic charges:    1.0000000

LOEWDIN ATOMIC CHARGES
----------------------
   0 C :   -0.030708
   1 O :   -0.555529
   2 C :    0.408185
   3 O :   -0.461016
   4 C :    0.197760
   5 N :   -0.561851
   6 C :    0.361131
   7 C :    0.119772
   8 C :   -0.317914
   9 C :   -0.329336
  10 N :   -0.501506
  11 C :    0.472010
  12 O :   -0.519506
  13 C :    0.008483
  14 C :    0.415434
  15 N :   -0.313379
  16 N :   -0.320800
  17 C :    0.410869
  18 C :   -0.307720
  19 O :   -0.371054
  20 N :   -0.631861
  21 C :   -0.063076
  22 C :    0.385334
  23 O :   -0.446942
  24 C :    0.289205
  25 O :   -0.435938
  26 H :    0.184850
  27 H :    0.188747
  28 H :    0.185184
  29 H :    0.183138
  30 H :    0.186608
  31 H :    0.174610
  32 H :    0.180890
  33 H :    0.176408
  34 H :    0.186426
  35 H :    0.322620
  36 H :    0.201047
  37 H :    0.201735
  38 H :    0.199248
  39 H :    0.200887
  40 H :    0.198513
  41 H :    0.196486
  42 H :    0.211382
  43 H :    0.201037
  44 H :    0.204321
  45 H :    0.315818

  Mayer bond orders larger than 0.100000
B(  0-C ,  1-O ) :   0.8213 B(  0-C , 26-H ) :   0.9536 B(  0-C , 27-H ) :   0.9605
B(  0-C , 28-H ) :   0.9542 B(  1-O ,  2-C ) :   1.2056 B(  2-C ,  3-O ) :   1.7280
B(  2-C ,  4-C ) :   1.0673 B(  4-C ,  5-N ) :   1.0272 B(  4-C , 24-C ) :   1.2844
B(  5-N ,  6-C ) :   1.6651 B(  6-C ,  7-C ) :   0.7831 B(  6-C , 12-O ) :   0.1235
B(  6-C , 20-N ) :   1.2183 B(  6-C , 24-C ) :   0.1204 B(  7-C ,  8-C ) :   0.9298
B(  7-C ,  9-C ) :   1.0090 B(  7-C , 10-N ) :   0.7288 B(  8-C , 29-H ) :   0.9490
B(  8-C , 30-H ) :   0.9516 B(  8-C , 31-H ) :   0.9682 B(  9-C , 32-H ) :   0.9592
B(  9-C , 33-H ) :   0.9231 B(  9-C , 34-H ) :   0.9574 B( 10-N , 11-C ) :   1.4516
B( 10-N , 14-C ) :   0.1022 B( 10-N , 35-H ) :   0.8743 B( 11-C , 12-O ) :   1.1663
B( 11-C , 14-C ) :   1.0120 B( 12-O , 13-C ) :   0.8180 B( 13-C , 36-H ) :   0.9335
B( 13-C , 37-H ) :   0.9307 B( 13-C , 38-H ) :   0.9476 B( 14-C , 15-N ) :   1.6695
B( 14-C , 16-N ) :   0.1236 B( 14-C , 17-C ) :   0.1070 B( 14-C , 19-O ) :   1.0917
B( 15-N , 16-N ) :   1.2096 B( 16-N , 17-C ) :   1.4656 B( 17-C , 18-C ) :   0.8326
B( 17-C , 19-O ) :   1.0741 B( 18-C , 39-H ) :   0.9295 B( 18-C , 40-H ) :   0.9425
B( 18-C , 41-H ) :   0.9815 B( 20-N , 21-C ) :   0.8421 B( 20-N , 22-C ) :   1.0531
B( 21-C , 42-H ) :   0.9315 B( 21-C , 43-H ) :   0.9287 B( 21-C , 44-H ) :   0.9254
B( 22-C , 23-O ) :   1.8930 B( 22-C , 24-C ) :   1.0083 B( 24-C , 25-O ) :   1.1495
B( 25-O , 45-H ) :   0.7682

Dispersion correction           -0.021402001
FINAL SINGLE POINT ENERGY     -1308.357337055820

DIPOLE MOMENT
-------------
                                X             Y             Z
Electronic contribution:     -2.03258       8.91928       6.08068
Nuclear contribution   :      6.83197     -12.44494      -8.36704
                        -----------------------------------------
Total Dipole Moment    :      4.79940      -3.52566      -2.28636
                        -----------------------------------------
Magnitude (a.u.)       :      6.37902
Magnitude (Debye)      :     16.21418

Rotational constants in cm-1:     0.013552     0.003688     0.003486
Rotational constants in MHz :   406.287943   110.574751   104.502117

                             ****ORCA TERMINATED NORMALLY****
TOTAL RUN TIME: 0 days 0 hours 1 minutes 38 seconds 736 msec
