   * xtb version 6.5.1 (579679a) compiled by 'ehlert@majestix' on 2022-07-11
          program call               : /lustre/hpc/kemi/ree/PhD/git/ReactivityQM/dep/xtb-6.5.1/bin/xtb --gfn 1 /lustre/hpc/kemi/ree/PhD/git/ReactivityQM/calculations/R03/reac02prodN02/conf07/R03_reac02prodN02_conf07_gfn1.xyz --opt --vfukui --chrg 1 --uhf 0 --alpb DMSO

   ID    Z sym.   atoms
    1    6 C      1, 3, 5, 7-10, 12, 14, 15, 18, 19, 22, 23, 25
    2    8 O      2, 4, 13, 20, 24, 26
    3    7 N      6, 11, 16, 17, 21
    4    1 H      27-46

      * Solvation model:               ALPB
        Solvent                        DMSO
        Solvent mass                       7.8130E+01 g/mol
          :  Hamiltonian                  GFN1-xTB          :
 * total energy  :   -86.3249017 Eh     change       -0.7085532E-10 Eh
 * total energy  :   -86.3445675 Eh     change       -0.1966576E-01 Eh
 * total energy  :   -86.3516300 Eh     change       -0.7062579E-02 Eh
 * total energy  :   -86.3532879 Eh     change       -0.1657871E-02 Eh
 * total energy  :   -86.3544043 Eh     change       -0.1116370E-02 Eh
 * total energy  :   -86.3549049 Eh     change       -0.5005865E-03 Eh
 * total energy  :   -86.3553487 Eh     change       -0.4438681E-03 Eh
 * total energy  :   -86.3557512 Eh     change       -0.4024280E-03 Eh
 * total energy  :   -86.3560147 Eh     change       -0.2635188E-03 Eh
 * total energy  :   -86.3561425 Eh     change       -0.1278435E-03 Eh
 * total energy  :   -86.3570284 Eh     change       -0.1708149E-04 Eh
 * total energy  :   -86.3570383 Eh     change       -0.9828568E-05 Eh
 * total energy  :   -86.3570299 Eh     change        0.8352566E-05 Eh
 * total energy  :   -86.3570634 Eh     change       -0.3345354E-04 Eh
 * total energy  :   -86.3570709 Eh     change       -0.7498185E-05 Eh
 * total energy  :   -86.3570775 Eh     change       -0.6685029E-05 Eh
 * total energy  :   -86.3570844 Eh     change       -0.6835030E-05 Eh
 * total energy  :   -86.3570909 Eh     change       -0.6567062E-05 Eh
 * total energy  :   -86.3570946 Eh     change       -0.3653425E-05 Eh
   *** GEOMETRY OPTIMIZATION CONVERGED AFTER 44 ITERATIONS ***

 final structure:
================
46
 xtb: 6.5.1 (579679a)
C           -5.67775426911688       -1.88863236161029        0.94379573436518
O           -4.45646318309549       -1.25675439921519        0.53741170280046
C           -4.37870175554230        0.05213710457779        0.71372229457506
O           -5.27763832033980        0.72009253117403        1.19265077123768
C           -3.09284986105029        0.64441229639430        0.27602101042300
N           -2.14256774980189       -0.19875422952968       -0.22743644848070
C           -1.00535026866108        0.26075769818948       -0.63186903265291
C           -0.06474404284840       -0.78508952228422       -1.21236380228058
C           -0.47791720605409       -2.17989547620656       -0.72247432047899
C           -0.09728828081557       -0.74610303312790       -2.74330124745618
N            1.32678574981534       -0.56480757999877       -0.77690721170132
C            1.70991514453581       -0.41533462196721        0.46827885928433
O            0.80609491308660       -0.36198922656656        1.39984667549079
C            1.13688480882896       -0.19963762309345        2.79015255428171
C            3.12357274587690       -0.29118137055838        0.71575983179816
N            3.77181493100945       -0.13810599859195        1.83848627321196
N            5.07725188721497       -0.06310695711626        1.53023963112769
C            5.17286021054191       -0.17138419211569        0.23089195258540
C            6.39225425288625       -0.13936447610958       -0.59616756404248
O            3.96985350281941       -0.31831379451967       -0.33510879264623
N           -0.70427737973859        1.59569588184822       -0.59926689533919
C            0.55275023184389        2.17721867625387       -1.06989558828893
C           -1.57733157193159        2.54214170471398       -0.04998877340675
O           -1.25060340344507        3.71409681804575        0.02609152197542
C           -2.85875917221043        1.99149814277252        0.38904597094764
O           -3.73119564977104        2.86471325195020        0.88709280669181
H           -6.51481452728552       -1.48271569532981        0.37134082186395
H           -5.55736549703356       -2.95088877011745        0.74249353084264
H           -5.84778294539261       -1.71754592795108        2.00899232888715
H           -0.51660538340673       -2.20428010257014        0.36434971618094
H           -1.46472556765200       -2.41937473150537       -1.11429811223934
H            0.24091214934779       -2.91592695990520       -1.07577672592054
H            0.53871156899214       -1.53325008455150       -3.14360511971703
H            0.24514831486845        0.21200796485206       -3.12678872522368
H           -1.11952934921471       -0.91342586325889       -3.07965559263661
H            2.05316219620147       -0.64696999502188       -1.47466749957332
H            1.74969794550785       -1.03789583778008        3.12412088794910
H            1.67902769850177        0.73558373816068        2.93695997247153
H            0.18391193457984       -0.18348626151500        3.31568000551729
H            6.37020354801772        0.73856821085282       -1.24328294763270
H            6.42704823689779       -1.02141524578325       -1.23517976159946
H            7.27286845151325       -0.10344597454037        0.04089029800925
H            0.32352399215412        3.12360532416804       -1.56079551033006
H            1.20342030816860        2.36491763199906       -0.21579747716263
H            1.04506764673368        1.51483417962487       -1.76878716500702
H           -4.55847898553522        2.40213815686227        1.15909816129814

          :  Hamiltonian                  GFN1-xTB          :
         :: total energy             -86.357094592276 Eh    ::
         :: gradient norm              0.000437358146 Eh/a0 ::
         :: HOMO-LUMO gap              1.607897824060 eV    ::
         :: SCC energy               -87.186103951036 Eh    ::
         :: -> Gsolv                  -0.115792560081 Eh    ::
         :: repulsion energy           0.859141633403 Eh    ::

    * Orbital Energies and Occupations

         #    Occupation            Energy/Eh            Energy/eV
      -------------------------------------------------------------
         1        2.0000           -0.9073837             -24.6912
       ...           ...                  ...                  ...
        58        2.0000           -0.5321304             -14.4800
        59        2.0000           -0.5237393             -14.2517
        60        2.0000           -0.5205588             -14.1651
        61        2.0000           -0.5163794             -14.0514
        62        2.0000           -0.5127392             -13.9523
        63        2.0000           -0.5052429             -13.7484
        64        2.0000           -0.4978999             -13.5485
        65        2.0000           -0.4911266             -13.3642
        66        2.0000           -0.4900512             -13.3350
        67        2.0000           -0.4866477             -13.2424
        68        2.0000           -0.4716523             -12.8343
        69        2.0000           -0.4566680             -12.4266
        70        2.0000           -0.4393328             -11.9549 (HOMO)
        71                         -0.3802437             -10.3470 (LUMO)
        72                         -0.3350780              -9.1179
        73                         -0.2982010              -8.1145
        74                         -0.2917727              -7.9395
        75                         -0.2593870              -7.0583
        76                         -0.2516876              -6.8488
        77                         -0.1694412              -4.6107
        78                         -0.1669804              -4.5438
        79                         -0.1595760              -4.3423
        80                         -0.1555167              -4.2318
        81                         -0.1464502              -3.9851
       ...                                ...                  ...
       144                          0.7124381              19.3864
      -------------------------------------------------------------
                  HL-Gap            0.0590892 Eh            1.6079 eV

Wiberg/Mayer (AO) data.
largest (>0.10) Wiberg bond orders for each atom

     #   Z sym  total        # sym  WBO       # sym  WBO       # sym  WBO
 ---------------------------------------------------------------------------
     1   6 C    3.862 --    28 H    0.986    29 H    0.979    27 H    0.979
                             2 O    0.888
     2   8 O    2.219 --     3 C    1.141     1 C    0.888     4 O    0.131
     3   6 C    3.850 --     4 O    1.610     2 O    1.141     5 C    1.016
     4   8 O    1.946 --     3 C    1.610     2 O    0.131
     5   6 C    3.962 --    25 C    1.477     6 N    1.183     3 C    1.016
     6   7 N    3.034 --     7 C    1.576     5 C    1.183
     7   6 C    3.937 --     6 N    1.576    21 N    1.175     8 C    0.972
     8   6 C    3.900 --    10 C    0.986     9 C    0.981     7 C    0.972
                            11 N    0.891
     9   6 C    3.978 --    32 H    0.984    30 H    0.982     8 C    0.981
                            31 H    0.979
    10   6 C    3.983 --     8 C    0.986    33 H    0.980    35 H    0.980
                            34 H    0.978
    11   7 N    3.478 --    12 C    1.440     8 C    0.891    36 H    0.870
                            13 O    0.108
    12   6 C    3.896 --    11 N    1.440    13 O    1.200    15 C    1.093
    13   8 O    2.273 --    12 C    1.200    14 C    0.859    11 N    0.108
    14   6 C    3.825 --    39 H    0.980    38 H    0.974    37 H    0.973
                            13 O    0.859
    15   6 C    3.888 --    16 N    1.540    12 C    1.093    20 O    1.047
    16   7 N    3.031 --    15 C    1.540    17 N    1.260
    17   7 N    2.988 --    18 C    1.540    16 N    1.260
    18   6 C    3.847 --    17 N    1.540    20 O    1.090    19 C    1.041
    19   6 C    3.977 --    18 C    1.041    42 H    0.979    41 H    0.956
                            40 H    0.950
    20   8 O    2.335 --    18 C    1.090    15 C    1.047
    21   7 N    3.497 --     7 C    1.175    23 C    1.097    22 C    0.931
                            24 O    0.136
    22   6 C    3.922 --    45 H    0.978    44 H    0.975    43 H    0.972
                            21 N    0.931
    23   6 C    3.910 --    24 O    1.599    21 N    1.097    25 C    1.065
    24   8 O    1.914 --    23 C    1.599    21 N    0.136
    25   6 C    3.923 --     5 C    1.477    26 O    1.133    23 C    1.065
    26   8 O    2.100 --    25 C    1.133    46 H    0.774
    27   1 H    1.005 --     1 C    0.979
    28   1 H    1.010 --     1 C    0.986
    29   1 H    1.005 --     1 C    0.979
    30   1 H    1.007 --     9 C    0.982
    31   1 H    1.008 --     9 C    0.979
    32   1 H    0.997 --     9 C    0.984
    33   1 H    0.993 --    10 C    0.980
    34   1 H    0.997 --    10 C    0.978
    35   1 H    0.997 --    10 C    0.980
    36   1 H    0.916 --    11 N    0.870
    37   1 H    1.006 --    14 C    0.973
    38   1 H    1.008 --    14 C    0.974
    39   1 H    1.002 --    14 C    0.980
    40   1 H    0.991 --    19 C    0.950
    41   1 H    0.991 --    19 C    0.956
    42   1 H    0.994 --    19 C    0.979
    43   1 H    1.003 --    22 C    0.972
    44   1 H    1.001 --    22 C    0.975
    45   1 H    1.003 --    22 C    0.978
    46   1 H    0.849 --    26 O    0.774
 ---------------------------------------------------------------------------

           -------------------------------------------------
          | TOTAL ENERGY              -86.357094592276 Eh   |
          | GRADIENT NORM               0.000437358146 Eh/α |
          | HOMO-LUMO GAP               1.607897824060 eV   |
           -------------------------------------------------

 * finished run on 2023/06/20 at 15:37:02.036
