   * xtb version 6.5.1 (579679a) compiled by 'ehlert@majestix' on 2022-07-11
          program call               : /lustre/hpc/kemi/ree/PhD/git/ReactivityQM/dep/xtb-6.5.1/bin/xtb --gfn 1 /lustre/hpc/kemi/ree/PhD/git/ReactivityQM/calculations/R02deprot/reac01prodN11/conf03/R02deprot_reac01prodN11_conf03_gfn1.xyz --opt --vfukui --chrg 0 --uhf 0 --alpb DMSO

   ID    Z sym.   atoms
    1    6 C      1, 3, 5, 6, 8, 11-15, 17, 19, 22, 23
    2    8 O      2, 4, 7, 9, 18, 24
    3    7 N      10, 16, 20, 21, 25
    4    1 H      26-42

      * Solvation model:               ALPB
        Solvent                        DMSO
        Solvent mass                       7.8130E+01 g/mol
          :  Hamiltonian                  GFN1-xTB          :
 * total energy  :   -82.9114054 Eh     change       -0.1057288E-10 Eh
 * total energy  :   -82.9266076 Eh     change       -0.1520223E-01 Eh
 * total energy  :   -82.9327377 Eh     change       -0.6130098E-02 Eh
 * total energy  :   -82.9341022 Eh     change       -0.1364527E-02 Eh
 * total energy  :   -82.9349819 Eh     change       -0.8796718E-03 Eh
 * total energy  :   -82.9354912 Eh     change       -0.5092995E-03 Eh
 * total energy  :   -82.9358831 Eh     change       -0.3918844E-03 Eh
 * total energy  :   -82.9361846 Eh     change       -0.3014983E-03 Eh
 * total energy  :   -82.9364096 Eh     change       -0.2250083E-03 Eh
 * total energy  :   -82.9365856 Eh     change       -0.1760402E-03 Eh
 * total energy  :   -82.9373173 Eh     change       -0.9124634E-05 Eh
 * total energy  :   -82.9373215 Eh     change       -0.4150571E-05 Eh
 * total energy  :   -82.9373352 Eh     change       -0.1373176E-04 Eh
 * total energy  :   -82.9373239 Eh     change        0.1135075E-04 Eh
 * total energy  :   -82.9373473 Eh     change       -0.2347772E-04 Eh
 * total energy  :   -82.9373525 Eh     change       -0.5113483E-05 Eh
 * total energy  :   -82.9373581 Eh     change       -0.5685127E-05 Eh
 * total energy  :   -82.9373703 Eh     change       -0.1215397E-04 Eh
 * total energy  :   -82.9373741 Eh     change       -0.3839515E-05 Eh
   *** GEOMETRY OPTIMIZATION CONVERGED AFTER 48 ITERATIONS ***

 final structure:
================
42
 xtb: 6.5.1 (579679a)
C           -6.55330437324829        0.22700749668582        1.26853484425346
O           -5.33350348245410        0.47053716002700        0.54238294892437
C           -4.25795786122639       -0.19162320659700        0.96609241640513
O           -4.26272955804880       -0.95437719195481        1.89562321882937
C           -3.02301484936169        0.11008195451498        0.15126451505094
C           -2.93735072728362        1.10890786601920       -0.85676850377162
O           -3.94514345120018        1.80342033160261       -1.28794793165951
C           -1.61201638137598        1.41844759805948       -1.48868052019523
O           -1.48842788659882        2.37551002358622       -2.24721624444208
N           -0.63175362703517        0.55687008908579       -1.18646365773663
C           -0.78248312620648       -0.48715847866684       -0.26045350821853
C           -0.63001215185136       -1.81907617827002       -1.04052358803052
C            0.38804936708846       -0.35659913775043        0.79648477847737
C            0.43759043670150       -1.56712295691218        1.72259170413983
C            0.17637975439218        0.93444834597474        1.59435649678575
N            1.59906654482030       -0.23605234233511       -0.00229828080223
C            2.85497020010986       -0.33600366777554        0.48585253231114
O            3.16312728441922       -0.71313690757828        1.60121972080310
C            3.84520187148037        0.06372923809456       -0.54847033968131
N            3.57312034618840        0.50453755373413       -1.73997978085522
N            4.76545503223636        0.76020400705538       -2.34612163445255
C            5.69031288560931        0.46043161083802       -1.48476009583820
C            7.15517812567298        0.56754612639368       -1.66161004778325
O            5.17223360314917        0.01628253647395       -0.33025364790323
N           -1.98687564446048       -0.61421794590506        0.46255044488051
H           -7.32460094534019        0.81843268475943        0.78302584067243
H           -6.42697791655960        0.53541632865778        2.30778524917961
H           -6.79772446273084       -0.83575351720066        1.22546961648713
H           -4.80534684622439        1.57408148079168       -0.88323374556299
H           -0.82041041006883       -2.66339838357994       -0.38437522141531
H            0.37629024018387       -1.87619729325923       -1.44772941730190
H           -1.35443917698830       -1.82136859610056       -1.85161315274856
H            1.06063277452450       -1.34453824515812        2.58744756398460
H           -0.56806387189254       -1.80061235273529        2.06861015196504
H            0.85364837947862       -2.43391689708173        1.21349260093512
H            0.10991236976029        1.79002611816154        0.92429270555703
H           -0.74087904773927        0.86217591419586        2.17561858995310
H            1.01743594263915        1.07860614432540        2.27141729992088
H            1.47733338095563        0.23216240173046       -0.89594504069223
H            7.37819839058357        0.87786064799062       -2.67960105017564
H            7.56208433004087        1.29795528632709       -0.96173860402112
H            7.62679353786170       -0.39352464622333       -1.45832522622832

          :  Hamiltonian                  GFN1-xTB          :
         :: total energy             -82.937374140825 Eh    ::
         :: gradient norm              0.000617369217 Eh/a0 ::
         :: HOMO-LUMO gap              0.914592419918 eV    ::
         :: SCC energy               -83.701896984246 Eh    ::
         :: -> Gsolv                  -0.059197067334 Eh    ::
         :: repulsion energy           0.791644744752 Eh    ::

    * Orbital Energies and Occupations

         #    Occupation            Energy/Eh            Energy/eV
      -------------------------------------------------------------
         1        2.0000           -0.8649774             -23.5372
       ...           ...                  ...                  ...
        55        2.0000           -0.5072026             -13.8017
        56        2.0000           -0.5026040             -13.6766
        57        2.0000           -0.5016561             -13.6508
        58        2.0000           -0.4956983             -13.4886
        59        2.0000           -0.4896347             -13.3236
        60        2.0000           -0.4837325             -13.1630
        61        2.0000           -0.4670353             -12.7087
        62        2.0000           -0.4619209             -12.5695
        63        2.0000           -0.4576062             -12.4521
        64        2.0000           -0.4536022             -12.3431
        65        2.0000           -0.4485965             -12.2069
        66        2.0000           -0.4291171             -11.6769
        67        2.0000           -0.4247195             -11.5572 (HOMO)
        68                         -0.3911088             -10.6426 (LUMO)
        69                         -0.3244287              -8.8282
        70                         -0.3122404              -8.4965
        71                         -0.2581966              -7.0259
        72                         -0.2378557              -6.4724
        73                         -0.2007957              -5.4639
        74                         -0.1866748              -5.0797
        75                         -0.1433378              -3.9004
        76                         -0.1427216              -3.8837
        77                         -0.1369275              -3.7260
        78                         -0.1245811              -3.3900
       ...                                ...                  ...
       134                          0.7303278              19.8732
      -------------------------------------------------------------
                  HL-Gap            0.0336107 Eh            0.9146 eV

Wiberg/Mayer (AO) data.
largest (>0.10) Wiberg bond orders for each atom

     #   Z sym  total        # sym  WBO       # sym  WBO       # sym  WBO
 ---------------------------------------------------------------------------
     1   6 C    3.847 --    26 H    0.985    28 H    0.979    27 H    0.979
                             2 O    0.871
     2   8 O    2.218 --     3 C    1.110     1 C    0.871     4 O    0.138
     3   6 C    3.848 --     4 O    1.699     2 O    1.110     5 C    0.961
     4   8 O    1.958 --     3 C    1.699     2 O    0.138
     5   6 C    3.964 --    25 N    1.563     6 C    1.211     3 C    0.961
     6   6 C    3.827 --     7 O    1.263     5 C    1.211     8 C    0.992
                            10 N    0.166
     7   8 O    2.225 --     6 C    1.263    29 H    0.771
     8   6 C    3.934 --     9 O    1.540    10 N    1.302     6 C    0.992
     9   8 O    1.842 --     8 C    1.540    10 N    0.164
    10   7 N    3.035 --     8 C    1.302    11 C    1.063     6 C    0.166
                             9 O    0.164    25 N    0.157
    11   6 C    3.941 --    10 N    1.063    25 N    1.041    12 C    0.887
                            13 C    0.854
    12   6 C    3.977 --    30 H    0.984    32 H    0.983    31 H    0.980
                            11 C    0.887
    13   6 C    3.927 --    14 C    1.004    15 C    0.986    16 N    0.941
                            11 C    0.854
    14   6 C    3.989 --    13 C    1.004    35 H    0.982    34 H    0.982
                            33 H    0.971
    15   6 C    3.991 --    13 C    0.986    37 H    0.984    36 H    0.983
                            38 H    0.980
    16   7 N    3.350 --    17 C    1.241    13 C    0.941    39 H    0.881
                            18 O    0.172
    17   6 C    3.915 --    18 O    1.600    16 N    1.241    19 C    0.988
    18   8 O    1.913 --    17 C    1.600    16 N    0.172
    19   6 C    3.874 --    20 N    1.610    24 O    1.063    17 C    0.988
    20   7 N    3.016 --    19 C    1.610    21 N    1.201
    21   7 N    2.980 --    22 C    1.604    20 N    1.201
    22   6 C    3.870 --    21 N    1.604    24 O    1.083    23 C    1.031
    23   6 C    3.986 --    22 C    1.031    40 H    0.982    42 H    0.965
                            41 H    0.962
    24   8 O    2.330 --    22 C    1.083    19 C    1.063
    25   7 N    3.033 --     5 C    1.563    11 C    1.041    10 N    0.157
    26   1 H    1.007 --     1 C    0.985
    27   1 H    1.003 --     1 C    0.979
    28   1 H    1.004 --     1 C    0.979
    29   1 H    0.833 --     7 O    0.771
    30   1 H    1.003 --    12 C    0.984
    31   1 H    1.005 --    12 C    0.980
    32   1 H    1.001 --    12 C    0.983
    33   1 H    1.010 --    14 C    0.971
    34   1 H    1.010 --    14 C    0.982
    35   1 H    1.002 --    14 C    0.982
    36   1 H    1.005 --    15 C    0.983
    37   1 H    1.002 --    15 C    0.984
    38   1 H    1.001 --    15 C    0.980
    39   1 H    0.971 --    16 N    0.881
    40   1 H    0.998 --    23 C    0.982
    41   1 H    0.997 --    23 C    0.962
    42   1 H    0.997 --    23 C    0.965
 ---------------------------------------------------------------------------

           -------------------------------------------------
          | TOTAL ENERGY              -82.937374140825 Eh   |
          | GRADIENT NORM               0.000617369217 Eh/α |
          | HOMO-LUMO GAP               0.914592419918 eV   |
           -------------------------------------------------

 * finished run on 2023/06/20 at 18:18:05.462
