   * xtb version 6.5.1 (579679a) compiled by 'ehlert@majestix' on 2022-07-11
          program call               : /lustre/hpc/kemi/ree/PhD/git/ReactivityQM/dep/xtb-6.5.1/bin/xtb --gfn 1 /lustre/hpc/kemi/ree/PhD/git/ReactivityQM/calculations/R02deprot/reac01prodN14/conf03/R02deprot_reac01prodN14_conf03_gfn1.xyz --opt --vfukui --chrg 0 --uhf 0 --alpb DMSO

   ID    Z sym.   atoms
    1    6 C      1, 3, 5, 7-10, 12, 14, 17-19, 22, 24
    2    8 O      2, 4, 13, 20, 23, 25
    3    7 N      6, 11, 15, 16, 21
    4    1 H      26-42

      * Solvation model:               ALPB
        Solvent                        DMSO
        Solvent mass                       7.8130E+01 g/mol
          :  Hamiltonian                  GFN1-xTB          :
 * total energy  :   -82.9143792 Eh     change       -0.6916423E-10 Eh
 * total energy  :   -82.9253026 Eh     change       -0.1092342E-01 Eh
 * total energy  :   -82.9289099 Eh     change       -0.3607303E-02 Eh
 * total energy  :   -82.9294217 Eh     change       -0.5117952E-03 Eh
 * total energy  :   -82.9297744 Eh     change       -0.3526897E-03 Eh
 * total energy  :   -82.9299588 Eh     change       -0.1844536E-03 Eh
 * total energy  :   -82.9301698 Eh     change       -0.2109868E-03 Eh
 * total energy  :   -82.9303904 Eh     change       -0.2205693E-03 Eh
 * total energy  :   -82.9305975 Eh     change       -0.2070598E-03 Eh
 * total energy  :   -82.9307617 Eh     change       -0.1642780E-03 Eh
 * total energy  :   -82.9327031 Eh     change       -0.1595949E-04 Eh
 * total energy  :   -82.9327149 Eh     change       -0.1184112E-04 Eh
 * total energy  :   -82.9327240 Eh     change       -0.9033509E-05 Eh
 * total energy  :   -82.9327326 Eh     change       -0.8575218E-05 Eh
 * total energy  :   -82.9327423 Eh     change       -0.9762560E-05 Eh
 * total energy  :   -82.9327529 Eh     change       -0.1059835E-04 Eh
 * total energy  :   -82.9327614 Eh     change       -0.8496719E-05 Eh
 * total energy  :   -82.9327673 Eh     change       -0.5837628E-05 Eh
 * total energy  :   -82.9327715 Eh     change       -0.4270374E-05 Eh
   *** GEOMETRY OPTIMIZATION CONVERGED AFTER 79 ITERATIONS ***

 final structure:
================
42
 xtb: 6.5.1 (579679a)
C            7.01364852652469        1.12475850347017       -0.10220925270849
O            5.60554099636016        1.36898837915768       -0.15600612230737
C            4.81783095420781        0.29732284688210       -0.21495916775576
O            5.24074615331064       -0.83625521850055       -0.23765963084172
C            3.36096080419383        0.63489437864553       -0.23686537320234
N            2.53829282609106       -0.42961774675654       -0.19891571134260
C            1.22000832138339       -0.22234496553681       -0.19082844126586
C            0.37472495231804       -1.48052798484564       -0.15105168394137
C            0.75850460729003       -2.31820599235828        1.07647558015221
C            0.60236682411949       -2.27097031634528       -1.44839545014879
N           -1.02113215882671       -1.06293529640350       -0.05774921428882
C           -2.05684086258778       -1.90691126742846        0.01178522633047
O           -2.00597951489417       -3.12667080889849        0.00190632450912
C           -3.36397052029746       -1.19292941095129        0.11245161540494
N           -4.56490613116822       -1.79925031018533        0.21008909950230
N           -5.46841809741288       -0.89800334519647        0.28378721301823
C           -4.85450271028563        0.40040051809764        0.23332497685877
C           -5.32559647081048        1.16631497674855       -1.00506459622444
C           -5.11801201372107        1.16807013021941        1.53093309501666
O           -3.45897703761201        0.10876073858360        0.11897680500485
N            0.60225125164482        0.93935310345320       -0.21761980062917
C            1.35318650745761        2.07936720607524       -0.27532067903453
O            0.88486887924044        3.21746638941337       -0.32253933525518
C            2.81932027613298        1.90889193129681       -0.28252417361406
O            3.52570515008382        3.03063263800554       -0.34847926321311
H            7.33997456490413        0.59956495172666       -1.00321348368305
H            7.49596779473231        2.09769649659042       -0.03606460367127
H            7.25572328891442        0.52045630290506        0.77548306156278
H            1.83016711042537       -2.51106751270857        1.04915894460561
H            0.51753874843959       -1.77256703443699        1.98729137902661
H            0.22177788077135       -3.26495771216973        1.07319352135793
H            1.66423354959567       -2.49384667236017       -1.54326948058851
H            0.03900623891966       -3.20196446704124       -1.42829037495047
H            0.28486190745547       -1.67711285590196       -2.30402030625534
H           -1.17662322556828       -0.05885410614534       -0.05215082583310
H           -5.09781245661832        0.58626902463138       -1.89671739776587
H           -6.39850969575512        1.32618190448330       -0.93577106814199
H           -4.81222335709568        2.12360845118034       -1.05078966131638
H           -4.60120877468720        2.12374915179169        1.49243622708724
H           -6.18758942259476        1.33122651221403        1.63486103467961
H           -4.75208149550731        0.58879496344261        2.37581446177997
H            2.89717683093913        3.78222052517836       -0.37418246792202

          :  Hamiltonian                  GFN1-xTB          :
         :: total energy             -82.932771522540 Eh    ::
         :: gradient norm              0.000187933739 Eh/a0 ::
         :: HOMO-LUMO gap              0.061182238456 eV    ::
         :: SCC energy               -83.691746483474 Eh    ::
         :: -> Gsolv                  -0.055390734174 Eh    ::
         :: repulsion energy           0.784218380246 Eh    ::

    * Orbital Energies and Occupations

         #    Occupation            Energy/Eh            Energy/eV
      -------------------------------------------------------------
         1        2.0000           -0.8880931             -24.1662
       ...           ...                  ...                  ...
        55        2.0000           -0.5103751             -13.8880
        56        2.0000           -0.5018022             -13.6547
        57        2.0000           -0.5005723             -13.6213
        58        2.0000           -0.4944047             -13.4534
        59        2.0000           -0.4864465             -13.2369
        60        2.0000           -0.4801531             -13.0656
        61        2.0000           -0.4747546             -12.9187
        62        2.0000           -0.4677373             -12.7278
        63        2.0000           -0.4664625             -12.6931
        64        2.0000           -0.4568850             -12.4325
        65        2.0000           -0.4461247             -12.1397
        66        1.9992           -0.4167179             -11.3395
        67        1.5315           -0.4104253             -11.1682 (HOMO)
        68        0.4693           -0.4081769             -11.1071 (LUMO)
        69                         -0.3227562              -8.7826
        70                         -0.3083090              -8.3895
        71                         -0.2715458              -7.3891
        72                         -0.2245135              -6.1093
        73                         -0.2213195              -6.0224
        74                         -0.1475172              -4.0141
        75                         -0.1456558              -3.9635
        76                         -0.1402392              -3.8161
        77                         -0.1359702              -3.6999
        78                         -0.1211333              -3.2962
       ...                                ...                  ...
       134                          0.7295668              19.8525
      -------------------------------------------------------------
                  HL-Gap            0.0022484 Eh            0.0612 eV

Wiberg/Mayer (AO) data.
largest (>0.10) Wiberg bond orders for each atom

     #   Z sym  total        # sym  WBO       # sym  WBO       # sym  WBO
 ---------------------------------------------------------------------------
     1   6 C    3.872 --    27 H    0.986    28 H    0.979    26 H    0.979
                             2 O    0.897
     2   8 O    2.202 --     3 C    1.116     1 C    0.897     4 O    0.135
     3   6 C    3.845 --     4 O    1.660     2 O    1.116     5 C    0.990
     4   8 O    1.917 --     3 C    1.660     2 O    0.135
     5   6 C    3.917 --    24 C    1.376     6 N    1.314     3 C    0.990
     6   7 N    2.854 --     7 C    1.334     5 C    1.314
     7   6 C    3.911 --    21 N    1.454     6 N    1.334     8 C    0.982
     8   6 C    3.923 --     7 C    0.982     9 C    0.975    10 C    0.971
                            11 N    0.925
     9   6 C    3.982 --    30 H    0.986    29 H    0.983    31 H    0.982
                             8 C    0.975
    10   6 C    3.981 --    34 H    0.986    32 H    0.983    33 H    0.981
                             8 C    0.971
    11   7 N    3.382 --    12 C    1.293     8 C    0.925    35 H    0.866
                            13 O    0.202
    12   6 C    3.921 --    13 O    1.566    11 N    1.293    14 C    0.980
    13   8 O    1.885 --    12 C    1.566    11 N    0.202
    14   6 C    3.637 --    15 N    1.291    20 O    1.204    12 C    0.980
    15   7 N    2.993 --    16 N    1.565    14 C    1.291
    16   7 N    2.721 --    15 N    1.565    17 C    1.027
    17   6 C    3.833 --    16 N    1.027    18 C    0.935    19 C    0.935
                            20 O    0.869
    18   6 C    3.940 --    36 H    0.982    37 H    0.981    38 H    0.980
                            17 C    0.935
    19   6 C    3.940 --    41 H    0.982    40 H    0.981    39 H    0.980
                            17 C    0.935
    20   8 O    2.231 --    14 C    1.204    17 C    0.869
    21   7 N    2.967 --     7 C    1.454    22 C    1.179
    22   6 C    3.874 --    23 O    1.554    21 N    1.179    24 C    1.031
    23   8 O    1.781 --    22 C    1.554
    24   6 C    3.732 --     5 C    1.376    25 O    1.147    22 C    1.031
    25   8 O    2.057 --    24 C    1.147    42 H    0.795
    26   1 H    1.007 --     1 C    0.979
    27   1 H    1.011 --     1 C    0.986
    28   1 H    1.007 --     1 C    0.979
    29   1 H    1.010 --     9 C    0.983
    30   1 H    1.001 --     9 C    0.986
    31   1 H    1.008 --     9 C    0.982
    32   1 H    1.007 --    10 C    0.983
    33   1 H    1.007 --    10 C    0.981
    34   1 H    1.002 --    10 C    0.986
    35   1 H    0.956 --    11 N    0.866
    36   1 H    0.996 --    18 C    0.982
    37   1 H    0.996 --    18 C    0.981
    38   1 H    0.995 --    18 C    0.980
    39   1 H    0.995 --    19 C    0.980
    40   1 H    0.996 --    19 C    0.981
    41   1 H    0.996 --    19 C    0.982
    42   1 H    0.847 --    25 O    0.795
 ---------------------------------------------------------------------------

           -------------------------------------------------
          | TOTAL ENERGY              -82.932771522540 Eh   |
          | GRADIENT NORM               0.000187933739 Eh/α |
          | HOMO-LUMO GAP               0.061182238456 eV   |
           -------------------------------------------------

 * finished run on 2023/06/20 at 18:24:05.208
