   * xtb version 6.5.1 (579679a) compiled by 'ehlert@majestix' on 2022-07-11
          program call               : /lustre/hpc/kemi/ree/PhD/git/ReactivityQM/dep/xtb-6.5.1/bin/xtb --gfn 1 /lustre/hpc/kemi/ree/PhD/git/ReactivityQM/calculations/R02deprot/reac01prodE14/conf04/R02deprot_reac01prodE14_conf04_gfn1.xyz --opt --vfukui --chrg -2 --uhf 0 --alpb DMSO

   ID    Z sym.   atoms
    1    6 C      1, 3, 5, 7-10, 12, 14, 17, 18, 21, 23, 24
    2    8 O      2, 4, 13, 19, 22, 25
    3    7 N      6, 11, 15, 16, 20
    4    1 H      26-42

      * Solvation model:               ALPB
        Solvent                        DMSO
        Solvent mass                       7.8130E+01 g/mol
          :  Hamiltonian                  GFN1-xTB          :
 * total energy  :   -83.5892709 Eh     change        0.4263256E-13 Eh
 * total energy  :   -83.6104368 Eh     change       -0.2116588E-01 Eh
 * total energy  :   -83.6196474 Eh     change       -0.9210575E-02 Eh
 * total energy  :   -83.6219809 Eh     change       -0.2333472E-02 Eh
 * total energy  :   -83.6243121 Eh     change       -0.2331199E-02 Eh
 * total energy  :   -83.6257374 Eh     change       -0.1425333E-02 Eh
 * total energy  :   -83.6271457 Eh     change       -0.1408263E-02 Eh
 * total energy  :   -83.6283745 Eh     change       -0.1228804E-02 Eh
 * total energy  :   -83.6290354 Eh     change       -0.6608847E-03 Eh
 * total energy  :   -83.6295503 Eh     change       -0.5149528E-03 Eh
 * total energy  :   -83.6336742 Eh     change       -0.5937278E-05 Eh
 * total energy  :   -83.6336808 Eh     change       -0.6660912E-05 Eh
 * total energy  :   -83.6336877 Eh     change       -0.6879986E-05 Eh
 * total energy  :   -83.6336942 Eh     change       -0.6438787E-05 Eh
 * total energy  :   -83.6337000 Eh     change       -0.5856353E-05 Eh
 * total energy  :   -83.6337056 Eh     change       -0.5558780E-05 Eh
 * total energy  :   -83.6337111 Eh     change       -0.5535904E-05 Eh
 * total energy  :   -83.6337167 Eh     change       -0.5560562E-05 Eh
 * total energy  :   -83.6337195 Eh     change       -0.2864726E-05 Eh
   *** GEOMETRY OPTIMIZATION CONVERGED AFTER 68 ITERATIONS ***

 final structure:
================
42
 xtb: 6.5.1 (579679a)
C            5.63736923935947        0.48216045566412        1.30841386443415
O            4.32452895870764        0.51745732270823        0.79931869509649
C            3.96542723496672       -0.60891458701212        0.01041946485741
O            4.84236105246392       -1.47978787238342       -0.19069899027279
C            2.64319999984445       -0.58415647757572       -0.42830360228355
N            1.81397989379408        0.43842066919535       -0.00109854035724
C            0.55900622525551        0.42515107732701       -0.31286479373820
C           -0.30349992069181        1.56950588912991        0.22233715514503
C            0.10271697159315        1.90093557848375        1.66317999211458
C           -0.13664152693566        2.80146041127796       -0.68425502197864
N           -1.69395861149413        1.11210773725934        0.17428544043224
C           -2.75186195102808        1.81485327943245        0.58939422457582
O           -2.71293131070528        2.93174026603378        1.11278953538785
C           -4.04355186546981        1.11540941877241        0.38759179298313
N           -5.23387623773547        1.54797603622011        0.70627995908330
N           -6.11755655268772        0.56890150034021        0.34708191314236
C           -5.41989805179153       -0.39515345575528       -0.16538175950026
C           -5.91969276594573       -1.68182236902265       -0.70118537523774
O           -4.10376556567357       -0.11944202202588       -0.17248725900618
N           -0.09907825334652       -0.45950436844969       -1.13035984784604
C            0.59138211955499       -1.45282188313702       -1.67219830568807
O            0.11627586845613       -2.23602381455581       -2.52843450840009
C            2.07352676773163       -1.71157618559076       -1.26181379708487
C            2.11009467346339       -3.05597891078854       -0.49675840287622
O            2.80984535947333       -1.87196110234529       -2.49204098611696
H            5.78199004587180        1.38260015157290        1.90950245388482
H            6.38567707530189        0.46786977461223        0.50388559871386
H            5.80192286004152       -0.39940408913327        1.94326253980228
H           -0.12822250569224        1.06002973253314        2.31721161383235
H           -0.41261026237342        2.78790222659468        2.02873053650431
H            1.17887571978055        2.07701744741032        1.68954369186098
H            0.91515693751364        3.08577151750334       -0.71078201810460
H           -0.46389990463673        2.56326969572110       -1.69627085166982
H           -0.72169035940532        3.64221692703717       -0.31265874101920
H           -1.82592829096370        0.23265155261908       -0.32734148834623
H           -5.66485791492106       -1.77569723349841       -1.75683380194805
H           -5.46252041846318       -2.51459175745982       -0.16705123107261
H           -6.99929513955962       -1.72689702705662       -0.58540585871851
H            1.59938237824339       -2.95183640036790        0.46059615968199
H            3.14324586073496       -3.35671073335865       -0.32189671955339
H            1.61087488892516       -3.82820069215499       -1.08277993837500
H            2.20849527843988       -2.31492568577145       -3.11184679234945

          :  Hamiltonian                  GFN1-xTB          :
         :: total energy             -83.633719544303 Eh    ::
         :: gradient norm              0.000153364481 Eh/a0 ::
         :: HOMO-LUMO gap              0.143655036535 eV    ::
         :: SCC energy               -84.365786494415 Eh    ::
         :: -> Gsolv                  -0.272751713160 Eh    ::
         :: repulsion energy           0.757677923081 Eh    ::

    * Orbital Energies and Occupations

         #    Occupation            Energy/Eh            Energy/eV
      -------------------------------------------------------------
         1        2.0000           -0.8414027             -22.8957
       ...           ...                  ...                  ...
        56        2.0000           -0.4359542             -11.8629
        57        2.0000           -0.4352849             -11.8447
        58        2.0000           -0.4274580             -11.6317
        59        2.0000           -0.4227316             -11.5031
        60        2.0000           -0.4213480             -11.4655
        61        2.0000           -0.4129965             -11.2382
        62        2.0000           -0.4092387             -11.1360
        63        2.0000           -0.3940803             -10.7235
        64        2.0000           -0.3824348             -10.4066
        65        2.0000           -0.3608603              -9.8195
        66        2.0000           -0.3523095              -9.5868
        67        2.0000           -0.3285876              -8.9413
        68        1.8830           -0.2887676              -7.8578 (HOMO)
        69        0.1170           -0.2834884              -7.7141 (LUMO)
        70                         -0.2381593              -6.4806
        71                         -0.2009680              -5.4686
        72                         -0.1691361              -4.6024
        73                         -0.1356738              -3.6919
        74                         -0.1341159              -3.6495
        75                         -0.1114159              -3.0318
        76                         -0.1031791              -2.8076
        77                         -0.0963316              -2.6213
        78                         -0.0916417              -2.4937
        79                         -0.0716013              -1.9484
       ...                                ...                  ...
       134                          0.7249615              19.7272
      -------------------------------------------------------------
                  HL-Gap            0.0052792 Eh            0.1437 eV

Wiberg/Mayer (AO) data.
largest (>0.10) Wiberg bond orders for each atom

     #   Z sym  total        # sym  WBO       # sym  WBO       # sym  WBO
 ---------------------------------------------------------------------------
     1   6 C    3.926 --    26 H    0.987    27 H    0.980    28 H    0.980
                             2 O    0.960
     2   8 O    2.047 --     1 C    0.960     3 C    0.912
     3   6 C    3.846 --     4 O    1.427     5 C    1.374     2 O    0.912
     4   8 O    1.737 --     3 C    1.427     5 C    0.119
     5   6 C    3.809 --     3 C    1.374     6 N    1.152    23 C    0.982
                             4 O    0.119
     6   7 N    3.008 --     7 C    1.573     5 C    1.152
     7   6 C    3.925 --     6 N    1.573    20 N    1.171     8 C    0.962
     8   6 C    3.920 --     9 C    0.992    10 C    0.980     7 C    0.962
                            11 N    0.917
     9   6 C    3.994 --     8 C    0.992    29 H    0.987    30 H    0.985
                            31 H    0.983
    10   6 C    3.990 --    33 H    0.987    32 H    0.987    34 H    0.985
                             8 C    0.980
    11   7 N    3.368 --    12 C    1.300     8 C    0.917    35 H    0.872
                            13 O    0.179
    12   6 C    3.894 --    13 O    1.514    11 N    1.300    14 C    1.004
    13   8 O    1.820 --    12 C    1.514    11 N    0.179
    14   6 C    3.814 --    15 N    1.581    19 O    1.033    12 C    1.004
    15   7 N    2.931 --    14 C    1.581    16 N    1.188
    16   7 N    2.979 --    17 C    1.621    15 N    1.188
    17   6 C    3.860 --    16 N    1.621    19 O    1.069    18 C    1.029
    18   6 C    3.990 --    17 C    1.029    38 H    0.984    37 H    0.967
                            36 H    0.966
    19   8 O    2.287 --    17 C    1.069    14 C    1.033
    20   7 N    2.949 --    21 C    1.384     7 C    1.171    22 O    0.134
    21   6 C    3.900 --    22 O    1.468    20 N    1.384    23 C    0.911
    22   8 O    1.770 --    21 C    1.468    20 N    0.134
    23   6 C    3.897 --     5 C    0.982    24 C    0.970    25 O    0.916
                            21 C    0.911
    24   6 C    3.991 --    39 H    0.989    41 H    0.986    40 H    0.984
                            23 C    0.970
    25   8 O    1.870 --    23 C    0.916    42 H    0.867
    26   1 H    1.022 --     1 C    0.987
    27   1 H    1.023 --     1 C    0.980
    28   1 H    1.023 --     1 C    0.980
    29   1 H    1.010 --     9 C    0.987
    30   1 H    1.017 --     9 C    0.985
    31   1 H    1.029 --     9 C    0.983
    32   1 H    1.013 --    10 C    0.987
    33   1 H    1.010 --    10 C    0.987
    34   1 H    1.013 --    10 C    0.985
    35   1 H    0.984 --    11 N    0.872
    36   1 H    0.998 --    18 C    0.966
    37   1 H    0.998 --    18 C    0.967
    38   1 H    1.001 --    18 C    0.984
    39   1 H    1.014 --    24 C    0.989
    40   1 H    1.027 --    24 C    0.984
    41   1 H    1.018 --    24 C    0.986
    42   1 H    0.913 --    25 O    0.867
 ---------------------------------------------------------------------------

           -------------------------------------------------
          | TOTAL ENERGY              -83.633719544303 Eh   |
          | GRADIENT NORM               0.000153364481 Eh/α |
          | HOMO-LUMO GAP               0.143655036535 eV   |
           -------------------------------------------------

 * finished run on 2023/06/20 at 18:04:18.076
