   * xtb version 6.5.1 (579679a) compiled by 'ehlert@majestix' on 2022-07-11
          program call               : /lustre/hpc/kemi/ree/PhD/git/ReactivityQM/dep/xtb-6.5.1/bin/xtb --gfn 1 /lustre/hpc/kemi/ree/PhD/git/ReactivityQM/calculations/R02/reac01prodE04/conf17/R02_reac01prodE04_conf17_gfn1.xyz --opt --vfukui --chrg -1 --uhf 0 --alpb DMSO

   ID    Z sym.   atoms
    1    6 C      1, 3, 5, 6, 8-11, 13, 15, 18, 19, 22, 24
    2    8 O      2, 4, 14, 20, 23, 25
    3    7 N      7, 12, 16, 17, 21
    4    1 H      26-43

      * Solvation model:               ALPB
        Solvent                        DMSO
        Solvent mass                       7.8130E+01 g/mol
          :  Hamiltonian                  GFN1-xTB          :
 * total energy  :   -83.8487928 Eh     change       -0.1145523E-08 Eh
 * total energy  :   -83.8644745 Eh     change       -0.1568173E-01 Eh
 * total energy  :   -83.8715713 Eh     change       -0.7096791E-02 Eh
 * total energy  :   -83.8731650 Eh     change       -0.1593707E-02 Eh
 * total energy  :   -83.8740140 Eh     change       -0.8489613E-03 Eh
 * total energy  :   -83.8742976 Eh     change       -0.2836011E-03 Eh
 * total energy  :   -83.8744775 Eh     change       -0.1799452E-03 Eh
 * total energy  :   -83.8746101 Eh     change       -0.1326343E-03 Eh
 * total energy  :   -83.8747157 Eh     change       -0.1055558E-03 Eh
 * total energy  :   -83.8748218 Eh     change       -0.1061192E-03 Eh
 * total energy  :   -83.8763217 Eh     change       -0.1289916E-04 Eh
 * total energy  :   -83.8763453 Eh     change       -0.2360087E-04 Eh
 * total energy  :   -83.8763559 Eh     change       -0.1063215E-04 Eh
 * total energy  :   -83.8763752 Eh     change       -0.1925520E-04 Eh
 * total energy  :   -83.8763906 Eh     change       -0.1540400E-04 Eh
 * total energy  :   -83.8764006 Eh     change       -0.1003833E-04 Eh
 * total energy  :   -83.8764127 Eh     change       -0.1204538E-04 Eh
 * total energy  :   -83.8764175 Eh     change       -0.4799086E-05 Eh
 * total energy  :   -83.8764211 Eh     change       -0.3605090E-05 Eh
   *** GEOMETRY OPTIMIZATION CONVERGED AFTER 44 ITERATIONS ***

 final structure:
================
43
 xtb: 6.5.1 (579679a)
C           -3.35366430193433        2.51906264520494       -1.08062274208339
O           -2.66228640404148        1.34394752175858       -0.66402985058624
C           -2.92472149630107        0.22033882509646       -1.35774380696614
O           -3.69622574537853        0.21065785655836       -2.29910477418555
C           -2.27423624625174       -1.03156819484269       -0.75218831688771
C           -2.09983603768411       -2.09208150198398       -1.84709252318242
N           -0.96338479005994       -0.69751487855341       -0.20015716277418
C           -0.86917819259435       -0.38943299463928        1.04053365881798
C            0.49808154570878        0.02748041307213        1.57774389575300
C            0.41905647522222        1.43517271562623        2.18290771178268
C            0.99523448233605       -0.99033603202271        2.61246283027443
N            1.40073339123584        0.04059152707339        0.42801704906630
C            2.69230447260845        0.38454481628190        0.46052935939453
O            3.32809548797891        0.70892668127559        1.45380664243199
C            3.29146484802149        0.33351353196066       -0.90450447142860
N            2.67562002831841        0.01300874140945       -2.00185156408770
N            3.58967242338311        0.11388796973761       -3.01061403991872
C            4.70305166014494        0.49031404553155       -2.46245193341876
C            5.99877083819216        0.74258405801654       -3.13101929839690
O            4.58104301127732        0.64635111126518       -1.13518016348178
N           -1.89714144574041       -0.37930754502098        1.91989670065869
C           -3.11424464496658       -1.12997565088994        1.62924666692140
O           -3.85973345257144       -1.41672738136355        2.60713686727076
C           -3.24547367100981       -1.45828995393853        0.31758968684618
O           -4.35931449598413       -2.21429323025498       -0.12813827441379
H           -4.43554601225047        2.35935890067543       -1.05311497283154
H           -3.06069444718213        2.79312122300639       -2.09827269238861
H           -3.07644606416618        3.31310308819176       -0.38933658313106
H           -1.69516455018338       -3.00400925954227       -1.41044080167637
H           -1.41158772519726       -1.72978736568634       -2.61019230027915
H           -3.06159170961311       -2.31237597171579       -2.30905949727566
H            1.39389839159074        1.73614908173093        2.56237434509171
H            0.09540492648732        2.14826602827460        1.42550983858938
H           -0.29267725283262        1.44628743116429        3.00585354509872
H            1.97318298424594       -0.69454744981846        2.98854186496644
H            0.29973104999173       -1.03775870884787        3.44826259247049
H            1.07230163271619       -1.97776154978189        2.15900480880480
H            0.97038312032429       -0.22226779819116       -0.45905586681316
H            6.35650608308683        1.74193792953154       -2.88578160283665
H            5.87873333194787        0.65036631979212       -4.20751485964652
H            6.74312622183987        0.02450285291468       -2.78669097876487
H           -1.70889844011393       -0.26507790890649        2.90197366426180
H           -4.89434928059479       -2.40035893913543        0.65612634895295

          :  Hamiltonian                  GFN1-xTB          :
         :: total energy             -83.876421069644 Eh    ::
         :: gradient norm              0.000413216058 Eh/a0 ::
         :: HOMO-LUMO gap              0.320297152519 eV    ::
         :: SCC energy               -84.641353256023 Eh    ::
         :: -> Gsolv                  -0.114797048644 Eh    ::
         :: repulsion energy           0.792196286508 Eh    ::

    * Orbital Energies and Occupations

         #    Occupation            Energy/Eh            Energy/eV
      -------------------------------------------------------------
         1        2.0000           -0.8576188             -23.3370
       ...           ...                  ...                  ...
        56        2.0000           -0.4762678             -12.9599
        57        2.0000           -0.4697744             -12.7832
        58        2.0000           -0.4672466             -12.7144
        59        2.0000           -0.4597354             -12.5100
        60        2.0000           -0.4542947             -12.3620
        61        2.0000           -0.4525625             -12.3149
        62        2.0000           -0.4432449             -12.0613
        63        2.0000           -0.4404730             -11.9859
        64        2.0000           -0.4321754             -11.7601
        65        2.0000           -0.4024358             -10.9508
        66        2.0000           -0.3908304             -10.6350
        67        2.0000           -0.3795248             -10.3274
        68        1.9959           -0.3116702              -8.4810 (HOMO)
        69        0.0041           -0.2998995              -8.1607 (LUMO)
        70                         -0.2518990              -6.8545
        71                         -0.2393142              -6.5121
        72                         -0.2217665              -6.0346
        73                         -0.1881176              -5.1189
        74                         -0.1410479              -3.8381
        75                         -0.1310701              -3.5666
        76                         -0.1302308              -3.5438
        77                         -0.1177820              -3.2050
        78                         -0.1120205              -3.0482
        79                         -0.0994448              -2.7060
       ...                                ...                  ...
       136                          0.7285095              19.8238
      -------------------------------------------------------------
                  HL-Gap            0.0117707 Eh            0.3203 eV

Wiberg/Mayer (AO) data.
largest (>0.10) Wiberg bond orders for each atom

     #   Z sym  total        # sym  WBO       # sym  WBO       # sym  WBO
 ---------------------------------------------------------------------------
     1   6 C    3.890 --    28 H    0.987    27 H    0.981    26 H    0.981
                             2 O    0.912
     2   8 O    2.174 --     3 C    1.080     1 C    0.912     4 O    0.118
     3   6 C    3.811 --     4 O    1.636     2 O    1.080     5 C    0.920
     4   8 O    1.901 --     3 C    1.636     2 O    0.118
     5   6 C    3.963 --     6 C    0.988     7 N    0.967    24 C    0.956
                             3 C    0.920
     6   6 C    3.996 --    30 H    0.988     5 C    0.988    29 H    0.987
                            31 H    0.985
     7   7 N    3.002 --     8 C    1.659     5 C    0.967    21 N    0.167
     8   6 C    3.952 --     7 N    1.659    21 N    1.209     9 C    0.967
     9   6 C    3.933 --    10 C    0.985    11 C    0.984     8 C    0.967
                            12 N    0.926
    10   6 C    3.993 --    33 H    0.986     9 C    0.985    34 H    0.984
                            32 H    0.981
    11   6 C    3.992 --    37 H    0.986     9 C    0.984    36 H    0.984
                            35 H    0.981
    12   7 N    3.381 --    13 C    1.295     9 C    0.926    38 H    0.871
                            14 O    0.187
    13   6 C    3.922 --    14 O    1.566    12 N    1.295    15 C    0.981
    14   8 O    1.887 --    13 C    1.566    12 N    0.187
    15   6 C    3.868 --    16 N    1.617    20 O    1.061    13 C    0.981
    16   7 N    3.008 --    15 C    1.617    17 N    1.192
    17   7 N    2.980 --    18 C    1.614    16 N    1.192
    18   6 C    3.873 --    17 N    1.614    20 O    1.080    19 C    1.030
    19   6 C    3.988 --    18 C    1.030    40 H    0.983    39 H    0.966
                            41 H    0.963
    20   8 O    2.324 --    18 C    1.080    15 C    1.061
    21   7 N    3.321 --     8 C    1.209    42 H    0.910    22 C    0.897
                             7 N    0.167
    22   6 C    3.915 --    24 C    1.520    23 O    1.364    21 N    0.897
    23   8 O    1.709 --    22 C    1.364    24 C    0.173
    24   6 C    3.791 --    22 C    1.520     5 C    0.956    25 O    0.945
                            23 O    0.173
    25   8 O    1.916 --    24 C    0.945    43 H    0.857
    26   1 H    1.011 --     1 C    0.981
    27   1 H    1.011 --     1 C    0.981
    28   1 H    1.014 --     1 C    0.987
    29   1 H    1.011 --     6 C    0.987
    30   1 H    1.010 --     6 C    0.988
    31   1 H    1.016 --     6 C    0.985
    32   1 H    1.010 --    10 C    0.981
    33   1 H    1.005 --    10 C    0.986
    34   1 H    1.004 --    10 C    0.984
    35   1 H    1.010 --    11 C    0.981
    36   1 H    1.003 --    11 C    0.984
    37   1 H    1.004 --    11 C    0.986
    38   1 H    0.984 --    12 N    0.871
    39   1 H    0.997 --    19 C    0.966
    40   1 H    0.999 --    19 C    0.983
    41   1 H    0.997 --    19 C    0.963
    42   1 H    0.962 --    21 N    0.910
    43   1 H    0.890 --    25 O    0.857
 ---------------------------------------------------------------------------

           -------------------------------------------------
          | TOTAL ENERGY              -83.876421069644 Eh   |
          | GRADIENT NORM               0.000413216058 Eh/α |
          | HOMO-LUMO GAP               0.320297152519 eV   |
           -------------------------------------------------

 * finished run on 2023/06/20 at 14:57:34.385
