   * xtb version 6.5.1 (579679a) compiled by 'ehlert@majestix' on 2022-07-11
          program call               : /lustre/hpc/kemi/ree/PhD/git/ReactivityQM/dep/xtb-6.5.1/bin/xtb --gfn 1 /lustre/hpc/kemi/ree/PhD/git/ReactivityQM/calculations/R01/reac02prodN02/conf15/R01_reac02prodN02_conf15_gfn1.xyz --opt --vfukui --chrg 1 --uhf 0 --alpb DMSO

   ID    Z sym.   atoms
    1    6 C      1, 3-6, 8, 9, 12, 13, 15
    2    7 N      2, 7, 17
    3    8 O      10, 11, 14, 16
    4    1 H      18-33

      * Solvation model:               ALPB
        Solvent                        DMSO
        Solvent mass                       7.8130E+01 g/mol
          :  Hamiltonian                  GFN1-xTB          :
 * total energy  :   -57.8579138 Eh     change       -0.6984635E-11 Eh
 * total energy  :   -57.8671785 Eh     change       -0.9264732E-02 Eh
 * total energy  :   -57.8696577 Eh     change       -0.2479125E-02 Eh
 * total energy  :   -57.8699899 Eh     change       -0.3322545E-03 Eh
 * total energy  :   -57.8701690 Eh     change       -0.1790804E-03 Eh
 * total energy  :   -57.8702408 Eh     change       -0.7182838E-04 Eh
 * total energy  :   -57.8703149 Eh     change       -0.7408152E-04 Eh
 * total energy  :   -57.8703768 Eh     change       -0.6187250E-04 Eh
 * total energy  :   -57.8704252 Eh     change       -0.4842350E-04 Eh
 * total energy  :   -57.8704704 Eh     change       -0.4517798E-04 Eh
 * total energy  :   -57.8711940 Eh     change       -0.1390448E-04 Eh
 * total energy  :   -57.8712058 Eh     change       -0.1183531E-04 Eh
 * total energy  :   -57.8712155 Eh     change       -0.9665525E-05 Eh
 * total energy  :   -57.8712237 Eh     change       -0.8216145E-05 Eh
 * total energy  :   -57.8712308 Eh     change       -0.7097731E-05 Eh
 * total energy  :   -57.8712371 Eh     change       -0.6276144E-05 Eh
 * total energy  :   -57.8712428 Eh     change       -0.5716694E-05 Eh
 * total energy  :   -57.8712481 Eh     change       -0.5278122E-05 Eh
 * total energy  :   -57.8712530 Eh     change       -0.4910489E-05 Eh
   *** GEOMETRY OPTIMIZATION CONVERGED AFTER 42 ITERATIONS ***

 final structure:
================
33
 xtb: 6.5.1 (579679a)
C           -2.96727780603835       -1.09297774498692       -0.64997735868151
N           -2.96605155813951       -0.11679619319977        0.46956832463518
C           -1.78672035927974        0.83111835284814        0.51523958269526
C           -1.84332415247150        1.75086772739715       -0.70067979428251
C           -1.92317409613325        1.62319123634219        1.81787915507288
C           -0.50160293822592        0.03535513120827        0.52295237478631
N            0.44157033796422        0.37356464804400       -0.27976669952710
C            1.65117743778985       -0.28342911632785       -0.24912870660614
C            2.64489697182769        0.25944293512375       -1.22709418516182
O            2.37115195426837        1.10831839525323       -2.04332658569592
O            3.85278752090196       -0.27511596785451       -1.09685549418072
C            4.86877232737491        0.20572964231609       -1.98528956508215
C            1.85343254857996       -1.32021929014349        0.62030990058196
O            2.98102028356768       -2.02419976291517        0.70599489613763
C            0.79006314002216       -1.72630168308901        1.54172868870453
O            0.90854129871853       -2.63843092685105        2.33946330414417
N           -0.36299100346225       -0.97623037649278        1.43589636641162
H           -2.04141392282613       -1.66076237546107       -0.61725472933228
H           -3.06035051788409       -0.55605525076972       -1.58952775253148
H           -3.82186233610920       -1.74824054941562       -0.50361786523302
H           -3.81597374817910        0.44000106688030        0.41493702223185
H           -3.01488743835437       -0.63179832792424        1.34427820099409
H           -2.80864134875535        2.25035455689276       -0.74830340967280
H           -1.05733251522095        2.49992534377838       -0.60937058012626
H           -1.67674039421243        1.19009727110448       -1.61865782153053
H           -2.85364602410465        2.18766001842266        1.81450583934904
H           -1.91670068664859        0.95245314989441        2.67487038783318
H           -1.08756864035970        2.31669470534528        1.90706774855355
H            5.79720916748071       -0.27533496773860       -1.68374401094649
H            4.61895320562418       -0.05906786897635       -3.01530671757437
H            4.95661245501366        1.29144519565401       -1.90053021991142
H            2.87610162742462       -2.71919163491910        1.38204103965741
H           -1.10603079015414       -1.21206833944166        2.07060366429034

          :  Hamiltonian                  GFN1-xTB          :
         :: total energy             -57.871252983638 Eh    ::
         :: gradient norm              0.000205196877 Eh/a0 ::
         :: HOMO-LUMO gap              3.009947606175 eV    ::
         :: SCC energy               -58.454437889745 Eh    ::
         :: -> Gsolv                  -0.132201795307 Eh    ::
         :: repulsion energy           0.602326518767 Eh    ::

    * Orbital Energies and Occupations

         #    Occupation            Energy/Eh            Energy/eV
      -------------------------------------------------------------
         1        2.0000           -0.8923779             -24.2828
       ...           ...                  ...                  ...
        35        2.0000           -0.5562869             -15.1373
        36        2.0000           -0.5516005             -15.0098
        37        2.0000           -0.5470902             -14.8871
        38        2.0000           -0.5440594             -14.8046
        39        2.0000           -0.5353587             -14.5679
        40        2.0000           -0.5287175             -14.3871
        41        2.0000           -0.5203272             -14.1588
        42        2.0000           -0.5071638             -13.8006
        43        2.0000           -0.5026475             -13.6777
        44        2.0000           -0.4980007             -13.5513
        45        2.0000           -0.4794751             -13.0472
        46        2.0000           -0.4678433             -12.7307
        47        2.0000           -0.4500829             -12.2474 (HOMO)
        48                         -0.3394693              -9.2374 (LUMO)
        49                         -0.3069438              -8.3524
        50                         -0.2538905              -6.9087
        51                         -0.1906188              -5.1870
        52                         -0.1782635              -4.8508
        53                         -0.1753871              -4.7725
        54                         -0.1660379              -4.5181
        55                         -0.1509446              -4.1074
        56                         -0.1422145              -3.8699
        57                         -0.1392887              -3.7902
        58                         -0.1166003              -3.1729
       ...                                ...                  ...
       100                          0.7255920              19.7444
      -------------------------------------------------------------
                  HL-Gap            0.1106135 Eh            3.0099 eV

Wiberg/Mayer (AO) data.
largest (>0.10) Wiberg bond orders for each atom

     #   Z sym  total        # sym  WBO       # sym  WBO       # sym  WBO
 ---------------------------------------------------------------------------
     1   6 C    3.891 --    18 H    0.984    19 H    0.982    20 H    0.980
                             2 N    0.915
     2   7 N    3.593 --     1 C    0.915    22 H    0.892    21 H    0.887
                             3 C    0.872
     3   6 C    3.897 --     4 C    1.002     5 C    0.986     6 C    0.983
                             2 N    0.872
     4   6 C    3.982 --     3 C    1.002    23 H    0.982    25 H    0.979
                            24 H    0.976
     5   6 C    3.981 --     3 C    0.986    27 H    0.980    26 H    0.979
                            28 H    0.977
     6   6 C    3.941 --     7 N    1.614    17 N    1.152     3 C    0.983
     7   7 N    3.035 --     6 C    1.614     8 C    1.167
     8   6 C    3.959 --    13 C    1.508     7 N    1.167     9 C    0.992
     9   6 C    3.855 --    10 O    1.660    11 O    1.126     8 C    0.992
    10   8 O    1.923 --     9 C    1.660    11 O    0.138
    11   8 O    2.210 --     9 C    1.126    12 C    0.892    10 O    0.138
    12   6 C    3.866 --    29 H    0.986    31 H    0.979    30 H    0.979
                            11 O    0.892
    13   6 C    3.921 --     8 C    1.508    14 O    1.124    15 C    1.053
    14   8 O    2.101 --    13 C    1.124    32 H    0.801
    15   6 C    3.906 --    16 O    1.600    17 N    1.122    13 C    1.053
    16   8 O    1.922 --    15 C    1.600    17 N    0.134
    17   7 N    3.453 --     6 C    1.152    15 C    1.122    33 H    0.881
                            16 O    0.134
    18   1 H    0.995 --     1 C    0.984
    19   1 H    0.993 --     1 C    0.982
    20   1 H    0.987 --     1 C    0.980
    21   1 H    0.914 --     2 N    0.887
    22   1 H    0.919 --     2 N    0.892
    23   1 H    0.993 --     4 C    0.982
    24   1 H    1.002 --     4 C    0.976
    25   1 H    1.003 --     4 C    0.979
    26   1 H    0.992 --     5 C    0.979
    27   1 H    0.993 --     5 C    0.980
    28   1 H    0.994 --     5 C    0.977
    29   1 H    1.010 --    12 C    0.986
    30   1 H    1.006 --    12 C    0.979
    31   1 H    1.007 --    12 C    0.979
    32   1 H    0.838 --    14 O    0.801
    33   1 H    0.919 --    17 N    0.881
 ---------------------------------------------------------------------------

           -------------------------------------------------
          | TOTAL ENERGY              -57.871252983638 Eh   |
          | GRADIENT NORM               0.000205196877 Eh/α |
          | HOMO-LUMO GAP               3.009947606175 eV   |
           -------------------------------------------------

 * finished run on 2023/06/20 at 15:03:45.185
