   * xtb version 6.5.1 (579679a) compiled by 'ehlert@majestix' on 2022-07-11
          program call               : /lustre/hpc/kemi/ree/PhD/git/ReactivityQM/dep/xtb-6.5.1/bin/xtb --gfn 1 /lustre/hpc/kemi/ree/PhD/git/ReactivityQM/calculations/R03/reac02prodN04/conf17/R03_reac02prodN04_conf17_gfn1.xyz --opt --vfukui --chrg 1 --uhf 0 --alpb DMSO

   ID    Z sym.   atoms
    1    6 C      1, 3, 5, 7-10, 12, 14, 17, 18, 21, 22, 24, 26
    2    8 O      2, 4, 13, 19, 23, 25
    3    7 N      6, 11, 15, 16, 20
    4    1 H      27-46

      * Solvation model:               ALPB
        Solvent                        DMSO
        Solvent mass                       7.8130E+01 g/mol
          :  Hamiltonian                  GFN1-xTB          :
 * total energy  :   -86.2893920 Eh     change       -0.1209344E-10 Eh
 * total energy  :   -86.3072190 Eh     change       -0.1782705E-01 Eh
 * total energy  :   -86.3157579 Eh     change       -0.8538825E-02 Eh
 * total energy  :   -86.3186724 Eh     change       -0.2914494E-02 Eh
 * total energy  :   -86.3215903 Eh     change       -0.2917930E-02 Eh
 * total energy  :   -86.3236573 Eh     change       -0.2066991E-02 Eh
 * total energy  :   -86.3257135 Eh     change       -0.2056204E-02 Eh
 * total energy  :   -86.3296744 Eh     change       -0.3960938E-02 Eh
 * total energy  :   -86.3316112 Eh     change       -0.1936764E-02 Eh
 * total energy  :   -86.3337604 Eh     change       -0.2149216E-02 Eh
 * total energy  :   -86.3439267 Eh     change       -0.1729057E-04 Eh
 * total energy  :   -86.3439360 Eh     change       -0.9395066E-05 Eh
 * total energy  :   -86.3439442 Eh     change       -0.8110636E-05 Eh
 * total energy  :   -86.3439533 Eh     change       -0.9178442E-05 Eh
 * total energy  :   -86.3439633 Eh     change       -0.9996013E-05 Eh
 * total energy  :   -86.3439600 Eh     change        0.3294883E-05 Eh
 * total energy  :   -86.3439688 Eh     change       -0.8797965E-05 Eh
 * total energy  :   -86.3439775 Eh     change       -0.8672203E-05 Eh
 * total energy  :   -86.3439825 Eh     change       -0.4987002E-05 Eh
   *** GEOMETRY OPTIMIZATION CONVERGED AFTER 51 ITERATIONS ***

 final structure:
================
46
 xtb: 6.5.1 (579679a)
C           -5.07470874137493        2.64614431517781       -1.04400025892281
O           -3.92107303972584        1.86342292853944       -0.68191599659897
C           -3.99600439901800        0.58553223602005       -0.66560895302100
O           -5.12040188187882        0.03872530673467       -0.98764793109803
C           -2.82060487007650       -0.16089589904135       -0.28087169227150
N           -1.72613361325820        0.59999049393579        0.00959576697407
C           -0.61435056426185        0.05139014281842        0.38492756619025
C            0.51449607398850        1.01675991260598        0.71806425159164
C            0.67386682029780        1.08261171698155        2.24527849008524
C            0.17321760860639        2.41216576217703        0.17494611079273
N            1.73642662898650        0.54975229633745        0.05928518144235
C            2.94513352814469        1.14753359518961        0.22861289874721
O            3.19982825809107        2.01419339252389        1.04070433118553
C            3.94083888410129        0.56832627059432       -0.70518454141053
N            3.70258636164796       -0.32436880104148       -1.61962305188961
N            4.88626378614943       -0.57115567098028       -2.24419372101241
C            5.77309214739466        0.18758682988557       -1.67130677770042
C            7.21504527734486        0.28800602876156       -1.98623941848015
O            5.23525213506045        0.93102023548307       -0.69382347609844
N           -0.49932138726462       -1.30561753026309        0.51895043873032
C            0.70211619502792       -2.01184713346955        0.98420665899236
C           -1.53765705351593       -2.18380571414302        0.23369487818460
O           -1.37602275428200       -3.38564852588487        0.35797159951784
C           -2.78356718116073       -1.54270206100265       -0.19845033452790
O           -3.87487713000081       -2.23436741429191       -0.50247254878982
C           -3.94600341566512       -3.67325296580751       -0.42916879358311
H           -5.37092968211328        2.40235457333424       -2.06459225944531
H           -4.76745189831021        3.68595106980384       -0.96300552548727
H           -5.89174705193573        2.42301829512662       -0.35750138931111
H           -0.29395679155740        1.31241065239759        2.68815046642136
H            1.02895465986952        0.13793235616427        2.64913575829759
H            1.37914907114767        1.86748052017238        2.51160213937693
H            0.99497445118731        3.09307163812671        0.39076762164878
H            0.01485737035114        2.36707333299651       -0.90079847578434
H           -0.73281057643604        2.78295074056707        0.64962224776023
H            1.62527676839738       -0.02414958861590       -0.76331015370288
H            7.44880170644507        1.29105829599377       -2.34396028794186
H            7.80465342568511        0.10379699030472       -1.08850909140913
H            7.47337955775835       -0.43982082909696       -2.75145187081334
H            0.43617301418177       -2.57898138947040        1.87603798600265
H            1.01339717242441       -2.70448579358931        0.20236301443122
H            1.50006631861074       -1.31489349488520        1.20443414434306
H           -5.12469738368008       -0.94277576868425       -0.95433432940257
H           -3.22632478975263       -4.12110932062587       -1.11490361788939
H           -3.75679547973741       -4.00755928124940        0.59115362720440
H           -4.96240853589191       -3.92282374660790       -0.72799968133573

          :  Hamiltonian                  GFN1-xTB          :
         :: total energy             -86.343982493846 Eh    ::
         :: gradient norm              0.000624486479 Eh/a0 ::
         :: HOMO-LUMO gap              1.875882683918 eV    ::
         :: SCC energy               -87.173042415071 Eh    ::
         :: -> Gsolv                  -0.103943119782 Eh    ::
         :: repulsion energy           0.857655569402 Eh    ::

    * Orbital Energies and Occupations

         #    Occupation            Energy/Eh            Energy/eV
      -------------------------------------------------------------
         1        2.0000           -0.9131762             -24.8488
       ...           ...                  ...                  ...
        58        2.0000           -0.5262246             -14.3193
        59        2.0000           -0.5182434             -14.1021
        60        2.0000           -0.5131282             -13.9629
        61        2.0000           -0.5112928             -13.9130
        62        2.0000           -0.5030307             -13.6882
        63        2.0000           -0.4891826             -13.3113
        64        2.0000           -0.4864274             -13.2364
        65        2.0000           -0.4811796             -13.0936
        66        2.0000           -0.4730678             -12.8728
        67        2.0000           -0.4674704             -12.7205
        68        2.0000           -0.4600310             -12.5181
        69        2.0000           -0.4583179             -12.4715
        70        2.0000           -0.4540528             -12.3554 (HOMO)
        71                         -0.3851154             -10.4795 (LUMO)
        72                         -0.3192116              -8.6862
        73                         -0.3172211              -8.6320
        74                         -0.2918784              -7.9424
        75                         -0.2615482              -7.1171
        76                         -0.2069798              -5.6322
        77                         -0.2007154              -5.4617
        78                         -0.1667624              -4.5378
        79                         -0.1509401              -4.1073
        80                         -0.1477376              -4.0201
        81                         -0.1441003              -3.9212
       ...                                ...                  ...
       144                          0.7230447              19.6750
      -------------------------------------------------------------
                  HL-Gap            0.0689374 Eh            1.8759 eV

Wiberg/Mayer (AO) data.
largest (>0.10) Wiberg bond orders for each atom

     #   Z sym  total        # sym  WBO       # sym  WBO       # sym  WBO
 ---------------------------------------------------------------------------
     1   6 C    3.820 --    28 H    0.982    29 H    0.972    27 H    0.972
                             2 O    0.851
     2   8 O    2.319 --     3 C    1.287     1 C    0.851
     3   6 C    3.811 --     2 O    1.287     4 O    1.250     5 C    1.120
     4   8 O    2.195 --     3 C    1.250    43 H    0.746
     5   6 C    3.958 --    24 C    1.399     6 N    1.179     3 C    1.120
     6   7 N    3.027 --     7 C    1.561     5 C    1.179
     7   6 C    3.921 --     6 N    1.561    20 N    1.182     8 C    0.977
     8   6 C    3.933 --    10 C    0.988     7 C    0.977     9 C    0.977
                            11 N    0.927
     9   6 C    3.985 --    30 H    0.984    31 H    0.980     8 C    0.977
                            32 H    0.975
    10   6 C    3.988 --     8 C    0.988    34 H    0.985    35 H    0.984
                            33 H    0.981
    11   7 N    3.324 --    12 C    1.218     8 C    0.927    36 H    0.895
                            13 O    0.169
    12   6 C    3.913 --    13 O    1.614    11 N    1.218    14 C    0.993
    13   8 O    1.928 --    12 C    1.614    11 N    0.169
    14   6 C    3.878 --    15 N    1.605    19 O    1.066    12 C    0.993
    15   7 N    3.020 --    14 C    1.605    16 N    1.205
    16   7 N    2.981 --    17 C    1.599    15 N    1.205
    17   6 C    3.869 --    16 N    1.599    19 O    1.084    18 C    1.032
    18   6 C    3.985 --    17 C    1.032    39 H    0.982    38 H    0.964
                            37 H    0.961
    19   8 O    2.334 --    17 C    1.084    14 C    1.066
    20   7 N    3.523 --     7 C    1.182    22 C    1.127    21 C    0.919
                            23 O    0.143
    21   6 C    3.906 --    42 H    0.976    41 H    0.972    40 H    0.971
                            20 N    0.919
    22   6 C    3.918 --    23 O    1.594    20 N    1.127    24 C    1.055
    23   8 O    1.939 --    22 C    1.594    20 N    0.143
    24   6 C    3.908 --     5 C    1.399    25 O    1.135    22 C    1.055
    25   8 O    2.248 --    24 C    1.135    26 C    0.855
    26   6 C    3.829 --    46 H    0.983    45 H    0.974    44 H    0.974
                            25 O    0.855
    27   1 H    0.996 --     1 C    0.972
    28   1 H    1.002 --     1 C    0.982
    29   1 H    0.997 --     1 C    0.972
    30   1 H    1.001 --     9 C    0.984
    31   1 H    1.000 --     9 C    0.980
    32   1 H    1.009 --     9 C    0.975
    33   1 H    1.004 --    10 C    0.981
    34   1 H    1.005 --    10 C    0.985
    35   1 H    1.009 --    10 C    0.984
    36   1 H    0.951 --    11 N    0.895
    37   1 H    0.996 --    18 C    0.961
    38   1 H    0.996 --    18 C    0.964
    39   1 H    0.998 --    18 C    0.982
    40   1 H    0.999 --    21 C    0.971
    41   1 H    1.000 --    21 C    0.972
    42   1 H    1.008 --    21 C    0.976
    43   1 H    0.807 --     4 O    0.746
    44   1 H    1.008 --    26 C    0.974
    45   1 H    1.008 --    26 C    0.974
    46   1 H    1.005 --    26 C    0.983
 ---------------------------------------------------------------------------

           -------------------------------------------------
          | TOTAL ENERGY              -86.343982493846 Eh   |
          | GRADIENT NORM               0.000624486479 Eh/α |
          | HOMO-LUMO GAP               1.875882683918 eV   |
           -------------------------------------------------

 * finished run on 2023/06/20 at 15:39:01.782
