   * xtb version 6.5.1 (579679a) compiled by 'ehlert@majestix' on 2022-07-11
          program call               : /lustre/hpc/kemi/ree/PhD/git/ReactivityQM/dep/xtb-6.5.1/bin/xtb --gfn 1 /lustre/hpc/kemi/ree/PhD/git/ReactivityQM/calculations/RaltegravirCLI/reac02prodN06/conf01/RaltegravirCLI_reac02prodN06_conf01_gfn1.xyz --opt --vfukui --chrg 1 --uhf 0 --alpb DMSO

   ID    Z sym.   atoms
    1    6 C      1, 3, 5, 7-9, 12-16, 18, 19, 21-24
    2    7 N      2, 11, 20, 25
    3    8 O      4, 6, 10
    4    9 F      17
    5    1 H      26-47

      * Solvation model:               ALPB
        Solvent                        DMSO
        Solvent mass                       7.8130E+01 g/mol
          :  Hamiltonian                  GFN1-xTB          :
 * total energy  :   -79.4662182 Eh     change       -0.4175149E-10 Eh
 * total energy  :   -79.4809017 Eh     change       -0.1468346E-01 Eh
 * total energy  :   -79.4866836 Eh     change       -0.5781924E-02 Eh
 * total energy  :   -79.4881971 Eh     change       -0.1513518E-02 Eh
 * total energy  :   -79.4895438 Eh     change       -0.1346629E-02 Eh
 * total energy  :   -79.4900982 Eh     change       -0.5544097E-03 Eh
 * total energy  :   -79.4906016 Eh     change       -0.5034564E-03 Eh
 * total energy  :   -79.4910692 Eh     change       -0.4675811E-03 Eh
 * total energy  :   -79.4914670 Eh     change       -0.3977844E-03 Eh
 * total energy  :   -79.4916536 Eh     change       -0.1865615E-03 Eh
 * total energy  :   -79.4936195 Eh     change       -0.1061731E-04 Eh
 * total energy  :   -79.4936350 Eh     change       -0.1546438E-04 Eh
 * total energy  :   -79.4936516 Eh     change       -0.1655874E-04 Eh
 * total energy  :   -79.4936655 Eh     change       -0.1391736E-04 Eh
 * total energy  :   -79.4936915 Eh     change       -0.2599685E-04 Eh
 * total energy  :   -79.4936624 Eh     change        0.2907054E-04 Eh
 * total energy  :   -79.4937279 Eh     change       -0.6552191E-04 Eh
 * total energy  :   -79.4937354 Eh     change       -0.7433886E-05 Eh
 * total energy  :   -79.4937393 Eh     change       -0.3953889E-05 Eh
   *** GEOMETRY OPTIMIZATION CONVERGED AFTER 46 ITERATIONS ***

 final structure:
================
47
 xtb: 6.5.1 (579679a)
C           -3.92267331770480       -1.63961179809475        0.30412215547609
N           -2.77147865709027       -1.03509606389607       -0.37408349636906
C           -2.05462023637652       -1.88773095143749       -1.16422755064896
O           -2.34960259894691       -3.04801442406375       -1.39712560389326
C           -0.82849725819050       -1.31723738680498       -1.75727843825533
O           -0.11763438219049       -2.09558641594407       -2.50755730416442
C           -0.36066609401309       -0.03506379160233       -1.33505389883961
C            0.59885497856006        0.75454886197796       -2.21038462870296
C            0.48979031372218       -0.69142770420984       -0.01369482472620
O           -0.01067612459704       -0.60313787895834        1.06658321000384
N            1.63954363356669       -1.19893852301680       -0.38711386524794
C            2.61788854600381       -1.65882873622592        0.61036282623744
C            3.81307528902473       -0.73637210159396        0.65666464468756
C            5.09972901440601       -1.26900199573490        0.65060108891254
C            6.20608263897468       -0.43451587345520        0.72345687997994
C            5.99676445816112        0.93099169459255        0.79531167394272
F            7.05900155514634        1.74248151332282        0.86257665419625
C            4.73151019759659        1.49189683070219        0.79605212857747
C            3.63654883016233        0.64386858064273        0.72829881866429
N           -1.33389371124094        0.78276952172914       -0.74308482926902
C           -2.42437119634559        0.30899851731993       -0.25531407917340
C           -3.30617603461758        1.30747011023021        0.48150956339066
C           -2.84241324488595        2.73403855800272        0.14329545856062
C           -3.15620989310309        1.06777784213121        1.99130762572154
N           -4.70075793214078        1.14004123586472        0.09184203783396
H           -3.61901910851161       -1.95691544604565        1.30154387875089
H           -4.72869812989626       -0.91152401943913        0.36833931017526
H           -4.23914022904988       -2.50668489228002       -0.27383072355265
H           -0.52766100738485       -2.98567579932033       -2.59821121674337
H            1.20161564761843        1.42231770010790       -1.59870185019924
H            0.00650315149753        1.35206043357434       -2.90251032576839
H            1.24306870921399        0.08957648920210       -2.77955477408891
H            1.89617396380628       -1.29420670875296       -1.35563531023384
H            2.10814724700680       -1.68963981535911        1.57756564719441
H            2.91617717221154       -2.67097602170137        0.32941444980880
H            5.24061777831373       -2.34125736741597        0.58930633282573
H            7.21090369949255       -0.83569493051121        0.71937073212290
H            4.60675921525726        2.56544429977488        0.84836624576356
H            2.63651923235382        1.05939121823392        0.72255370885758
H           -1.82934659288785        2.90290299359678        0.50446038598086
H           -2.86253360819402        2.88985949551786       -0.93377504426539
H           -3.51364109542721        3.44801769951930        0.61724895417674
H           -2.10017324452191        1.05641466392647        2.25957347031392
H           -3.65293583265093        1.87069825999558        2.53379163427034
H           -3.60599981315103        0.12142432684858        2.28324058292244
H           -4.81942372483731        1.41952374275782       -0.87215627323938
H           -5.27703120413065        1.74062705629415        0.66567393804665

          :  Hamiltonian                  GFN1-xTB          :
         :: total energy             -79.493739309826 Eh    ::
         :: gradient norm              0.000578777527 Eh/a0 ::
         :: HOMO-LUMO gap              0.663425552847 eV    ::
         :: SCC energy               -80.395597813926 Eh    ::
         :: -> Gsolv                  -0.102573855934 Eh    ::
         :: repulsion energy           0.933767506733 Eh    ::

    * Orbital Energies and Occupations

         #    Occupation            Energy/Eh            Energy/eV
      -------------------------------------------------------------
         1        2.0000           -0.8955447             -24.3690
       ...           ...                  ...                  ...
        55        2.0000           -0.5195832             -14.1386
        56        2.0000           -0.5151376             -14.0176
        57        2.0000           -0.5131658             -13.9640
        58        2.0000           -0.5096439             -13.8681
        59        2.0000           -0.4999587             -13.6046
        60        2.0000           -0.4932677             -13.4225
        61        2.0000           -0.4908915             -13.3578
        62        2.0000           -0.4864731             -13.2376
        63        2.0000           -0.4782570             -13.0140
        64        2.0000           -0.4741834             -12.9032
        65        2.0000           -0.4650047             -12.6534
        66        2.0000           -0.4510861             -12.2747
        67        2.0000           -0.4272265             -11.6254 (HOMO)
        68        0.0000           -0.4028461             -10.9620 (LUMO)
        69                         -0.3201506              -8.7117
        70                         -0.2914216              -7.9300
        71                         -0.2867774              -7.8036
        72                         -0.2807880              -7.6406
        73                         -0.2534538              -6.8968
        74                         -0.1606310              -4.3710
        75                         -0.1594158              -4.3379
        76                         -0.1502845              -4.0894
        77                         -0.1456919              -3.9645
        78                         -0.1412875              -3.8446
       ...                                ...                  ...
       144                          0.7433700              20.2281
      -------------------------------------------------------------
                  HL-Gap            0.0243804 Eh            0.6634 eV

Wiberg/Mayer (AO) data.
largest (>0.10) Wiberg bond orders for each atom

     #   Z sym  total        # sym  WBO       # sym  WBO       # sym  WBO
 ---------------------------------------------------------------------------
     1   6 C    3.897 --    28 H    0.974    26 H    0.968    27 H    0.957
                             2 N    0.915
     2   7 N    3.535 --     3 C    1.194    21 C    1.102     1 C    0.915
                             4 O    0.164
     3   6 C    3.928 --     4 O    1.588     2 N    1.194     5 C    1.009
     4   8 O    1.945 --     3 C    1.588     2 N    0.164
     5   6 C    3.844 --     6 O    1.269     7 C    1.147     3 C    1.009
                             9 C    0.114
     6   8 O    2.220 --     5 C    1.269    29 H    0.755
     7   6 C    3.959 --     5 C    1.147    20 N    1.063     8 C    0.979
                             9 C    0.596
     8   6 C    3.977 --    30 H    0.980    32 H    0.980     7 C    0.979
                            31 H    0.968
     9   6 C    3.905 --    10 O    1.695    11 N    1.375     7 C    0.596
                             5 C    0.114
    10   8 O    2.080 --     9 C    1.695    11 N    0.183
    11   7 N    3.406 --     9 C    1.375    12 C    0.894    33 H    0.882
                            10 O    0.183
    12   6 C    3.907 --    13 C    0.997    35 H    0.967    34 H    0.963
                            11 N    0.894
    13   6 C    3.986 --    14 C    1.418    19 C    1.414    12 C    0.997
    14   6 C    3.992 --    15 C    1.443    13 C    1.418    36 H    0.969
                            18 C    0.109
    15   6 C    3.991 --    14 C    1.443    16 C    1.400    37 H    0.968
                            19 C    0.110
    16   6 C    3.864 --    15 C    1.400    18 C    1.396    17 F    0.935
    17   9 F    1.066 --    16 C    0.935
    18   6 C    3.991 --    19 C    1.448    16 C    1.396    38 H    0.968
                            14 C    0.109
    19   6 C    3.994 --    18 C    1.448    13 C    1.414    39 H    0.971
                            15 C    0.110
    20   7 N    3.032 --    21 C    1.656     7 C    1.063
    21   6 C    3.903 --    20 N    1.656     2 N    1.102    22 C    0.976
    22   6 C    3.961 --    23 C    0.988    25 N    0.985    24 C    0.976
                            21 C    0.976
    23   6 C    3.992 --    22 C    0.988    42 H    0.984    41 H    0.984
                            40 H    0.983
    24   6 C    3.991 --    43 H    0.984    45 H    0.982    44 H    0.981
                            22 C    0.976
    25   7 N    3.002 --    22 C    0.985    46 H    0.937    47 H    0.933
    26   1 H    0.999 --     1 C    0.968
    27   1 H    1.024 --     1 C    0.957
    28   1 H    1.002 --     1 C    0.974
    29   1 H    0.802 --     6 O    0.755
    30   1 H    0.999 --     8 C    0.980
    31   1 H    0.996 --     8 C    0.968
    32   1 H    0.996 --     8 C    0.980
    33   1 H    0.929 --    11 N    0.882
    34   1 H    1.000 --    12 C    0.963
    35   1 H    0.997 --    12 C    0.967
    36   1 H    0.997 --    14 C    0.969
    37   1 H    0.996 --    15 C    0.968
    38   1 H    0.996 --    18 C    0.968
    39   1 H    0.999 --    19 C    0.971
    40   1 H    1.009 --    23 C    0.983
    41   1 H    1.006 --    23 C    0.984
    42   1 H    1.002 --    23 C    0.984
    43   1 H    1.005 --    24 C    0.984
    44   1 H    0.998 --    24 C    0.981
    45   1 H    1.002 --    24 C    0.982
    46   1 H    0.951 --    25 N    0.937
    47   1 H    0.948 --    25 N    0.933
 ---------------------------------------------------------------------------

           -------------------------------------------------
          | TOTAL ENERGY              -79.493739309826 Eh   |
          | GRADIENT NORM               0.000578777527 Eh/α |
          | HOMO-LUMO GAP               0.663425552847 eV   |
           -------------------------------------------------

 * finished run on 2023/06/20 at 15:23:24.300
