   * xtb version 6.5.1 (579679a) compiled by 'ehlert@majestix' on 2022-07-11
          program call               : /lustre/hpc/kemi/ree/PhD/git/ReactivityQM/dep/xtb-6.5.1/bin/xtb --gfn 1 /lustre/hpc/kemi/ree/PhD/git/ReactivityQM/calculations/R02methylcation/reac01prodN04/conf08/R02methylcation_reac01prodN04_conf08_gfn1.xyz --opt --vfukui --chrg 0 --uhf 0 --alpb DMSO

   ID    Z sym.   atoms
    1    6 C      1, 3, 5, 6, 8-11, 13, 15, 18, 19, 22, 24
    2    8 O      2, 4, 14, 20, 23, 25
    3    7 N      7, 12, 16, 17, 21
    4    1 H      26-42

      * Solvation model:               ALPB
        Solvent                        DMSO
        Solvent mass                       7.8130E+01 g/mol
          :  Hamiltonian                  GFN1-xTB          :
 * total energy  :   -82.9677001 Eh     change       -0.8313350E-11 Eh
 * total energy  :   -82.9844573 Eh     change       -0.1675715E-01 Eh
 * total energy  :   -82.9907303 Eh     change       -0.6273018E-02 Eh
 * total energy  :   -82.9922868 Eh     change       -0.1556543E-02 Eh
 * total energy  :   -82.9929074 Eh     change       -0.6205880E-03 Eh
 * total energy  :   -82.9931191 Eh     change       -0.2116535E-03 Eh
 * total energy  :   -82.9932618 Eh     change       -0.1427660E-03 Eh
 * total energy  :   -82.9933790 Eh     change       -0.1171528E-03 Eh
 * total energy  :   -82.9934931 Eh     change       -0.1141709E-03 Eh
 * total energy  :   -82.9936023 Eh     change       -0.1091610E-03 Eh
 * total energy  :   -82.9940505 Eh     change       -0.6106159E-04 Eh
 * total energy  :   -82.9940957 Eh     change       -0.4522931E-04 Eh
 * total energy  :   -82.9941360 Eh     change       -0.4031045E-04 Eh
 * total energy  :   -82.9941586 Eh     change       -0.2259933E-04 Eh
 * total energy  :   -82.9941833 Eh     change       -0.2472720E-04 Eh
 * total energy  :   -82.9942068 Eh     change       -0.2350094E-04 Eh
 * total energy  :   -82.9942158 Eh     change       -0.8986533E-05 Eh
 * total energy  :   -82.9942232 Eh     change       -0.7350550E-05 Eh
 * total energy  :   -82.9942281 Eh     change       -0.4917930E-05 Eh
   *** GEOMETRY OPTIMIZATION CONVERGED AFTER 24 ITERATIONS ***

 final structure:
================
42
 xtb: 6.5.1 (579679a)
C           -3.50371663450559        1.80520128970053       -1.05438656156128
O           -4.29556579558088        1.26738990922591        0.00154346359950
C           -3.90593208062928        0.33296826021789        0.85257705074203
O           -4.81623792236681        0.03984702236445        1.75828471055439
C           -6.07772322275498        0.70955939698691        1.73045737198642
C           -2.68276619022558       -0.34354301850154        0.88062587917974
N           -1.75465976928599       -0.04359074937630       -0.11430228303338
C           -0.62247658185991       -0.64189265846795       -0.15167570346877
C            0.36426653438990       -0.34716539742894       -1.27204062422505
C            0.56315763872403       -1.59856090495917       -2.13790529848960
C           -0.14932330163098        0.80121152956076       -2.14011793211584
N            1.64384166890078        0.10461870094672       -0.70601447153628
C            2.60466507581189       -0.67574738182893       -0.17550700888343
O            2.51530072556403       -1.87359990111061        0.04509878922538
C            3.81627582685756        0.11902171972648        0.14359199712433
N            3.96097238214022        1.40010892013846       -0.02018836255427
N            5.22069411410566        1.70905444166062        0.39473172297101
C            5.76576668745967        0.59548067647526        0.78388092601764
C            7.13384512663000        0.39603758210276        1.31024776075171
O            4.92774948675084       -0.44277522860848        0.65194095236481
N           -0.25461574349824       -1.59308709998610        0.76799580507795
C           -1.03826211909476       -1.99350953270364        1.81443563541844
O           -0.65170849220730       -2.83383609563391        2.60734979292322
C           -2.40129497181000       -1.32519390361690        1.90326085697606
O           -3.16071992748497       -1.64367523137486        2.81185157973086
H           -4.11397076336160        2.58304101181865       -1.51374230235608
H           -2.57985932210327        2.23438354318574       -0.66435248810625
H           -3.26717752894637        1.03372523066805       -1.78849258694672
H           -5.93979332939279        1.78482002561125        1.86106016868691
H           -6.58581279568122        0.52070263854047        0.78274427736371
H           -6.65594797373317        0.29939931092569        2.55676521016047
H            0.86443251987988       -2.45511063675348       -1.53885070625021
H           -0.37439198427503       -1.83424858909566       -2.63917792334072
H            1.32770166178174       -1.40477254439755       -2.88805991804090
H            0.57114377064235        1.02180693697744       -2.92558111251953
H           -1.09512671628792        0.52092162452206       -2.59938464173858
H           -0.30386839281330        1.69402383516971       -1.53647221159882
H            1.86087268866767        1.08273424671070       -0.82678150419108
H            7.09458449891144       -0.12702786199573        2.26556787740515
H            7.62098109894086        1.36018743483752        1.43705916689611
H            7.71309007377533       -0.21313340621565        0.61487768082209
H            0.66160997958925       -2.02577614602344        0.68369196497579

          :  Hamiltonian                  GFN1-xTB          :
         :: total energy             -82.994228101441 Eh    ::
         :: gradient norm              0.000890684286 Eh/a0 ::
         :: HOMO-LUMO gap              2.386930888008 eV    ::
         :: SCC energy               -83.771335560788 Eh    ::
         :: -> Gsolv                  -0.061294745591 Eh    ::
         :: repulsion energy           0.803114464164 Eh    ::

    * Orbital Energies and Occupations

         #    Occupation            Energy/Eh            Energy/eV
      -------------------------------------------------------------
         1        2.0000           -0.8647838             -23.5320
       ...           ...                  ...                  ...
        55        2.0000           -0.5071174             -13.7994
        56        2.0000           -0.5058182             -13.7640
        57        2.0000           -0.5003266             -13.6146
        58        2.0000           -0.4934756             -13.4282
        59        2.0000           -0.4840797             -13.1725
        60        2.0000           -0.4741895             -12.9034
        61        2.0000           -0.4677681             -12.7286
        62        2.0000           -0.4648097             -12.6481
        63        2.0000           -0.4547360             -12.3740
        64        2.0000           -0.4541198             -12.3572
        65        2.0000           -0.4436102             -12.0712
        66        2.0000           -0.4172880             -11.3550
        67        2.0000           -0.4124204             -11.2225 (HOMO)
        68                         -0.3247023              -8.8356 (LUMO)
        69                         -0.3134091              -8.5283
        70                         -0.2720542              -7.4030
        71                         -0.2579316              -7.0187
        72                         -0.2445870              -6.6556
        73                         -0.2014051              -5.4805
        74                         -0.1531568              -4.1676
        75                         -0.1523392              -4.1454
        76                         -0.1430215              -3.8918
        77                         -0.1423119              -3.8725
        78                         -0.1252722              -3.4088
       ...                                ...                  ...
       134                          0.7567936              20.5934
      -------------------------------------------------------------
                  HL-Gap            0.0877181 Eh            2.3869 eV

Wiberg/Mayer (AO) data.
largest (>0.10) Wiberg bond orders for each atom

     #   Z sym  total        # sym  WBO       # sym  WBO       # sym  WBO
 ---------------------------------------------------------------------------
     1   6 C    3.854 --    26 H    0.981    27 H    0.976    28 H    0.975
                             2 O    0.884
     2   8 O    2.222 --     3 C    1.129     1 C    0.884
     3   6 C    3.833 --     6 C    1.338     4 O    1.151     2 O    1.129
     4   8 O    2.238 --     3 C    1.151     5 C    0.889
     5   6 C    3.863 --    31 H    0.984    30 H    0.978    29 H    0.978
                             4 O    0.889
     6   6 C    3.922 --     3 C    1.338    24 C    1.161     7 N    1.107
     7   7 N    3.041 --     8 C    1.648     6 C    1.107
     8   6 C    3.934 --     7 N    1.648    21 N    1.121     9 C    0.968
     9   6 C    3.934 --    11 C    1.001    10 C    0.984     8 C    0.968
                            12 N    0.916
    10   6 C    3.987 --    33 H    0.985     9 C    0.984    34 H    0.983
                            32 H    0.978
    11   6 C    3.992 --     9 C    1.001    35 H    0.984    37 H    0.982
                            36 H    0.981
    12   7 N    3.347 --    13 C    1.265     9 C    0.916    38 H    0.893
                            14 O    0.177
    13   6 C    3.916 --    14 O    1.571    12 N    1.265    15 C    0.993
    14   8 O    1.921 --    13 C    1.571    12 N    0.177
    15   6 C    3.876 --    16 N    1.608    20 O    1.065    13 C    0.993
    16   7 N    3.018 --    15 C    1.608    17 N    1.202
    17   7 N    2.981 --    18 C    1.602    16 N    1.202
    18   6 C    3.870 --    17 N    1.602    20 O    1.084    19 C    1.032
    19   6 C    3.986 --    18 C    1.032    40 H    0.982    39 H    0.966
                            41 H    0.960
    20   8 O    2.332 --    18 C    1.084    15 C    1.065
    21   7 N    3.445 --    22 C    1.169     8 C    1.121    42 H    0.858
                            23 O    0.138
    22   6 C    3.886 --    23 O    1.631    21 N    1.169    24 C    0.941
    23   8 O    1.909 --    22 C    1.631    21 N    0.138
    24   6 C    3.919 --    25 O    1.632     6 C    1.161    22 C    0.941
    25   8 O    1.917 --    24 C    1.632
    26   1 H    1.008 --     1 C    0.981
    27   1 H    1.019 --     1 C    0.976
    28   1 H    1.020 --     1 C    0.975
    29   1 H    1.005 --     5 C    0.978
    30   1 H    1.005 --     5 C    0.978
    31   1 H    1.009 --     5 C    0.984
    32   1 H    1.009 --    10 C    0.978
    33   1 H    1.001 --    10 C    0.985
    34   1 H    0.999 --    10 C    0.983
    35   1 H    0.998 --    11 C    0.984
    36   1 H    1.007 --    11 C    0.981
    37   1 H    1.004 --    11 C    0.982
    38   1 H    0.949 --    12 N    0.893
    39   1 H    0.996 --    19 C    0.966
    40   1 H    0.998 --    19 C    0.982
    41   1 H    0.996 --    19 C    0.960
    42   1 H    0.936 --    21 N    0.858
 ---------------------------------------------------------------------------

           -------------------------------------------------
          | TOTAL ENERGY              -82.994228101441 Eh   |
          | GRADIENT NORM               0.000890684286 Eh/α |
          | HOMO-LUMO GAP               2.386930888008 eV   |
           -------------------------------------------------

 * finished run on 2023/06/21 at 17:34:11.998
