   * xtb version 6.5.1 (579679a) compiled by 'ehlert@majestix' on 2022-07-11
          program call               : /lustre/hpc/kemi/ree/PhD/git/ReactivityQM/dep/xtb-6.5.1/bin/xtb --gfn 1 /lustre/hpc/kemi/ree/PhD/git/ReactivityQM/calculations/RaltegravirCLI/reac02prodN12/conf08/RaltegravirCLI_reac02prodN12_conf08_gfn1.xyz --opt --vfukui --chrg 1 --uhf 0 --alpb DMSO

   ID    Z sym.   atoms
    1    6 C      1, 3, 5, 6, 8, 9, 12-16, 18, 19, 21-24
    2    7 N      2, 11, 20, 25
    3    8 O      4, 7, 10
    4    9 F      17
    5    1 H      26-47

      * Solvation model:               ALPB
        Solvent                        DMSO
        Solvent mass                       7.8130E+01 g/mol
          :  Hamiltonian                  GFN1-xTB          :
 * total energy  :   -79.4709117 Eh     change       -0.2014673E-09 Eh
 * total energy  :   -79.4816020 Eh     change       -0.1069037E-01 Eh
 * total energy  :   -79.4857917 Eh     change       -0.4189621E-02 Eh
 * total energy  :   -79.4866324 Eh     change       -0.8406997E-03 Eh
 * total energy  :   -79.4873640 Eh     change       -0.7316364E-03 Eh
 * total energy  :   -79.4877901 Eh     change       -0.4261216E-03 Eh
 * total energy  :   -79.4882622 Eh     change       -0.4720580E-03 Eh
 * total energy  :   -79.4886985 Eh     change       -0.4362955E-03 Eh
 * total energy  :   -79.4889742 Eh     change       -0.2757843E-03 Eh
 * total energy  :   -79.4890998 Eh     change       -0.1255392E-03 Eh
 * total energy  :   -79.4906306 Eh     change       -0.1250272E-04 Eh
 * total energy  :   -79.4906430 Eh     change       -0.1237686E-04 Eh
 * total energy  :   -79.4906591 Eh     change       -0.1608100E-04 Eh
 * total energy  :   -79.4906665 Eh     change       -0.7442899E-05 Eh
 * total energy  :   -79.4906774 Eh     change       -0.1090926E-04 Eh
 * total energy  :   -79.4906823 Eh     change       -0.4857016E-05 Eh
 * total energy  :   -79.4906883 Eh     change       -0.6016029E-05 Eh
 * total energy  :   -79.4906933 Eh     change       -0.5008749E-05 Eh
 * total energy  :   -79.4906969 Eh     change       -0.3519528E-05 Eh
   *** GEOMETRY OPTIMIZATION CONVERGED AFTER 44 ITERATIONS ***

 final structure:
================
47
 xtb: 6.5.1 (579679a)
C           -3.80511275015290       -0.88856994219266       -2.26869443065262
N           -2.64859015693571       -0.51876869040590       -1.44855789444059
C           -1.40247345499312       -0.47104697517433       -2.13181554251260
O           -1.31510312238647       -0.73177173196541       -3.29497914023185
C           -0.24270232148092        0.08657581731941       -1.30864837355495
C           -0.41931544568354        1.63092466301589       -1.34573958688372
O            0.97531845057952       -0.28626068418851       -1.86643367096026
C           -0.38200497592668       -0.39923692991611        0.09636112820605
C            0.74225068123531       -0.80702471301344        1.02435554032802
O            0.50309568017272       -1.44525736964731        2.03425126863567
N            1.96347945258282       -0.38846956753638        0.67556640662835
C            3.09299683990517       -0.68173182165189        1.56560990043081
C            4.37259265351534       -0.16664395520743        0.96215982340980
C            5.11832412865256       -0.97558545993184        0.10675567842539
C            6.29965177085869       -0.50953615829661       -0.45212158118958
C            6.71160803730166        0.77392577738402       -0.13967664652163
F            7.85385747704909        1.22982624552236       -0.67120633131235
C            5.99176612494658        1.60548787719213        0.69974959076710
C            4.81255345841580        1.12384352959858        1.25007787573823
N           -1.57137052975857       -0.45766804072170        0.59287572653510
C           -2.69561834911706       -0.30037946656004       -0.13345092801024
C           -3.93499422863162       -0.02029325412077        0.66543476615967
C           -3.55225500707150        0.79625786556041        1.91481022823931
C           -4.52921469663285       -1.37763795639660        1.09074598599029
N           -4.90518521501496        0.69803973730626       -0.13424904457026
H           -3.60810024380540       -0.57794655726356       -3.29284468220687
H           -3.93176879259134       -1.96973462872878       -2.22507693962997
H           -4.68898956425670       -0.38997845038984       -1.87443963500576
H            0.43247041025403        2.07978029339554       -0.84008964598965
H           -0.43889619212159        1.95988054740185       -2.38227960273723
H           -1.34089448505027        1.91961771681464       -0.84718205768748
H            0.94329455028297       -0.23056601120286       -2.83342190907473
H            2.13060416027481        0.11863772093685       -0.17777971299764
H            2.89247315221640       -0.21023309678881        2.53399878062133
H            3.13080103799279       -1.76637195630051        1.71675212429191
H            4.77412079925813       -1.97661830794233       -0.12475133428882
H            6.88883397490325       -1.12713371288662       -1.11767390050555
H            6.34534018674983        2.60529485840065        0.91538450009914
H            4.23090303211540        1.75727456136913        1.90900590873463
H           -4.45681638014524        1.01752773449445        2.47698719001998
H           -2.86515344864507        0.23529780729985        2.54620172548639
H           -3.08198074261159        1.73137998142722        1.61705914362901
H           -3.78598933499132       -1.96272358097196        1.63004018550172
H           -5.38218064236469       -1.19254992417845        1.74099119710585
H           -4.86252427630729       -1.93192946185248        0.21574431152976
H           -5.78151424297345        0.75925828588816        0.36422480919922
H           -4.57758445961277        1.63283538510539       -0.32890120474766

          :  Hamiltonian                  GFN1-xTB          :
         :: total energy             -79.490696850649 Eh    ::
         :: gradient norm              0.000329934420 Eh/a0 ::
         :: HOMO-LUMO gap              0.801381118293 eV    ::
         :: SCC energy               -80.383972081633 Eh    ::
         :: -> Gsolv                  -0.108248742008 Eh    ::
         :: repulsion energy           0.923925633232 Eh    ::

    * Orbital Energies and Occupations

         #    Occupation            Energy/Eh            Energy/eV
      -------------------------------------------------------------
         1        2.0000           -0.8844695             -24.0676
       ...           ...                  ...                  ...
        55        2.0000           -0.5254441             -14.2981
        56        2.0000           -0.5222894             -14.2122
        57        2.0000           -0.5208275             -14.1724
        58        2.0000           -0.5109997             -13.9050
        59        2.0000           -0.5056018             -13.7581
        60        2.0000           -0.5021646             -13.6646
        61        2.0000           -0.4959109             -13.4944
        62        2.0000           -0.4827824             -13.1372
        63        2.0000           -0.4768769             -12.9765
        64        2.0000           -0.4663528             -12.6901
        65        2.0000           -0.4599657             -12.5163
        66        2.0000           -0.4470687             -12.1654
        67        2.0000           -0.4430402             -12.0557 (HOMO)
        68        0.0000           -0.4135899             -11.2544 (LUMO)
        69                         -0.3406679              -9.2700
        70                         -0.3008181              -8.1857
        71                         -0.2819629              -7.6726
        72                         -0.2775593              -7.5528
        73                         -0.2425414              -6.5999
        74                         -0.1603725              -4.3640
        75                         -0.1560298              -4.2458
        76                         -0.1556114              -4.2344
        77                         -0.1449587              -3.9445
        78                         -0.1384575              -3.7676
       ...                                ...                  ...
       144                          0.6867580              18.6876
      -------------------------------------------------------------
                  HL-Gap            0.0294502 Eh            0.8014 eV

Wiberg/Mayer (AO) data.
largest (>0.10) Wiberg bond orders for each atom

     #   Z sym  total        # sym  WBO       # sym  WBO       # sym  WBO
 ---------------------------------------------------------------------------
     1   6 C    3.881 --    26 H    0.975    27 H    0.966    28 H    0.953
                             2 N    0.903
     2   7 N    3.547 --    21 C    1.353     3 C    1.016     1 C    0.903
     3   6 C    3.860 --     4 O    1.773     2 N    1.016     5 C    0.924
     4   8 O    2.038 --     3 C    1.773
     5   6 C    3.934 --     8 C    1.003     7 O    0.989     3 C    0.924
                             6 C    0.898
     6   6 C    3.971 --    31 H    0.984    30 H    0.978    29 H    0.976
                             5 C    0.898
     7   8 O    1.925 --     5 C    0.989    32 H    0.813
     8   6 C    3.902 --    20 N    1.634     5 C    1.003     9 C    0.960
     9   6 C    3.922 --    10 O    1.590    11 N    1.298     8 C    0.960
    10   8 O    1.904 --     9 C    1.590    11 N    0.205
    11   7 N    3.414 --     9 C    1.298    12 C    0.923    33 H    0.883
                            10 O    0.205
    12   6 C    3.930 --    13 C    1.006    35 H    0.964    34 H    0.964
                            11 N    0.923
    13   6 C    3.988 --    19 C    1.417    14 C    1.417    12 C    1.006
    14   6 C    3.993 --    15 C    1.446    13 C    1.417    36 H    0.971
                            18 C    0.110
    15   6 C    3.991 --    14 C    1.446    16 C    1.399    37 H    0.968
                            19 C    0.110
    16   6 C    3.863 --    18 C    1.399    15 C    1.399    17 F    0.932
    17   9 F    1.062 --    16 C    0.932
    18   6 C    3.991 --    19 C    1.445    16 C    1.399    38 H    0.968
                            14 C    0.110
    19   6 C    3.993 --    18 C    1.445    13 C    1.417    39 H    0.971
                            15 C    0.110
    20   7 N    3.148 --     8 C    1.634    21 C    1.259
    21   6 C    3.877 --     2 N    1.353    20 N    1.259    22 C    1.007
    22   6 C    3.957 --    21 C    1.007    25 N    0.997    23 C    0.964
                            24 C    0.938
    23   6 C    3.985 --    42 H    0.984    40 H    0.981    41 H    0.981
                            22 C    0.964
    24   6 C    3.978 --    43 H    0.984    45 H    0.984    44 H    0.975
                            22 C    0.938
    25   7 N    3.021 --    22 C    0.997    47 H    0.930    46 H    0.924
    26   1 H    0.997 --     1 C    0.975
    27   1 H    0.994 --     1 C    0.966
    28   1 H    1.018 --     1 C    0.953
    29   1 H    0.996 --     6 C    0.976
    30   1 H    0.993 --     6 C    0.978
    31   1 H    0.996 --     6 C    0.984
    32   1 H    0.836 --     7 O    0.813
    33   1 H    0.944 --    11 N    0.883
    34   1 H    1.001 --    12 C    0.964
    35   1 H    1.002 --    12 C    0.964
    36   1 H    0.998 --    14 C    0.971
    37   1 H    0.997 --    15 C    0.968
    38   1 H    0.997 --    18 C    0.968
    39   1 H    0.998 --    19 C    0.971
    40   1 H    0.998 --    23 C    0.981
    41   1 H    1.006 --    23 C    0.981
    42   1 H    0.999 --    23 C    0.984
    43   1 H    0.999 --    24 C    0.984
    44   1 H    0.994 --    24 C    0.975
    45   1 H    0.999 --    24 C    0.984
    46   1 H    0.939 --    25 N    0.924
    47   1 H    0.944 --    25 N    0.930
 ---------------------------------------------------------------------------

           -------------------------------------------------
          | TOTAL ENERGY              -79.490696850649 Eh   |
          | GRADIENT NORM               0.000329934420 Eh/α |
          | HOMO-LUMO GAP               0.801381118293 eV   |
           -------------------------------------------------

 * finished run on 2023/06/20 at 15:33:08.898
