   * xtb version 6.5.1 (579679a) compiled by 'ehlert@majestix' on 2022-07-11
          program call               : /lustre/hpc/kemi/ree/PhD/git/ReactivityQM/dep/xtb-6.5.1/bin/xtb --gfn 1 /lustre/hpc/kemi/ree/PhD/git/ReactivityQM/calculations/R02deprot/reac01prodE14/conf10/R02deprot_reac01prodE14_conf10_gfn1.xyz --opt --vfukui --chrg -2 --uhf 0 --alpb DMSO

   ID    Z sym.   atoms
    1    6 C      1, 3, 5, 7-10, 12, 14, 17, 18, 21, 23, 24
    2    8 O      2, 4, 13, 19, 22, 25
    3    7 N      6, 11, 15, 16, 20
    4    1 H      26-42

      * Solvation model:               ALPB
        Solvent                        DMSO
        Solvent mass                       7.8130E+01 g/mol
          :  Hamiltonian                  GFN1-xTB          :
 * total energy  :   -83.5943636 Eh     change       -0.4547474E-12 Eh
 * total energy  :   -83.6164935 Eh     change       -0.2212984E-01 Eh
 * total energy  :   -83.6266198 Eh     change       -0.1012633E-01 Eh
 * total energy  :   -83.6287155 Eh     change       -0.2095729E-02 Eh
 * total energy  :   -83.6302921 Eh     change       -0.1576605E-02 Eh
 * total energy  :   -83.6309733 Eh     change       -0.6811302E-03 Eh
 * total energy  :   -83.6314632 Eh     change       -0.4899011E-03 Eh
 * total energy  :   -83.6318073 Eh     change       -0.3441638E-03 Eh
 * total energy  :   -83.6320857 Eh     change       -0.2783777E-03 Eh
 * total energy  :   -83.6323545 Eh     change       -0.2687663E-03 Eh
 * total energy  :   -83.6348758 Eh     change       -0.8204257E-05 Eh
 * total energy  :   -83.6348814 Eh     change       -0.5589338E-05 Eh
 * total energy  :   -83.6348928 Eh     change       -0.1133452E-04 Eh
 * total energy  :   -83.6349022 Eh     change       -0.9409514E-05 Eh
 * total energy  :   -83.6349085 Eh     change       -0.6339666E-05 Eh
 * total energy  :   -83.6349143 Eh     change       -0.5794196E-05 Eh
 * total energy  :   -83.6349216 Eh     change       -0.7247396E-05 Eh
 * total energy  :   -83.6349270 Eh     change       -0.5395549E-05 Eh
 * total energy  :   -83.6349304 Eh     change       -0.3470369E-05 Eh
   *** GEOMETRY OPTIMIZATION CONVERGED AFTER 75 ITERATIONS ***

 final structure:
================
42
 xtb: 6.5.1 (579679a)
C           -6.25699144701787        0.92977540827968        1.02082934985498
O           -5.09454286761928        0.69841787519566        0.25466471179279
C           -3.90665413378260        0.52308675218534        1.02282108655459
O           -4.00314448638969        0.61622649858095        2.26605394067820
C           -2.77123717710651        0.27000241404659        0.25590980135848
N           -1.57933545976380        0.12805900012336        0.94804894533253
C           -0.47561541870635       -0.04253100125821        0.29674242882642
C            0.79440268230101       -0.21621764384494        1.13456833347769
C            0.87523071827154        0.88850340532660        2.19660725717094
C            0.77680063543115       -1.60031431071929        1.80429480618275
N            1.92873733658584       -0.12362365174696        0.21897781485266
C            3.21820286152056       -0.20037551034312        0.55865967325592
O            3.65695523308321       -0.33542579289167        1.70169028503055
C            4.09866499965001       -0.08250302068190       -0.63064165169434
N            3.71169102278978        0.09779572035555       -1.86340840933425
N            4.84332523427582        0.16216231980536       -2.62706199916957
C            5.84423462765643        0.01987193890379       -1.81856322101561
C            7.28470001015483        0.01517682063154       -2.16061551657103
O            5.44949907742108       -0.13875762788373       -0.54293480497920
N           -0.29787646199265       -0.09770465059276       -1.06004664673248
C           -1.35068259817340        0.01471086685078       -1.86163757891963
O           -1.24990738171091       -0.03430650564923       -3.10753204811389
C           -2.78740716863163        0.17123024537710       -1.25747043979998
C           -3.59520040297686       -1.05481565424757       -1.74416206363370
O           -3.34429051048288        1.35911779638414       -1.85907639519311
H           -6.44870202215822        0.10343924594784        1.71803781175884
H           -7.09727240207829        1.01272919224768        0.32940566549707
H           -6.17777111615874        1.85859907406315        1.60123186049504
H           -0.06147386480299        0.90400283829546        2.75491339220251
H            1.69961906228965        0.71280802733172        2.88618482292737
H            1.01588783424767        1.85811629059750        1.71856676626785
H            1.64612835353351       -1.73424914376405        2.44717018006736
H           -0.12808715663763       -1.69066186193820        2.40497785557380
H            0.77602265675572       -2.38225632568043        1.04512684269151
H            1.65819836800158       -0.07378100424157       -0.76928642702902
H            7.40855788545539        0.22052989617436       -3.22074880739157
H            7.81169325652230        0.77027539038489       -1.57868536024522
H            7.72259698560867       -0.95510338148644       -1.92758659786126
H           -4.64046017831057       -0.97096520856419       -1.45246054153907
H           -3.53881231137971       -1.12168033284140       -2.83175616479850
H           -3.17989394688593       -1.96366184398986       -1.30845953577775
H           -4.23578932878078        1.48429645528645       -1.50509142204321

          :  Hamiltonian                  GFN1-xTB          :
         :: total energy             -83.634930421320 Eh    ::
         :: gradient norm              0.000458477543 Eh/a0 ::
         :: HOMO-LUMO gap              0.147907207165 eV    ::
         :: SCC energy               -84.368348704718 Eh    ::
         :: -> Gsolv                  -0.282336850596 Eh    ::
         :: repulsion energy           0.759165198013 Eh    ::

    * Orbital Energies and Occupations

         #    Occupation            Energy/Eh            Energy/eV
      -------------------------------------------------------------
         1        2.0000           -0.8417023             -22.9039
       ...           ...                  ...                  ...
        56        2.0000           -0.4380423             -11.9197
        57        2.0000           -0.4352286             -11.8432
        58        2.0000           -0.4280360             -11.6475
        59        2.0000           -0.4231482             -11.5144
        60        2.0000           -0.4222245             -11.4893
        61        2.0000           -0.4167724             -11.3410
        62        2.0000           -0.4087454             -11.1225
        63        2.0000           -0.3931962             -10.6994
        64        2.0000           -0.3815130             -10.3815
        65        2.0000           -0.3610207              -9.8239
        66        2.0000           -0.3539385              -9.6312
        67        2.0000           -0.3301769              -8.9846
        68        1.8917           -0.2895072              -7.8779 (HOMO)
        69        0.1083           -0.2840717              -7.7300 (LUMO)
        70                         -0.2393641              -6.5134
        71                         -0.2011568              -5.4738
        72                         -0.1697446              -4.6190
        73                         -0.1364724              -3.7136
        74                         -0.1354051              -3.6846
        75                         -0.1128693              -3.0713
        76                         -0.1016658              -2.7665
        77                         -0.0957279              -2.6049
        78                         -0.0930030              -2.5307
        79                         -0.0742143              -2.0195
       ...                                ...                  ...
       134                          0.7241197              19.7043
      -------------------------------------------------------------
                  HL-Gap            0.0054355 Eh            0.1479 eV

Wiberg/Mayer (AO) data.
largest (>0.10) Wiberg bond orders for each atom

     #   Z sym  total        # sym  WBO       # sym  WBO       # sym  WBO
 ---------------------------------------------------------------------------
     1   6 C    3.921 --    27 H    0.987    28 H    0.981    26 H    0.980
                             2 O    0.951
     2   8 O    2.069 --     1 C    0.951     3 C    0.899
     3   6 C    3.846 --     4 O    1.437     5 C    1.377     2 O    0.899
     4   8 O    1.733 --     3 C    1.437     5 C    0.121
     5   6 C    3.813 --     3 C    1.377     6 N    1.147    23 C    0.981
                             4 O    0.121
     6   7 N    3.007 --     7 C    1.574     5 C    1.147
     7   6 C    3.928 --     6 N    1.574    20 N    1.176     8 C    0.960
     8   6 C    3.920 --     9 C    0.989    10 C    0.981     7 C    0.960
                            11 N    0.920
     9   6 C    3.994 --     8 C    0.989    31 H    0.987    30 H    0.985
                            29 H    0.983
    10   6 C    3.994 --    34 H    0.987    33 H    0.986    32 H    0.985
                             8 C    0.981
    11   7 N    3.369 --    12 C    1.298     8 C    0.920    35 H    0.867
                            13 O    0.181
    12   6 C    3.898 --    13 O    1.524    11 N    1.298    14 C    0.999
    13   8 O    1.830 --    12 C    1.524    11 N    0.181
    14   6 C    3.817 --    15 N    1.580    19 O    1.041    12 C    0.999
    15   7 N    2.951 --    14 C    1.580    16 N    1.186
    16   7 N    2.980 --    17 C    1.622    15 N    1.186
    17   6 C    3.863 --    16 N    1.622    19 O    1.074    18 C    1.028
    18   6 C    3.990 --    17 C    1.028    36 H    0.984    37 H    0.968
                            38 H    0.965
    19   8 O    2.290 --    17 C    1.074    14 C    1.041
    20   7 N    2.957 --    21 C    1.375     7 C    1.176    22 O    0.136
    21   6 C    3.902 --    22 O    1.485    20 N    1.375    23 C    0.908
    22   8 O    1.758 --    21 C    1.485    20 N    0.136
    23   6 C    3.895 --     5 C    0.981    24 C    0.972    25 O    0.913
                            21 C    0.908
    24   6 C    3.991 --    41 H    0.988    40 H    0.986    39 H    0.984
                            23 C    0.972
    25   8 O    1.870 --    23 C    0.913    42 H    0.870
    26   1 H    1.022 --     1 C    0.980
    27   1 H    1.019 --     1 C    0.987
    28   1 H    1.022 --     1 C    0.981
    29   1 H    1.026 --     9 C    0.983
    30   1 H    1.015 --     9 C    0.985
    31   1 H    1.010 --     9 C    0.987
    32   1 H    1.013 --    10 C    0.985
    33   1 H    1.016 --    10 C    0.986
    34   1 H    1.009 --    10 C    0.987
    35   1 H    0.997 --    11 N    0.867
    36   1 H    1.001 --    18 C    0.984
    37   1 H    0.999 --    18 C    0.968
    38   1 H    0.999 --    18 C    0.965
    39   1 H    1.021 --    24 C    0.984
    40   1 H    1.022 --    24 C    0.986
    41   1 H    1.015 --    24 C    0.988
    42   1 H    0.916 --    25 O    0.870
 ---------------------------------------------------------------------------

           -------------------------------------------------
          | TOTAL ENERGY              -83.634930421320 Eh   |
          | GRADIENT NORM               0.000458477543 Eh/α |
          | HOMO-LUMO GAP               0.147907207165 eV   |
           -------------------------------------------------

 * finished run on 2023/06/20 at 18:04:46.906
