   * xtb version 6.5.1 (579679a) compiled by 'ehlert@majestix' on 2022-07-11
          program call               : /lustre/hpc/kemi/ree/PhD/git/ReactivityQM/dep/xtb-6.5.1/bin/xtb --gfn 1 /lustre/hpc/kemi/ree/PhD/git/ReactivityQM/calculations/R01/reac02prodN12/conf01/R01_reac02prodN12_conf01_gfn1.xyz --opt --vfukui --chrg 1 --uhf 0 --alpb DMSO

   ID    Z sym.   atoms
    1    6 C      1, 3, 5, 7-10, 13, 15, 16
    2    8 O      2, 4, 14, 17
    3    7 N      6, 11, 12
    4    1 H      18-33

      * Solvation model:               ALPB
        Solvent                        DMSO
        Solvent mass                       7.8130E+01 g/mol
          :  Hamiltonian                  GFN1-xTB          :
 * total energy  :   -57.8351769 Eh     change       -0.3652190E-11 Eh
 * total energy  :   -57.8529059 Eh     change       -0.1772905E-01 Eh
 * total energy  :   -57.8586063 Eh     change       -0.5700333E-02 Eh
 * total energy  :   -57.8599265 Eh     change       -0.1320213E-02 Eh
 * total energy  :   -57.8607119 Eh     change       -0.7854254E-03 Eh
 * total energy  :   -57.8609401 Eh     change       -0.2282131E-03 Eh
 * total energy  :   -57.8610446 Eh     change       -0.1045282E-03 Eh
 * total energy  :   -57.8610954 Eh     change       -0.5077589E-04 Eh
 * total energy  :   -57.8611173 Eh     change       -0.2192261E-04 Eh
 * total energy  :   -57.8611342 Eh     change       -0.1681863E-04 Eh
 * total energy  :   -57.8611429 Eh     change       -0.8789020E-05 Eh
 * total energy  :   -57.8611478 Eh     change       -0.4840606E-05 Eh
   *** GEOMETRY OPTIMIZATION CONVERGED AFTER 12 ITERATIONS ***

 final structure:
================
33
 xtb: 6.5.1 (579679a)
C            3.87685060908338       -2.64173051770011        0.15508024934972
O            2.61837925126487       -1.94603876742648        0.15630160460747
C            2.65607264237323       -0.65007876637493       -0.03804307601870
O            3.67336515559993       -0.00998384698699       -0.21668760407980
C            1.30761553765584        0.00286719585335       -0.02245368096538
N            0.23153216039536       -0.77189922960506        0.19774545651199
C           -0.96065862970960       -0.24516955221529        0.21147392411279
C           -2.16847455614292       -1.13653503604725        0.44307134256654
C           -2.71535069457274       -1.55799237369986       -0.93051167041518
C           -3.24615738451329       -0.42573863246370        1.26616052220638
N           -1.73926613309945       -2.32337393394731        1.15950347431700
N           -1.11797248371816        1.09143291142084       -0.00790771677063
C           -0.09563193811945        1.93566850481231       -0.22040735383895
O           -0.45651516442981        3.18028527534712       -0.38940034941841
C            0.47785241492190        4.25536744225909       -0.59798351320324
C            1.20866117303475        1.37706148017674       -0.23219898175327
O            2.25278531951179        2.16885710373776       -0.44096721106062
H            3.64768461327193       -3.68882510946230        0.34001802772588
H            4.51844317401098       -2.24011165863133        0.94135041297884
H            4.36329177424811       -2.51705070056206       -0.81410692217114
H           -3.54684022889600       -2.24599613258804       -0.78395141307753
H           -3.06118483074167       -0.68692482685954       -1.48380505625724
H           -1.93631583876845       -2.05773682688989       -1.50440399518945
H           -2.81765174694093       -0.01998599611645        2.18104039950671
H           -4.01891168204856       -1.14715106484035        1.52937950175306
H           -3.70422910364690        0.38193239161534        0.69776154459904
H           -1.38609765600454       -2.05114687666543        2.06738374390238
H           -0.97593444147428       -2.75670535533763        0.65194429509478
H           -2.04148187297615        1.50822471919258       -0.00623804835378
H            1.04300640564624        4.09089521675121       -1.51573324661730
H           -0.13518772338841        5.15164976316266       -0.68339288228404
H            1.15366910744231        4.33478371090720        0.25398623246204
H            3.09465177073058        1.64114948918286       -0.42674701021986

          :  Hamiltonian                  GFN1-xTB          :
         :: total energy             -57.861147789796 Eh    ::
         :: gradient norm              0.000771817327 Eh/a0 ::
         :: HOMO-LUMO gap              1.530312809620 eV    ::
         :: SCC energy               -58.432282067307 Eh    ::
         :: -> Gsolv                  -0.090558931649 Eh    ::
         :: repulsion energy           0.589169290710 Eh    ::

    * Orbital Energies and Occupations

         #    Occupation            Energy/Eh            Energy/eV
      -------------------------------------------------------------
         1        2.0000           -0.8935838             -24.3157
       ...           ...                  ...                  ...
        35        2.0000           -0.5378169             -14.6347
        36        2.0000           -0.5348459             -14.5539
        37        2.0000           -0.5302037             -14.4276
        38        2.0000           -0.5291935             -14.4001
        39        2.0000           -0.5272021             -14.3459
        40        2.0000           -0.5250143             -14.2864
        41        2.0000           -0.5155997             -14.0302
        42        2.0000           -0.5128217             -13.9546
        43        2.0000           -0.5059041             -13.7664
        44        2.0000           -0.5046557             -13.7324
        45        2.0000           -0.4819887             -13.1156
        46        2.0000           -0.4753123             -12.9339
        47        2.0000           -0.4328768             -11.7792 (HOMO)
        48                         -0.3766389             -10.2489 (LUMO)
        49                         -0.3286931              -8.9442
        50                         -0.2847697              -7.7490
        51                         -0.2015987              -5.4858
        52                         -0.1652592              -4.4969
        53                         -0.1535925              -4.1795
        54                         -0.1471174              -4.0033
        55                         -0.1377175              -3.7475
        56                         -0.1270595              -3.4575
        57                         -0.1030262              -2.8035
        58                         -0.1014365              -2.7602
       ...                                ...                  ...
       100                          0.6844790              18.6256
      -------------------------------------------------------------
                  HL-Gap            0.0562380 Eh            1.5303 eV

Wiberg/Mayer (AO) data.
largest (>0.10) Wiberg bond orders for each atom

     #   Z sym  total        # sym  WBO       # sym  WBO       # sym  WBO
 ---------------------------------------------------------------------------
     1   6 C    3.848 --    18 H    0.985    19 H    0.977    20 H    0.977
                             2 O    0.875
     2   8 O    2.246 --     3 C    1.176     1 C    0.875     4 O    0.142
     3   6 C    3.857 --     4 O    1.622     2 O    1.176     5 C    0.984
     4   8 O    1.973 --     3 C    1.622     2 O    0.142
     5   6 C    3.970 --    16 C    1.376     6 N    1.299     3 C    0.984
     6   7 N    3.050 --     7 C    1.503     5 C    1.299
     7   6 C    3.890 --     6 N    1.503    12 N    1.182     8 C    0.970
     8   6 C    3.963 --    11 N    1.000    10 C    0.991     7 C    0.970
                             9 C    0.969
     9   6 C    3.989 --    22 H    0.986    23 H    0.984    21 H    0.980
                             8 C    0.969
    10   6 C    3.991 --     8 C    0.991    24 H    0.985    26 H    0.981
                            25 H    0.981
    11   7 N    2.959 --     8 C    1.000    27 H    0.940    28 H    0.937
    12   7 N    3.537 --    13 C    1.265     7 C    1.182    29 H    0.864
    13   6 C    3.893 --    12 N    1.265    16 C    1.207    14 O    1.179
    14   8 O    2.255 --    13 C    1.179    15 C    0.858
    15   6 C    3.826 --    31 H    0.981    32 H    0.976    30 H    0.976
                            14 O    0.858
    16   6 C    3.934 --     5 C    1.376    13 C    1.207    17 O    1.137
    17   8 O    2.095 --    16 C    1.137    33 H    0.742
    18   1 H    1.007 --     1 C    0.985
    19   1 H    1.002 --     1 C    0.977
    20   1 H    1.002 --     1 C    0.977
    21   1 H    1.001 --     9 C    0.980
    22   1 H    1.000 --     9 C    0.986
    23   1 H    0.999 --     9 C    0.984
    24   1 H    0.998 --    10 C    0.985
    25   1 H    1.001 --    10 C    0.981
    26   1 H    0.998 --    10 C    0.981
    27   1 H    0.955 --    11 N    0.940
    28   1 H    0.965 --    11 N    0.937
    29   1 H    0.913 --    12 N    0.864
    30   1 H    1.005 --    15 C    0.976
    31   1 H    1.004 --    15 C    0.981
    32   1 H    1.004 --    15 C    0.976
    33   1 H    0.827 --    17 O    0.742
 ---------------------------------------------------------------------------

           -------------------------------------------------
          | TOTAL ENERGY              -57.861147789796 Eh   |
          | GRADIENT NORM               0.000771817327 Eh/α |
          | HOMO-LUMO GAP               1.530312809620 eV   |
           -------------------------------------------------

 * finished run on 2023/06/20 at 15:11:44.264
