                         Program Version 5.0.1 -  RELEASE  -
|  1> # ORCA input file
|  2> ! SP r2SCAN-3c CPCM
|  3>
|  4> %maxcore 1875.0
|  5> %pal nprocs 4 end
|  6> %cpcm smd true SMDsolvent "DMSO" end
|  7>
|  8> *xyz -1 1
|  9> C      -4.583365   -1.062325    3.356604
| 10> O      -3.794964   -0.748920    2.213032
| 11> C      -4.218542   -1.281137    1.043072
| 12> O      -5.213532   -1.983129    0.980399
| 13> C      -3.357350   -0.909872   -0.087370
| 14> N      -2.289482   -0.094714    0.185881
| 15> C      -1.467434    0.294505   -0.734810
| 16> C      -0.354270    1.244983   -0.293426
| 17> C      -0.364396    1.339292    1.243136
| 18> C      -0.636151    2.636135   -0.886606
| 19> N       0.922742    0.703414   -0.768601
| 20> C       2.139865    1.334331   -0.311729
| 21> O       2.177751    2.566403   -0.031110
| 22> C       3.203711    0.472253   -0.204568
| 23> O       3.183278   -0.884192   -0.586755
| 24> C       4.466719   -1.275314   -0.511076
| 25> C       4.796392   -2.690264   -0.828473
| 26> N       5.312078   -0.382465   -0.161453
| 27> N       4.585797    0.833197    0.002480
| 28> C       4.876393    1.417417    1.318135
| 29> N      -1.620857   -0.093227   -2.047959
| 30> C      -0.753508    0.305108   -3.156806
| 31> C      -2.686959   -0.897869   -2.436985
| 32> O      -2.852166   -1.226101   -3.619861
| 33> C      -3.572870   -1.320736   -1.389257
| 34> O      -4.601094   -2.112951   -1.769025
| 35> H      -4.614037   -2.144121    3.516094
| 36> H      -4.114592   -0.574064    4.209300
| 37> H      -5.605280   -0.692803    3.230230
| 38> H      -1.332265    1.699125    1.589629
| 39> H      -0.178174    0.359354    1.680914
| 40> H       0.408263    2.031710    1.573170
| 41> H      -1.662612    2.924866   -0.660265
| 42> H       0.039900    3.371263   -0.452942
| 43> H      -0.501479    2.639422   -1.966109
| 44> H       0.968532   -0.296258   -0.598452
| 45> H       4.270120   -3.355831   -0.144702
| 46> H       4.480452   -2.931050   -1.843184
| 47> H       5.867941   -2.848357   -0.734448
| 48> H       4.297413    2.336344    1.405226
| 49> H       4.607328    0.729609    2.125289
| 50> H       5.940360    1.643351    1.368978
| 51> H      -1.250391    1.078736   -3.744218
| 52> H       0.201574    0.666193   -2.786343
| 53> H      -0.591726   -0.566666   -3.791818
| 54> H      -4.529113   -2.254646   -2.729764
| 55> **                         ****END OF INPUT****

CARTESIAN COORDINATES (ANGSTROEM)
---------------------------------
  C     -4.583365   -1.062325    3.356604
  O     -3.794964   -0.748920    2.213032
  C     -4.218542   -1.281137    1.043072
  O     -5.213532   -1.983129    0.980399
  C     -3.357350   -0.909872   -0.087370
  N     -2.289482   -0.094714    0.185881
  C     -1.467434    0.294505   -0.734810
  C     -0.354270    1.244983   -0.293426
  C     -0.364396    1.339292    1.243136
  C     -0.636151    2.636135   -0.886606
  N      0.922742    0.703414   -0.768601
  C      2.139865    1.334331   -0.311729
  O      2.177751    2.566403   -0.031110
  C      3.203711    0.472253   -0.204568
  O      3.183278   -0.884192   -0.586755
  C      4.466719   -1.275314   -0.511076
  C      4.796392   -2.690264   -0.828473
  N      5.312078   -0.382465   -0.161453
  N      4.585797    0.833197    0.002480
  C      4.876393    1.417417    1.318135
  N     -1.620857   -0.093227   -2.047959
  C     -0.753508    0.305108   -3.156806
  C     -2.686959   -0.897869   -2.436985
  O     -2.852166   -1.226101   -3.619861
  C     -3.572870   -1.320736   -1.389257
  O     -4.601094   -2.112951   -1.769025
  H     -4.614037   -2.144121    3.516094
  H     -4.114592   -0.574064    4.209300
  H     -5.605280   -0.692803    3.230230
  H     -1.332265    1.699125    1.589629
  H     -0.178174    0.359354    1.680914
  H      0.408263    2.031710    1.573170
  H     -1.662612    2.924866   -0.660265
  H      0.039900    3.371263   -0.452942
  H     -0.501479    2.639422   -1.966109
  H      0.968532   -0.296258   -0.598452
  H      4.270120   -3.355831   -0.144702
  H      4.480452   -2.931050   -1.843184
  H      5.867941   -2.848357   -0.734448
  H      4.297413    2.336344    1.405226
  H      4.607328    0.729609    2.125289
  H      5.940360    1.643351    1.368978
  H     -1.250391    1.078736   -3.744218
  H      0.201574    0.666193   -2.786343
  H     -0.591726   -0.566666   -3.791818
  H     -4.529113   -2.254646   -2.729764

 Total Charge           Charge          ....   -1
 Multiplicity           Mult            ....    1
 Number of Electrons    NEL             ....  194
 Basis Dimension        Dim             ....  649

ORBITAL ENERGIES
----------------

  NO   OCC          E(Eh)            E(eV)
   0   2.0000     -18.994172      -516.8577
   1   2.0000     -18.991819      -516.7937
   2   2.0000     -18.988357      -516.6995
   3   2.0000     -18.932014      -515.1663
   4   2.0000     -18.930505      -515.1252
   5   2.0000     -18.847048      -512.8543
   6   2.0000     -14.234340      -387.3361
   7   2.0000     -14.177128      -385.7793
   8   2.0000     -14.157639      -385.2489
   9   2.0000     -14.154321      -385.1586
  10   2.0000     -14.132673      -384.5696
  11   2.0000     -10.155171      -276.3362
  12   2.0000     -10.140188      -275.9285
  13   2.0000     -10.115550      -275.2581
  14   2.0000     -10.114960      -275.2420
  15   2.0000     -10.109168      -275.0844
  16   2.0000     -10.086064      -274.4557
  17   2.0000     -10.074619      -274.1443
  18   2.0000     -10.071276      -274.0534
  19   2.0000     -10.059438      -273.7312
  20   2.0000     -10.050588      -273.4904
  21   2.0000     -10.039820      -273.1974
  22   2.0000     -10.029228      -272.9092
  23   2.0000     -10.028751      -272.8962
  24   2.0000     -10.004621      -272.2396
  25   2.0000      -9.999258      -272.0937
  26   2.0000      -1.067058       -29.0361
  27   2.0000      -1.064376       -28.9632
  28   2.0000      -1.047865       -28.5139
  29   2.0000      -1.009353       -27.4659
  30   2.0000      -0.973285       -26.4844
  31   2.0000      -0.957975       -26.0678
  32   2.0000      -0.924379       -25.1536
  33   2.0000      -0.920631       -25.0516
  34   2.0000      -0.880139       -23.9498
  35   2.0000      -0.846481       -23.0339
  36   2.0000      -0.794600       -21.6222
  37   2.0000      -0.764922       -20.8146
  38   2.0000      -0.717817       -19.5328
  39   2.0000      -0.713386       -19.4122
  40   2.0000      -0.698652       -19.0113
  41   2.0000      -0.677376       -18.4323
  42   2.0000      -0.650563       -17.7027
  43   2.0000      -0.644683       -17.5427
  44   2.0000      -0.629220       -17.1219
  45   2.0000      -0.616330       -16.7712
  46   2.0000      -0.595779       -16.2120
  47   2.0000      -0.551763       -15.0142
  48   2.0000      -0.551381       -15.0038
  49   2.0000      -0.542767       -14.7694
  50   2.0000      -0.530524       -14.4363
  51   2.0000      -0.505991       -13.7687
  52   2.0000      -0.492134       -13.3916
  53   2.0000      -0.482615       -13.1326
  54   2.0000      -0.469729       -12.7820
  55   2.0000      -0.456562       -12.4237
  56   2.0000      -0.448724       -12.2104
  57   2.0000      -0.440785       -11.9944
  58   2.0000      -0.440383       -11.9834
  59   2.0000      -0.434046       -11.8110
  60   2.0000      -0.426592       -11.6082
  61   2.0000      -0.411086       -11.1862
  62   2.0000      -0.410009       -11.1569
  63   2.0000      -0.397425       -10.8145
  64   2.0000      -0.394378       -10.7316
  65   2.0000      -0.386186       -10.5086
  66   2.0000      -0.383681       -10.4405
  67   2.0000      -0.380797       -10.3620
  68   2.0000      -0.376912       -10.2563
  69   2.0000      -0.368001       -10.0138
  70   2.0000      -0.365289        -9.9400
  71   2.0000      -0.364378        -9.9152
  72   2.0000      -0.361130        -9.8268
  73   2.0000      -0.350357        -9.5337
  74   2.0000      -0.344797        -9.3824
  75   2.0000      -0.343063        -9.3352
  76   2.0000      -0.341340        -9.2883
  77   2.0000      -0.337121        -9.1735
  78   2.0000      -0.331834        -9.0297
  79   2.0000      -0.325433        -8.8555
  80   2.0000      -0.318228        -8.6594
  81   2.0000      -0.316849        -8.6219
  82   2.0000      -0.314646        -8.5620
  83   2.0000      -0.305798        -8.3212
  84   2.0000      -0.292284        -7.9534
  85   2.0000      -0.270703        -7.3662
  86   2.0000      -0.269437        -7.3318
  87   2.0000      -0.263453        -7.1689
  88   2.0000      -0.259775        -7.0688
  89   2.0000      -0.252541        -6.8720
  90   2.0000      -0.244331        -6.6486
  91   2.0000      -0.229858        -6.2548
  92   2.0000      -0.208906        -5.6846
  93   2.0000      -0.206798        -5.6273
  94   2.0000      -0.194375        -5.2892
  95   2.0000      -0.169551        -4.6137
  96   2.0000      -0.085412        -2.3242
  97   0.0000      -0.091497        -2.4898
  98   0.0000      -0.031268        -0.8509
  99   0.0000       0.008041         0.2188
 100   0.0000       0.016926         0.4606
 101   0.0000       0.050509         1.3744

MULLIKEN ATOMIC CHARGES
-----------------------
   0 C :   -0.312805
   1 O :   -0.180280
   2 C :    0.092967
   3 O :   -0.403534
   4 C :    0.146604
   5 N :   -0.093692
   6 C :    0.119903
   7 C :    0.120151
   8 C :   -0.724251
   9 C :   -0.590859
  10 N :   -0.263930
  11 C :   -0.115236
  12 O :   -0.547937
  13 C :   -0.167039
  14 O :   -0.088437
  15 C :    0.388030
  16 C :   -0.653650
  17 N :   -0.366358
  18 N :   -0.009648
  19 C :   -0.414363
  20 N :    0.257097
  21 C :   -0.476670
  22 C :    0.179494
  23 O :   -0.491217
  24 C :    0.007515
  25 O :   -0.349640
  26 H :    0.172235
  27 H :    0.172611
  28 H :    0.171824
  29 H :    0.173857
  30 H :    0.188790
  31 H :    0.193230
  32 H :    0.174904
  33 H :    0.204128
  34 H :    0.171089
  35 H :    0.298570
  36 H :    0.185857
  37 H :    0.184201
  38 H :    0.191228
  39 H :    0.187772
  40 H :    0.145401
  41 H :    0.160558
  42 H :    0.197098
  43 H :    0.222627
  44 H :    0.186775
  45 H :    0.355031
Sum of atomic charges:   -1.0000000

LOEWDIN ATOMIC CHARGES
----------------------
   0 C :   -0.042310
   1 O :   -0.586630
   2 C :    0.400511
   3 O :   -0.428359
   4 C :    0.205201
   5 N :   -0.577617
   6 C :    0.376283
   7 C :    0.098245
   8 C :   -0.360605
   9 C :   -0.360310
  10 N :   -0.719014
  11 C :    0.278942
  12 O :   -0.670542
  13 C :    0.266419
  14 O :   -0.504874
  15 C :    0.343567
  16 C :   -0.330478
  17 N :   -0.420089
  18 N :   -0.657522
  19 C :   -0.124324
  20 N :   -0.624959
  21 C :   -0.093608
  22 C :    0.373602
  23 O :   -0.506568
  24 C :    0.280460
  25 O :   -0.443939
  26 H :    0.179640
  27 H :    0.183379
  28 H :    0.179303
  29 H :    0.168266
  30 H :    0.167177
  31 H :    0.173813
  32 H :    0.162366
  33 H :    0.184182
  34 H :    0.168032
  35 H :    0.279003
  36 H :    0.181276
  37 H :    0.179923
  38 H :    0.181342
  39 H :    0.189979
  40 H :    0.159152
  41 H :    0.175393
  42 H :    0.192779
  43 H :    0.214652
  44 H :    0.202258
  45 H :    0.306603

  Mayer bond orders larger than 0.100000
B(  0-C ,  1-O ) :   0.8398 B(  0-C , 26-H ) :   0.9576 B(  0-C , 27-H ) :   0.9641
B(  0-C , 28-H ) :   0.9574 B(  1-O ,  2-C ) :   1.1085 B(  2-C ,  3-O ) :   1.8890
B(  2-C ,  4-C ) :   0.9976 B(  4-C ,  5-N ) :   1.0107 B(  4-C , 24-C ) :   1.4123
B(  5-N ,  6-C ) :   1.7148 B(  5-N ,  7-C ) :  -0.1270 B(  6-C ,  7-C ) :   0.8931
B(  6-C , 10-N ) :  -0.1310 B(  6-C , 20-N ) :   1.2219 B(  7-C ,  8-C ) :   0.8674
B(  7-C ,  9-C ) :   0.8909 B(  7-C , 10-N ) :   0.9016 B(  8-C , 29-H ) :   0.9651
B(  8-C , 30-H ) :   0.9853 B(  8-C , 31-H ) :   0.9710 B(  9-C , 32-H ) :   0.9790
B(  9-C , 33-H ) :   0.9642 B(  9-C , 34-H ) :   0.9510 B( 10-N , 11-C ) :   0.9349
B( 10-N , 35-H ) :   0.8849 B( 11-C , 12-O ) :   1.7933 B( 11-C , 13-C ) :   1.3351
B( 13-C , 14-O ) :   0.9265 B( 13-C , 18-N ) :   0.9771 B( 14-O , 15-C ) :   1.0741
B( 15-C , 16-C ) :   0.8226 B( 15-C , 17-N ) :   1.7628 B( 16-C , 36-H ) :   0.9487
B( 16-C , 37-H ) :   0.9522 B( 16-C , 38-H ) :   1.0007 B( 17-N , 18-N ) :   1.1990
B( 18-N , 19-C ) :   0.8842 B( 19-C , 39-H ) :   0.9608 B( 19-C , 40-H ) :   0.9518
B( 19-C , 41-H ) :   0.9723 B( 20-N , 21-C ) :   0.8440 B( 20-N , 22-C ) :   1.1079
B( 21-C , 42-H ) :   0.9384 B( 21-C , 43-H ) :   0.9222 B( 21-C , 44-H ) :   0.9394
B( 22-C , 23-O ) :   1.7898 B( 22-C , 24-C ) :   0.9952 B( 24-C , 25-O ) :   1.1060
B( 25-O , 45-H ) :   0.8207

Dispersion correction           -0.020927084
FINAL SINGLE POINT ENERGY     -1308.597114351483

DIPOLE MOMENT
-------------
                                X             Y             Z
Electronic contribution:    -14.91419      -8.91212      -7.74746
Nuclear contribution   :     11.53271       6.48717       7.78279
                        -----------------------------------------
Total Dipole Moment    :     -3.38148      -2.42495       0.03533
                        -----------------------------------------
Magnitude (a.u.)       :      4.16125
Magnitude (Debye)      :     10.57707

Rotational constants in cm-1:     0.010839     0.003388     0.003175
Rotational constants in MHz :   324.951305   101.554751    95.178886

                             ****ORCA TERMINATED NORMALLY****
TOTAL RUN TIME: 0 days 0 hours 4 minutes 1 seconds 181 msec
