   * xtb version 6.5.1 (579679a) compiled by 'ehlert@majestix' on 2022-07-11
          program call               : /lustre/hpc/kemi/ree/PhD/git/ReactivityQM/dep/xtb-6.5.1/bin/xtb --gfn 1 /lustre/hpc/kemi/ree/PhD/git/ReactivityQM/calculations/R03/reac02prodE09/conf01/R03_reac02prodE09_conf01_gfn1.xyz --opt --vfukui --chrg -1 --uhf 0 --alpb DMSO

   ID    Z sym.   atoms
    1    6 C      1, 3, 5, 7-10, 12, 14, 16, 17, 20, 22, 23, 25
    2    8 O      2, 4, 13, 15, 24, 26
    3    7 N      6, 11, 18, 19, 21
    4    1 H      27-46

      * Solvation model:               ALPB
        Solvent                        DMSO
        Solvent mass                       7.8130E+01 g/mol
          :  Hamiltonian                  GFN1-xTB          :
 * total energy  :   -87.0149837 Eh     change       -0.1265761E-09 Eh
 * total energy  :   -87.0244826 Eh     change       -0.9498927E-02 Eh
 * total energy  :   -87.0277599 Eh     change       -0.3277360E-02 Eh
 * total energy  :   -87.0285883 Eh     change       -0.8283224E-03 Eh
 * total energy  :   -87.0296925 Eh     change       -0.1104245E-02 Eh
 * total energy  :   -87.0307069 Eh     change       -0.1014361E-02 Eh
 * total energy  :   -87.0319084 Eh     change       -0.1201510E-02 Eh
 * total energy  :   -87.0329791 Eh     change       -0.1070759E-02 Eh
 * total energy  :   -87.0338958 Eh     change       -0.9166876E-03 Eh
 * total energy  :   -87.0345562 Eh     change       -0.6603541E-03 Eh
 * total energy  :   -87.0373663 Eh     change       -0.3843881E-04 Eh
 * total energy  :   -87.0373830 Eh     change       -0.1667100E-04 Eh
 * total energy  :   -87.0373964 Eh     change       -0.1344604E-04 Eh
 * total energy  :   -87.0374087 Eh     change       -0.1228579E-04 Eh
 * total energy  :   -87.0374191 Eh     change       -0.1037209E-04 Eh
 * total energy  :   -87.0374317 Eh     change       -0.1260123E-04 Eh
 * total energy  :   -87.0374456 Eh     change       -0.1392596E-04 Eh
 * total energy  :   -87.0374544 Eh     change       -0.8782653E-05 Eh
 * total energy  :   -87.0374591 Eh     change       -0.4768466E-05 Eh
   *** GEOMETRY OPTIMIZATION CONVERGED AFTER 40 ITERATIONS ***

 final structure:
================
46
 xtb: 6.5.1 (579679a)
C           -4.58336515725587       -1.06232497828026        3.35660385664522
O           -3.79496397072055       -0.74891963131518        2.21303163842381
C           -4.21854221465434       -1.28113692434935        1.04307234658892
O           -5.21353207711595       -1.98312927151153        0.98039896578564
C           -3.35735025665016       -0.90987182768718       -0.08736982160416
N           -2.28948239377103       -0.09471403235456        0.18588079689395
C           -1.46743422494819        0.29450454177978       -0.73480999350561
C           -0.35427037052657        1.24498335109228       -0.29342572724668
C           -0.36439591995338        1.33929245483183        1.24313631439052
C           -0.63615094120589        2.63613455295807       -0.88660644634718
N            0.92274207508866        0.70341428691116       -0.76860095747889
C            2.13986499905793        1.33433138248507       -0.31172920628379
O            2.17775061160666        2.56640286441470       -0.03111035730588
C            3.20371090875943        0.47225336574420       -0.20456810117657
O            3.18327808049374       -0.88419165028289       -0.58675484283505
C            4.46671940407889       -1.27531354070091       -0.51107554553405
C            4.79639225659899       -2.69026442340905       -0.82847286666427
N            5.31207785760228       -0.38246531796938       -0.16145307594037
N            4.58579663262014        0.83319680973427        0.00247955035138
C            4.87639283855641        1.41741731171063        1.31813450560413
N           -1.62085667280823       -0.09322740960921       -2.04795896042427
C           -0.75350816933974        0.30510801024091       -3.15680633733834
C           -2.68695939102763       -0.89786911078872       -2.43698489449315
O           -2.85216572364815       -1.22610131138146       -3.61986078814096
C           -3.57286966406913       -1.32073560729479       -1.38925665112377
O           -4.60109449435850       -2.11295115415739       -1.76902521226527
H           -4.61403661477574       -2.14412052957907        3.51609407254815
H           -4.11459174632821       -0.57406412742239        4.20929999879894
H           -5.60528002012493       -0.69280344731673        3.23022959299216
H           -1.33226459667782        1.69912533532085        1.58962914633142
H           -0.17817420487005        0.35935351769368        1.68091365770137
H            0.40826288338443        2.03171035101458        1.57317039347912
H           -1.66261218969857        2.92486640116077       -0.66026464262164
H            0.03989992118757        3.37126294476452       -0.45294231885468
H           -0.50147912935111        2.63942229816061       -1.96610938115814
H            0.96853248826442       -0.29625828425808       -0.59845205056081
H            4.27012010415759       -3.35583143794104       -0.14470242597889
H            4.48045220338518       -2.93104987099514       -1.84318445769525
H            5.86794120506958       -2.84835714528150       -0.73444800786792
H            4.29741305509772        2.33634429253546        1.40522649267733
H            4.60732781239350        0.72960915840774        2.12528871868622
H            5.94035990533359        1.64335118590575        1.36897776223233
H           -1.25039114101065        1.07873565567970       -3.74421807228813
H            0.20157385239496        0.66619295064133       -2.78634313696328
H           -0.59172625236150       -0.56666581348930       -3.79181758850142
H           -4.52911255787495       -2.25464617580353       -2.72976394193253

          :  Hamiltonian                  GFN1-xTB          :
         :: total energy             -87.037459138286 Eh    ::
         :: gradient norm              0.000410217261 Eh/a0 ::
         :: HOMO-LUMO gap              0.095313172994 eV    ::
         :: SCC energy               -87.833578393510 Eh    ::
         :: -> Gsolv                  -0.106749854254 Eh    ::
         :: repulsion energy           0.824859346398 Eh    ::

    * Orbital Energies and Occupations

         #    Occupation            Energy/Eh            Energy/eV
      -------------------------------------------------------------
         1        2.0000           -0.8147144             -22.1695
       ...           ...                  ...                  ...
        59        2.0000           -0.4760280             -12.9534
        60        2.0000           -0.4679376             -12.7332
        61        2.0000           -0.4583028             -12.4711
        62        2.0000           -0.4477098             -12.1828
        63        2.0000           -0.4425723             -12.0430
        64        2.0000           -0.4346830             -11.8283
        65        2.0000           -0.4338697             -11.8062
        66        2.0000           -0.4202678             -11.4361
        67        2.0000           -0.4062364             -11.0543
        68        2.0000           -0.4033291             -10.9751
        69        2.0000           -0.4008172             -10.9068
        70        2.0000           -0.3825583             -10.4099
        71        1.7267           -0.3062009              -8.3321 (HOMO)
        72        0.2733           -0.3026982              -8.2368 (LUMO)
        73                         -0.2565631              -6.9814
        74                         -0.2248284              -6.1179
        75                         -0.2153580              -5.8602
        76                         -0.1499981              -4.0817
        77                         -0.1308551              -3.5607
        78                         -0.1285261              -3.4974
        79                         -0.1284848              -3.4963
        80                         -0.1225046              -3.3335
        81                         -0.1029513              -2.8014
        82                         -0.1013210              -2.7571
       ...                                ...                  ...
       144                          0.7295678              19.8525
      -------------------------------------------------------------
                  HL-Gap            0.0035027 Eh            0.0953 eV

Wiberg/Mayer (AO) data.
largest (>0.10) Wiberg bond orders for each atom

     #   Z sym  total        # sym  WBO       # sym  WBO       # sym  WBO
 ---------------------------------------------------------------------------
     1   6 C    3.888 --    28 H    0.987    29 H    0.980    27 H    0.980
                             2 O    0.915
     2   8 O    2.152 --     3 C    1.061     1 C    0.915     4 O    0.118
     3   6 C    3.788 --     4 O    1.604     2 O    1.061     5 C    1.055
     4   8 O    1.843 --     3 C    1.604     2 O    0.118
     5   6 C    3.885 --    25 C    1.406     6 N    1.177     3 C    1.055
     6   7 N    3.018 --     7 C    1.577     5 C    1.177
     7   6 C    3.905 --     6 N    1.577    21 N    1.153     8 C    0.973
     8   6 C    3.959 --     9 C    0.990    10 C    0.983     7 C    0.973
                            11 N    0.956
     9   6 C    3.994 --     8 C    0.990    31 H    0.986    30 H    0.986
                            32 H    0.982
    10   6 C    3.992 --    33 H    0.988     8 C    0.983    35 H    0.982
                            34 H    0.976
    11   7 N    3.100 --    12 C    0.973     8 C    0.956    36 H    0.932
    12   6 C    3.878 --    14 C    1.424    13 O    1.367    11 N    0.973
    13   8 O    1.685 --    12 C    1.367    14 C    0.127
    14   6 C    3.567 --    12 C    1.424    19 N    0.979    15 O    0.909
                            13 O    0.127
    15   8 O    2.180 --    16 C    1.068    14 C    0.909    18 N    0.115
    16   6 C    3.897 --    18 N    1.709    15 O    1.068    17 C    1.019
    17   6 C    3.993 --    16 C    1.019    39 H    0.986    38 H    0.971
                            37 H    0.970
    18   7 N    2.934 --    16 C    1.709    19 N    1.003    15 O    0.115
    19   7 N    3.074 --    18 N    1.003    14 C    0.979    20 C    0.952
    20   6 C    3.956 --    42 H    0.989    40 H    0.985    41 H    0.984
                            19 N    0.952
    21   7 N    3.442 --     7 C    1.153    23 C    1.103    22 C    0.934
                            24 O    0.119
    22   6 C    3.929 --    43 H    0.978    45 H    0.977    44 H    0.971
                            21 N    0.934
    23   6 C    3.874 --    24 O    1.499    25 C    1.136    21 N    1.103
    24   8 O    1.824 --    23 C    1.499    21 N    0.119
    25   6 C    3.823 --     5 C    1.406    23 C    1.136    26 O    1.069
    26   8 O    2.032 --    25 C    1.069    46 H    0.821
    27   1 H    1.010 --     1 C    0.980
    28   1 H    1.014 --     1 C    0.987
    29   1 H    1.010 --     1 C    0.980
    30   1 H    1.017 --     9 C    0.986
    31   1 H    1.011 --     9 C    0.986
    32   1 H    1.016 --     9 C    0.982
    33   1 H    1.006 --    10 C    0.988
    34   1 H    1.026 --    10 C    0.976
    35   1 H    1.008 --    10 C    0.982
    36   1 H    0.971 --    11 N    0.932
    37   1 H    1.002 --    17 C    0.970
    38   1 H    1.002 --    17 C    0.971
    39   1 H    1.003 --    17 C    0.986
    40   1 H    1.029 --    20 C    0.985
    41   1 H    1.010 --    20 C    0.984
    42   1 H    1.019 --    20 C    0.989
    43   1 H    1.004 --    22 C    0.978
    44   1 H    1.027 --    22 C    0.971
    45   1 H    1.010 --    22 C    0.977
    46   1 H    0.864 --    26 O    0.821
 ---------------------------------------------------------------------------

           -------------------------------------------------
          | TOTAL ENERGY              -87.037459138286 Eh   |
          | GRADIENT NORM               0.000410217261 Eh/α |
          | HOMO-LUMO GAP               0.095313172994 eV   |
           -------------------------------------------------

 * finished run on 2023/06/20 at 15:28:12.720
