   * xtb version 6.5.1 (579679a) compiled by 'ehlert@majestix' on 2022-07-11
          program call               : /lustre/hpc/kemi/ree/PhD/git/ReactivityQM/dep/xtb-6.5.1/bin/xtb --gfn 1 /lustre/hpc/kemi/ree/PhD/git/ReactivityQM/calculations/R02methylcation/reac01prodE08/conf15/R02methylcation_reac01prodE08_conf15_gfn1.xyz --opt --vfukui --chrg -2 --uhf 0 --alpb DMSO

   ID    Z sym.   atoms
    1    6 C      1, 3, 5, 7-10, 12, 14, 15, 18, 19, 22, 24
    2    8 O      2, 4, 13, 20, 23, 25
    3    7 N      6, 11, 16, 17, 21
    4    1 H      26-42

      * Solvation model:               ALPB
        Solvent                        DMSO
        Solvent mass                       7.8130E+01 g/mol
          :  Hamiltonian                  GFN1-xTB          :
 * total energy  :   -83.6257283 Eh     change       -0.3023786E-09 Eh
 * total energy  :   -83.6383339 Eh     change       -0.1260552E-01 Eh
 * total energy  :   -83.6430098 Eh     change       -0.4675899E-02 Eh
 * total energy  :   -83.6439031 Eh     change       -0.8933701E-03 Eh
 * total energy  :   -83.6446763 Eh     change       -0.7731324E-03 Eh
 * total energy  :   -83.6450503 Eh     change       -0.3740035E-03 Eh
 * total energy  :   -83.6453616 Eh     change       -0.3113323E-03 Eh
 * total energy  :   -83.6455450 Eh     change       -0.1833647E-03 Eh
 * total energy  :   -83.6456409 Eh     change       -0.9597481E-04 Eh
 * total energy  :   -83.6457010 Eh     change       -0.6006032E-04 Eh
 * total energy  :   -83.6473162 Eh     change        0.3182198E-04 Eh
 * total energy  :   -83.6472099 Eh     change        0.1063608E-03 Eh
 * total energy  :   -83.6473642 Eh     change       -0.1543447E-03 Eh
 * total energy  :   -83.6474304 Eh     change       -0.6621050E-04 Eh
 * total energy  :   -83.6474517 Eh     change       -0.2126178E-04 Eh
 * total energy  :   -83.6474679 Eh     change       -0.1627147E-04 Eh
 * total energy  :   -83.6474756 Eh     change       -0.7704773E-05 Eh
 * total energy  :   -83.6474847 Eh     change       -0.9082859E-05 Eh
 * total energy  :   -83.6474893 Eh     change       -0.4614585E-05 Eh
   *** GEOMETRY OPTIMIZATION CONVERGED AFTER 50 ITERATIONS ***

 final structure:
================
42
 xtb: 6.5.1 (579679a)
C            4.89661228748557        2.68335418243757       -1.26786158705054
O            3.93805112385999        1.76109480743453       -0.77638379111895
C            4.11977179253348        1.35254474806910        0.52083813269119
O            5.05017450422411        1.79898930834951        1.17739283075379
C            3.12277198262071        0.38877690934006        0.94624454790278
N            2.17557617787136        0.05812457632370       -0.00682878942770
C            1.25541089638720       -0.79924638544046        0.25002528720746
C            0.23422230028945       -1.15338297375880       -0.82406589035991
C            0.62196926043190       -0.43249368471739       -2.11886967386762
C            0.21285833599176       -2.66870246390507       -1.07742423021815
N           -1.09458795543345       -0.66001860881534       -0.44812018500331
C           -1.92041212084064       -1.21799726835664        0.47313672362070
O           -1.57771066718535       -2.12057655130282        1.24493607841901
C           -3.26610640517942       -0.48542910555113        0.63196988416234
C           -4.39768187557463       -1.49271638437769        0.90446977243109
N           -3.03856295870309        0.42428192174783        1.75991304268088
N           -3.19881814339729        1.67894438715168        1.25367959009871
C           -3.49873330779743        1.63400967913281        0.01062697153109
C           -3.78024774163366        2.76753951605602       -0.91227831606723
O           -3.55970806690853        0.31918221826911       -0.50373667921448
N            1.17080048475243       -1.41994107633523        1.47491081525471
C            2.03463897163830       -1.19280445389258        2.50769890272757
O            1.89873985429871       -1.79919970900865        3.57194059119112
C            3.12818800066858       -0.17941023182634        2.24731531010356
O            3.93765764597322        0.07729925649393        3.15991110058001
H            5.90413331289202        2.25583519960165       -1.22981297451427
H            4.63139559331512        2.90058685434734       -2.30171466271634
H            4.88601862665053        3.60944752326360       -0.68304107013216
H            0.63105866802928        0.64627857005166       -1.96459267193632
H            1.61753904065564       -0.74402864994073       -2.43101098551091
H           -0.08687711352060       -0.67423582230977       -2.90830540705492
H            1.20034761144779       -2.99420883692869       -1.40184386989584
H           -0.06122180670298       -3.22020580467935       -0.18027543776015
H           -0.50787652321941       -2.89839542401259       -1.86058352182025
H           -1.54877280839958       -0.09277527026548       -1.15038660431227
H           -4.09788926836475       -2.16374212658125        1.70781167613366
H           -5.29718337619907       -0.95575525607707        1.19870512425866
H           -4.60428105870402       -2.07214744126615        0.00621460411564
H           -3.00591870584020        2.86407287402267       -1.67804795919365
H           -3.82268076376143        3.69334278188370       -0.33953525761067
H           -4.73439417757436        2.62348991811060       -1.42320349822294
H            0.43172737292331       -2.09977970273028        1.62757107714504

          :  Hamiltonian                  GFN1-xTB          :
         :: total energy             -83.647489343461 Eh    ::
         :: gradient norm              0.000848926226 Eh/a0 ::
         :: HOMO-LUMO gap              0.391384433160 eV    ::
         :: SCC energy               -84.385210103653 Eh    ::
         :: -> Gsolv                  -0.278287260658 Eh    ::
         :: repulsion energy           0.764358691936 Eh    ::

    * Orbital Energies and Occupations

         #    Occupation            Energy/Eh            Energy/eV
      -------------------------------------------------------------
         1        2.0000           -0.7925007             -21.5650
       ...           ...                  ...                  ...
        56        2.0000           -0.4481662             -12.1952
        57        2.0000           -0.4455334             -12.1236
        58        2.0000           -0.4323903             -11.7659
        59        2.0000           -0.4275472             -11.6342
        60        2.0000           -0.4128242             -11.2335
        61        2.0000           -0.4046254             -11.0104
        62        2.0000           -0.4025088             -10.9528
        63        2.0000           -0.3996162             -10.8741
        64        2.0000           -0.3787535             -10.3064
        65        2.0000           -0.3686407             -10.0312
        66        2.0000           -0.3570107              -9.7148
        67        2.0000           -0.3499542              -9.5227
        68        1.9990           -0.2763837              -7.5208 (HOMO)
        69        0.0010           -0.2620006              -7.1294 (LUMO)
        70                         -0.2281460              -6.2082
        71                         -0.2087799              -5.6812
        72                         -0.1885116              -5.1297
        73                         -0.1624798              -4.4213
        74                         -0.1203252              -3.2742
        75                         -0.1096756              -2.9844
        76                         -0.1076050              -2.9281
        77                         -0.1050735              -2.8592
        78                         -0.0996836              -2.7125
        79                         -0.0889929              -2.4216
       ...                                ...                  ...
       134                          0.7682699              20.9057
      -------------------------------------------------------------
                  HL-Gap            0.0143831 Eh            0.3914 eV

Wiberg/Mayer (AO) data.
largest (>0.10) Wiberg bond orders for each atom

     #   Z sym  total        # sym  WBO       # sym  WBO       # sym  WBO
 ---------------------------------------------------------------------------
     1   6 C    3.902 --    27 H    0.987    26 H    0.980    28 H    0.980
                             2 O    0.930
     2   8 O    2.133 --     3 C    1.018     1 C    0.930     4 O    0.106
     3   6 C    3.848 --     4 O    1.584     5 C    1.128     2 O    1.018
     4   8 O    1.861 --     3 C    1.584     2 O    0.106
     5   6 C    3.917 --    24 C    1.270     6 N    1.150     3 C    1.128
                            25 O    0.128
     6   7 N    3.024 --     7 C    1.627     5 C    1.150
     7   6 C    3.933 --     6 N    1.627    21 N    1.109     8 C    0.970
     8   6 C    3.952 --     9 C    1.002    10 C    0.986     7 C    0.970
                            11 N    0.930
     9   6 C    3.995 --     8 C    1.002    31 H    0.986    30 H    0.985
                            29 H    0.984
    10   6 C    3.992 --    32 H    0.987     8 C    0.986    34 H    0.985
                            33 H    0.978
    11   7 N    3.299 --    12 C    1.227     8 C    0.930    35 H    0.902
                            13 O    0.140
    12   6 C    3.866 --    13 O    1.535    11 N    1.227    14 C    0.922
    13   8 O    1.873 --    12 C    1.535    11 N    0.140
    14   6 C    3.896 --    16 N    0.978    15 C    0.972    20 O    0.922
                            12 C    0.922
    15   6 C    3.996 --    38 H    0.988    37 H    0.987    36 H    0.986
                            14 C    0.972
    16   7 N    2.622 --    17 N    1.192    14 C    0.978    18 C    0.207
    17   7 N    3.019 --    18 C    1.668    16 N    1.192
    18   6 C    3.862 --    17 N    1.668    19 C    1.017    20 O    0.918
                            16 N    0.207
    19   6 C    3.996 --    18 C    1.017    40 H    0.987    41 H    0.978
                            39 H    0.976
    20   8 O    2.064 --    14 C    0.922    18 C    0.918
    21   7 N    3.447 --    22 C    1.181     7 C    1.109    42 H    0.873
                            23 O    0.136
    22   6 C    3.884 --    23 O    1.561    21 N    1.181    24 C    0.970
    23   8 O    1.839 --    22 C    1.561    21 N    0.136
    24   6 C    3.942 --    25 O    1.514     5 C    1.270    22 C    0.970
    25   8 O    1.817 --    24 C    1.514     5 C    0.128
    26   1 H    1.015 --     1 C    0.980
    27   1 H    1.016 --     1 C    0.987
    28   1 H    1.015 --     1 C    0.980
    29   1 H    1.014 --     9 C    0.984
    30   1 H    1.013 --     9 C    0.985
    31   1 H    1.002 --     9 C    0.986
    32   1 H    1.005 --    10 C    0.987
    33   1 H    1.016 --    10 C    0.978
    34   1 H    1.003 --    10 C    0.985
    35   1 H    0.961 --    11 N    0.902
    36   1 H    1.018 --    15 C    0.986
    37   1 H    1.020 --    15 C    0.987
    38   1 H    1.011 --    15 C    0.988
    39   1 H    1.010 --    19 C    0.976
    40   1 H    1.010 --    19 C    0.987
    41   1 H    1.009 --    19 C    0.978
    42   1 H    0.961 --    21 N    0.873
 ---------------------------------------------------------------------------

           -------------------------------------------------
          | TOTAL ENERGY              -83.647489343461 Eh   |
          | GRADIENT NORM               0.000848926226 Eh/α |
          | HOMO-LUMO GAP               0.391384433160 eV   |
           -------------------------------------------------

 * finished run on 2023/06/21 at 17:18:44.388
