   * xtb version 6.5.1 (579679a) compiled by 'ehlert@majestix' on 2022-07-11
          program call               : /lustre/hpc/kemi/ree/PhD/git/ReactivityQM/dep/xtb-6.5.1/bin/xtb --gfn 1 /lustre/hpc/kemi/ree/PhD/git/ReactivityQM/calculations/R02deprot/reac01prodN03/conf14/R02deprot_reac01prodN03_conf14_gfn1.xyz --opt --vfukui --chrg 0 --uhf 0 --alpb DMSO

   ID    Z sym.   atoms
    1    6 C      1, 3, 5, 7-10, 12, 14, 17, 18, 21, 22, 24
    2    8 O      2, 4, 13, 19, 23, 25
    3    7 N      6, 11, 15, 16, 20
    4    1 H      26-42

      * Solvation model:               ALPB
        Solvent                        DMSO
        Solvent mass                       7.8130E+01 g/mol
          :  Hamiltonian                  GFN1-xTB          :
 * total energy  :   -82.9958205 Eh     change       -0.1220712E-10 Eh
 * total energy  :   -83.0059822 Eh     change       -0.1016177E-01 Eh
 * total energy  :   -83.0096136 Eh     change       -0.3631363E-02 Eh
 * total energy  :   -83.0103406 Eh     change       -0.7270153E-03 Eh
 * total energy  :   -83.0108801 Eh     change       -0.5394545E-03 Eh
 * total energy  :   -83.0111687 Eh     change       -0.2886804E-03 Eh
 * total energy  :   -83.0114352 Eh     change       -0.2665065E-03 Eh
 * total energy  :   -83.0116460 Eh     change       -0.2107188E-03 Eh
 * total energy  :   -83.0117691 Eh     change       -0.1231166E-03 Eh
 * total energy  :   -83.0118352 Eh     change       -0.6614963E-04 Eh
 * total energy  :   -83.0122309 Eh     change       -0.2086034E-04 Eh
 * total energy  :   -83.0122442 Eh     change       -0.1333309E-04 Eh
 * total energy  :   -83.0122572 Eh     change       -0.1298039E-04 Eh
 * total energy  :   -83.0122647 Eh     change       -0.7498314E-05 Eh
 * total energy  :   -83.0122796 Eh     change       -0.1492314E-04 Eh
 * total energy  :   -83.0122850 Eh     change       -0.5334668E-05 Eh
 * total energy  :   -83.0122937 Eh     change       -0.8770698E-05 Eh
 * total energy  :   -83.0122989 Eh     change       -0.5144409E-05 Eh
 * total energy  :   -83.0123036 Eh     change       -0.4739261E-05 Eh
   *** GEOMETRY OPTIMIZATION CONVERGED AFTER 29 ITERATIONS ***

 final structure:
================
42
 xtb: 6.5.1 (579679a)
C           -5.79071383880728       -1.99816799034752       -1.79308258254346
O           -4.84668637618751       -1.48107013826550       -0.85122475389767
C           -3.74753711900112       -0.92570386613151       -1.35628478338720
O           -3.53048803006468       -0.84473998902338       -2.54410375121934
C           -2.81285338169515       -0.41237378683601       -0.31177616168901
N           -1.67250862775085        0.14856250121682       -0.81717553881654
C           -0.75498392600424        0.64290579520857       -0.05281772910829
C            0.43671892930872        1.27407846722826       -0.76268243252515
C            0.40465325909784        2.79619450773513       -0.56101755888359
C            0.36909296856914        0.94855818462668       -2.26180097545250
N            1.66563247295522        0.68110289345878       -0.21858245098655
C            2.90440389696738        1.08677289316002       -0.58138768850716
O            3.16076135805190        2.05432633831603       -1.27595991970627
C            3.96909602523505        0.22481131849205       -0.00994146016321
N            5.24963251580083        0.32871218466745       -0.18377733757889
N            5.82662913407855       -0.68161922620851        0.52491323516182
C            4.86298579320752       -1.34071149034408        1.08881036201562
C            4.96957078822946       -2.53035976366389        1.96060390564275
O            3.66077676900514       -0.82002105217341        0.79032750399893
N           -0.87676273920235        0.64291617472873        1.31549093032706
C            0.08973899076503        1.21049050050484        2.25845995993933
C           -1.99680614922898        0.11338179100468        1.92854071752427
O           -2.14046877009809        0.11858014721087        3.14722199716319
C           -3.00337096254703       -0.45121560541782        1.04093653395904
O           -4.07607585366521       -0.96739345781085        1.65020660756575
H           -6.10698901678164       -1.20976335122079       -2.48052387507128
H           -5.34215227789926       -2.81584638011548       -2.36256008373182
H           -6.63938316557998       -2.36091291665756       -1.21664811300656
H            1.13054233170604        3.27716885791626       -1.21384278716771
H           -0.58986946509532        3.16365027885244       -0.81068654414431
H            0.63049532814206        3.06424097475751        0.46762719923122
H            0.37819532754227       -0.12968067352672       -2.41052384943380
H           -0.54600345481488        1.35607634040705       -2.68733225641485
H            1.22664472784135        1.38833668616840       -2.76785725233527
H            1.58337924595063       -0.22126178000621        0.22047171544336
H            6.01727543694156       -2.76939727036346        2.12684649135593
H            4.48035488452480       -2.33892842403758        2.91498673659892
H            4.47155690334041       -3.37932304761419        1.49206814831381
H            0.17140834678971        0.52691853390184        3.10321207903207
H           -0.28460151560363        2.17057114147221        2.61403223660929
H            1.06001585881772        1.33332587559751        1.79290602961474
H           -3.96130662279686       -0.87319317685050        2.61470749624525

          :  Hamiltonian                  GFN1-xTB          :
         :: total energy             -83.012303617128 Eh    ::
         :: gradient norm              0.000573660695 Eh/a0 ::
         :: HOMO-LUMO gap              2.896369600856 eV    ::
         :: SCC energy               -83.795972975672 Eh    ::
         :: -> Gsolv                  -0.057727330740 Eh    ::
         :: repulsion energy           0.809912863909 Eh    ::

    * Orbital Energies and Occupations

         #    Occupation            Energy/Eh            Energy/eV
      -------------------------------------------------------------
         1        2.0000           -0.8666288             -23.5822
       ...           ...                  ...                  ...
        55        2.0000           -0.5060026             -13.7690
        56        2.0000           -0.5004923             -13.6191
        57        2.0000           -0.4962587             -13.5039
        58        2.0000           -0.4847720             -13.1913
        59        2.0000           -0.4811085             -13.0916
        60        2.0000           -0.4754121             -12.9366
        61        2.0000           -0.4683839             -12.7454
        62        2.0000           -0.4623615             -12.5815
        63        2.0000           -0.4589441             -12.4885
        64        2.0000           -0.4527250             -12.3193
        65        2.0000           -0.4497928             -12.2395
        66        2.0000           -0.4461780             -12.1411
        67        2.0000           -0.4295680             -11.6891 (HOMO)
        68                         -0.3231284              -8.7928 (LUMO)
        69                         -0.3127404              -8.5101
        70                         -0.2851149              -7.7584
        71                         -0.2576332              -7.0106
        72                         -0.2400683              -6.5326
        73                         -0.2006035              -5.4587
        74                         -0.1574060              -4.2832
        75                         -0.1425047              -3.8777
        76                         -0.1412268              -3.8430
        77                         -0.1375530              -3.7430
        78                         -0.1244213              -3.3857
       ...                                ...                  ...
       134                          0.7305350              19.8789
      -------------------------------------------------------------
                  HL-Gap            0.1064396 Eh            2.8964 eV

Wiberg/Mayer (AO) data.
largest (>0.10) Wiberg bond orders for each atom

     #   Z sym  total        # sym  WBO       # sym  WBO       # sym  WBO
 ---------------------------------------------------------------------------
     1   6 C    3.872 --    28 H    0.986    26 H    0.980    27 H    0.979
                             2 O    0.897
     2   8 O    2.204 --     3 C    1.116     1 C    0.897     4 O    0.135
     3   6 C    3.851 --     4 O    1.657     2 O    1.116     5 C    0.998
     4   8 O    1.919 --     3 C    1.657     2 O    0.135
     5   6 C    3.963 --    24 C    1.494     6 N    1.187     3 C    0.998
     6   7 N    3.034 --     7 C    1.578     5 C    1.187
     7   6 C    3.930 --     6 N    1.578    20 N    1.165     8 C    0.976
     8   6 C    3.932 --    10 C    0.990     9 C    0.983     7 C    0.976
                            11 N    0.920
     9   6 C    3.988 --    30 H    0.985     8 C    0.983    31 H    0.981
                            29 H    0.977
    10   6 C    3.989 --     8 C    0.990    32 H    0.985    33 H    0.984
                            34 H    0.983
    11   7 N    3.344 --    12 C    1.241     8 C    0.920    35 H    0.895
                            13 O    0.172
    12   6 C    3.915 --    13 O    1.594    11 N    1.241    14 C    0.993
    13   8 O    1.910 --    12 C    1.594    11 N    0.172
    14   6 C    3.872 --    15 N    1.623    19 O    1.046    12 C    0.993
    15   7 N    3.000 --    14 C    1.623    16 N    1.199
    16   7 N    2.982 --    17 C    1.611    15 N    1.199
    17   6 C    3.868 --    16 N    1.611    19 O    1.072    18 C    1.032
    18   6 C    3.986 --    17 C    1.032    36 H    0.982    37 H    0.964
                            38 H    0.961
    19   8 O    2.315 --    17 C    1.072    14 C    1.046
    20   7 N    3.511 --     7 C    1.165    22 C    1.135    21 C    0.926
                            23 O    0.135
    21   6 C    3.918 --    41 H    0.977    40 H    0.975    39 H    0.974
                            20 N    0.926
    22   6 C    3.915 --    23 O    1.555    20 N    1.135    24 C    1.075
    23   8 O    1.899 --    22 C    1.555    20 N    0.135
    24   6 C    3.921 --     5 C    1.494    25 O    1.107    22 C    1.075
    25   8 O    2.085 --    24 C    1.107    42 H    0.805
    26   1 H    1.008 --     1 C    0.980
    27   1 H    1.007 --     1 C    0.979
    28   1 H    1.011 --     1 C    0.986
    29   1 H    1.011 --     9 C    0.977
    30   1 H    1.002 --     9 C    0.985
    31   1 H    1.001 --     9 C    0.981
    32   1 H    1.008 --    10 C    0.985
    33   1 H    1.011 --    10 C    0.984
    34   1 H    1.006 --    10 C    0.983
    35   1 H    0.939 --    11 N    0.895
    36   1 H    0.998 --    18 C    0.982
    37   1 H    0.996 --    18 C    0.964
    38   1 H    0.997 --    18 C    0.961
    39   1 H    1.005 --    21 C    0.974
    40   1 H    1.001 --    21 C    0.975
    41   1 H    1.009 --    21 C    0.977
    42   1 H    0.847 --    25 O    0.805
 ---------------------------------------------------------------------------

           -------------------------------------------------
          | TOTAL ENERGY              -83.012303617128 Eh   |
          | GRADIENT NORM               0.000573660695 Eh/α |
          | HOMO-LUMO GAP               2.896369600856 eV   |
           -------------------------------------------------

 * finished run on 2023/06/20 at 18:07:49.233
