   * xtb version 6.5.1 (579679a) compiled by 'ehlert@majestix' on 2022-07-11
          program call               : /lustre/hpc/kemi/ree/PhD/git/ReactivityQM/dep/xtb-6.5.1/bin/xtb --gfn 1 /lustre/hpc/kemi/ree/PhD/git/ReactivityQM/calculations/R01/reac02prodN03/conf18/R01_reac02prodN03_conf18_gfn1.xyz --opt --vfukui --chrg 1 --uhf 0 --alpb DMSO

   ID    Z sym.   atoms
    1    6 C      1, 3, 5, 7-10, 13, 15, 17
    2    8 O      2, 4, 14, 16
    3    7 N      6, 11, 12
    4    1 H      18-33

      * Solvation model:               ALPB
        Solvent                        DMSO
        Solvent mass                       7.8130E+01 g/mol
          :  Hamiltonian                  GFN1-xTB          :
 * total energy  :   -57.8025399 Eh     change       -0.2792433E-11 Eh
 * total energy  :   -57.8162573 Eh     change       -0.1371741E-01 Eh
 * total energy  :   -57.8223275 Eh     change       -0.6070197E-02 Eh
 * total energy  :   -57.8244020 Eh     change       -0.2074500E-02 Eh
 * total energy  :   -57.8272837 Eh     change       -0.2881735E-02 Eh
 * total energy  :   -57.8287000 Eh     change       -0.1416268E-02 Eh
 * total energy  :   -57.8311057 Eh     change       -0.2405701E-02 Eh
 * total energy  :   -57.8348783 Eh     change       -0.3772607E-02 Eh
 * total energy  :   -57.8381487 Eh     change       -0.3270402E-02 Eh
 * total energy  :   -57.8379805 Eh     change        0.1681444E-03 Eh
 * total energy  :   -57.8480488 Eh     change       -0.3770942E-04 Eh
 * total energy  :   -57.8480695 Eh     change       -0.2070508E-04 Eh
 * total energy  :   -57.8480804 Eh     change       -0.1084878E-04 Eh
 * total energy  :   -57.8480927 Eh     change       -0.1234149E-04 Eh
 * total energy  :   -57.8480994 Eh     change       -0.6702572E-05 Eh
 * total energy  :   -57.8481078 Eh     change       -0.8316906E-05 Eh
 * total energy  :   -57.8481162 Eh     change       -0.8456357E-05 Eh
 * total energy  :   -57.8481222 Eh     change       -0.5947023E-05 Eh
 * total energy  :   -57.8481269 Eh     change       -0.4715231E-05 Eh
   *** GEOMETRY OPTIMIZATION CONVERGED AFTER 34 ITERATIONS ***

 final structure:
================
33
 xtb: 6.5.1 (579679a)
C           -2.60442177214973        3.53417003691687        0.25572643280863
O           -1.65877470754116        2.45273938511679        0.15629417868872
C           -2.07526821084046        1.25483436236772       -0.02221846344907
O           -3.34910508633817        1.06461707135738       -0.11299995367769
C           -1.09215964160828        0.19906025636318       -0.11359568867252
N            0.20543142226482        0.61392671668776        0.03231544216541
C            1.16144202218304       -0.25430225466777       -0.04251613598843
C            2.59545607009811        0.23367789702569        0.08887372656171
C            3.08294660535301        0.62123056367019       -1.31677037812624
C            3.51277253479483       -0.81940264021886        0.71392107423465
N            2.60950976010855        1.42172587787308        0.92875168457663
N            0.90400844246819       -1.57230762620280       -0.27712890836189
C           -0.34737262788251       -2.12530520016305       -0.42847619112770
O           -0.48479050145440       -3.31754881470946       -0.62167635840866
C           -1.42770558316501       -1.12857397479419       -0.33456860819874
O           -2.70912809550621       -1.45543906268112       -0.46080151343538
C           -3.15347724711655       -2.80921255181362       -0.68703890990675
H           -2.01612048835962        4.42962308301258        0.44133517854407
H           -3.15838200445966        3.61604733010448       -0.67998699033836
H           -3.29301442781545        3.33874844575138        1.07820091511925
H            2.42249977465989        1.37531461027605       -1.74297408545114
H            4.09041144198962        1.02919838356053       -1.24625803797781
H            3.09148842495564       -0.25095364738973       -1.96817603340285
H            3.67313691680698       -1.65335232024810        0.03258572767414
H            4.47667471601520       -0.36081032324051        0.93271609948254
H            3.08405375622396       -1.19417501257480        1.64190657904344
H            2.31687669908918        1.16621451388196        1.86299560629472
H            1.92642259608051        2.07935760758438        0.56940670801735
H            1.66604434360482       -2.23461954812221       -0.34173176866930
H           -3.61496000879676        0.12825406954027       -0.24341048703004
H           -4.23806359495274       -2.74670538202054       -0.74962413037849
H           -2.85595775053586       -3.44555751219412        0.14711181007264
H           -2.74047577817401       -3.19047334004876       -1.62150352068205

          :  Hamiltonian                  GFN1-xTB          :
         :: total energy             -57.848126873684 Eh    ::
         :: gradient norm              0.000636807390 Eh/a0 ::
         :: HOMO-LUMO gap              1.176816915649 eV    ::
         :: SCC energy               -58.420383292031 Eh    ::
         :: -> Gsolv                  -0.093674402340 Eh    ::
         :: repulsion energy           0.590502108183 Eh    ::

    * Orbital Energies and Occupations

         #    Occupation            Energy/Eh            Energy/eV
      -------------------------------------------------------------
         1        2.0000           -0.9101829             -24.7673
       ...           ...                  ...                  ...
        35        2.0000           -0.5491901             -14.9442
        36        2.0000           -0.5423448             -14.7580
        37        2.0000           -0.5405876             -14.7101
        38        2.0000           -0.5244811             -14.2719
        39        2.0000           -0.5196335             -14.1399
        40        2.0000           -0.5141699             -13.9913
        41        2.0000           -0.5137098             -13.9788
        42        2.0000           -0.5038787             -13.7112
        43        2.0000           -0.4962676             -13.5041
        44        2.0000           -0.4845718             -13.1859
        45        2.0000           -0.4769734             -12.9791
        46        2.0000           -0.4573948             -12.4463
        47        2.0000           -0.4256326             -11.5821 (HOMO)
        48                         -0.3823854             -10.4052 (LUMO)
        49                         -0.3099740              -8.4348
        50                         -0.2884188              -7.8483
        51                         -0.1969490              -5.3593
        52                         -0.1647753              -4.4838
        53                         -0.1483146              -4.0358
        54                         -0.1453049              -3.9539
        55                         -0.1345855              -3.6623
        56                         -0.1320698              -3.5938
        57                         -0.1150604              -3.1310
        58                         -0.1007139              -2.7406
       ...                                ...                  ...
       100                          0.6845860              18.6285
      -------------------------------------------------------------
                  HL-Gap            0.0432472 Eh            1.1768 eV

Wiberg/Mayer (AO) data.
largest (>0.10) Wiberg bond orders for each atom

     #   Z sym  total        # sym  WBO       # sym  WBO       # sym  WBO
 ---------------------------------------------------------------------------
     1   6 C    3.821 --    18 H    0.982    20 H    0.972    19 H    0.972
                             2 O    0.853
     2   8 O    2.319 --     3 C    1.285     1 C    0.853
     3   6 C    3.811 --     2 O    1.285     4 O    1.249     5 C    1.119
     4   8 O    2.195 --     3 C    1.249    30 H    0.745
     5   6 C    3.960 --    15 C    1.409     6 N    1.174     3 C    1.119
     6   7 N    3.027 --     7 C    1.569     5 C    1.174
     7   6 C    3.904 --     6 N    1.569    12 N    1.173     8 C    0.969
     8   6 C    3.967 --    10 C    0.996    11 N    0.995     9 C    0.972
                             7 C    0.969
     9   6 C    3.991 --    23 H    0.986    21 H    0.985    22 H    0.982
                             8 C    0.972
    10   6 C    3.992 --     8 C    0.996    26 H    0.985    25 H    0.982
                            24 H    0.981
    11   7 N    2.957 --     8 C    0.995    27 H    0.942    28 H    0.939
    12   7 N    3.478 --     7 C    1.173    13 C    1.141    29 H    0.874
                            14 O    0.141
    13   6 C    3.915 --    14 O    1.608    12 N    1.141    15 C    1.041
    14   8 O    1.937 --    13 C    1.608    12 N    0.141
    15   6 C    3.906 --     5 C    1.409    16 O    1.133    13 C    1.041
    16   8 O    2.247 --    15 C    1.133    17 C    0.856
    17   6 C    3.830 --    31 H    0.983    32 H    0.975    33 H    0.974
                            16 O    0.856
    18   1 H    1.002 --     1 C    0.982
    19   1 H    0.997 --     1 C    0.972
    20   1 H    0.997 --     1 C    0.972
    21   1 H    1.002 --     9 C    0.985
    22   1 H    1.002 --     9 C    0.982
    23   1 H    1.001 --     9 C    0.986
    24   1 H    0.999 --    10 C    0.981
    25   1 H    1.002 --    10 C    0.982
    26   1 H    0.998 --    10 C    0.985
    27   1 H    0.958 --    11 N    0.942
    28   1 H    0.970 --    11 N    0.939
    29   1 H    0.922 --    12 N    0.874
    30   1 H    0.807 --     4 O    0.745
    31   1 H    1.005 --    17 C    0.983
    32   1 H    1.007 --    17 C    0.975
    33   1 H    1.008 --    17 C    0.974
 ---------------------------------------------------------------------------

           -------------------------------------------------
          | TOTAL ENERGY              -57.848126873684 Eh   |
          | GRADIENT NORM               0.000636807390 Eh/α |
          | HOMO-LUMO GAP               1.176816915649 eV   |
           -------------------------------------------------

 * finished run on 2023/06/20 at 15:05:08.271
