   * xtb version 6.5.1 (579679a) compiled by 'ehlert@majestix' on 2022-07-11
          program call               : /lustre/hpc/kemi/ree/PhD/git/ReactivityQM/dep/xtb-6.5.1/bin/xtb --gfn 1 /lustre/hpc/kemi/ree/PhD/git/ReactivityQM/calculations/RaltegravirCLI/reac02prodN04/conf02/RaltegravirCLI_reac02prodN04_conf02_gfn1.xyz --opt --vfukui --chrg 1 --uhf 0 --alpb DMSO

   ID    Z sym.   atoms
    1    6 C      1, 3-6, 9-11, 14-18, 20-22, 24
    2    7 N      2, 7, 8, 13
    3    8 O      12, 23, 25
    4    9 F      19
    5    1 H      26-47

      * Solvation model:               ALPB
        Solvent                        DMSO
        Solvent mass                       7.8130E+01 g/mol
          :  Hamiltonian                  GFN1-xTB          :
 * total energy  :   -79.4963382 Eh     change       -0.2539480E-10 Eh
 * total energy  :   -79.5113046 Eh     change       -0.1496637E-01 Eh
 * total energy  :   -79.5161239 Eh     change       -0.4819346E-02 Eh
 * total energy  :   -79.5172234 Eh     change       -0.1099505E-02 Eh
 * total energy  :   -79.5182378 Eh     change       -0.1014432E-02 Eh
 * total energy  :   -79.5189108 Eh     change       -0.6729610E-03 Eh
 * total energy  :   -79.5196293 Eh     change       -0.7185473E-03 Eh
 * total energy  :   -79.5201999 Eh     change       -0.5705250E-03 Eh
 * total energy  :   -79.5205877 Eh     change       -0.3878812E-03 Eh
 * total energy  :   -79.5207764 Eh     change       -0.1886813E-03 Eh
 * total energy  :   -79.5237095 Eh     change       -0.5836070E-04 Eh
 * total energy  :   -79.5237580 Eh     change       -0.4855714E-04 Eh
 * total energy  :   -79.5237851 Eh     change       -0.2707719E-04 Eh
 * total energy  :   -79.5237735 Eh     change        0.1166500E-04 Eh
 * total energy  :   -79.5238301 Eh     change       -0.5667534E-04 Eh
 * total energy  :   -79.5238514 Eh     change       -0.2127025E-04 Eh
 * total energy  :   -79.5238628 Eh     change       -0.1139200E-04 Eh
 * total energy  :   -79.5238694 Eh     change       -0.6591945E-05 Eh
 * total energy  :   -79.5238741 Eh     change       -0.4730639E-05 Eh
   *** GEOMETRY OPTIMIZATION CONVERGED AFTER 72 ITERATIONS ***

 final structure:
================
47
 xtb: 6.5.1 (579679a)
C           -3.56660787904144        1.30739648313786       -2.35943768731940
N           -2.47045203750432        1.11721600476658       -1.39786542244839
C           -2.41064410968537        0.11687616355645       -0.49200410700011
C           -3.67948108797677       -0.61894747799729       -0.03459925003622
C           -4.89576297927147        0.33041886688550        0.02868410892254
C           -3.98967469463366       -1.83549486842520       -0.91774835880088
N           -3.44479662158670       -1.08204959773363        1.32831589870185
N           -1.23073614850358       -0.13114284564875        0.08585559976270
C           -0.93884560931490       -1.43682718166108        0.70848032741180
C           -0.15589627451669        0.75159203190020        0.02531391922500
C            1.01229634702558        0.54142837999844        0.97018474550981
O            0.85367487943952        0.06389415851067        2.08214965411157
N            2.18678491125948        0.96007431755402        0.48977597200450
C            3.40072550000942        0.91629627181204        1.29739825995560
C            4.45955970181338        0.04324221273589        0.66534099654791
C            5.80328377310102        0.29772948384826        0.93422866673918
C            6.79599364370241       -0.50334415137957        0.38878507998750
C            6.41742756559262       -1.55409045778080       -0.42802068854217
F            7.37109414096707       -2.33127748196658       -0.96212199946402
C            5.09387882859005       -1.83236933551448       -0.71730255792787
C            4.11352352239161       -1.02412244524342       -0.15894249778344
C           -0.27433584179785        1.85539468028346       -0.75738698539228
O            0.67306157990337        2.79224480821773       -0.84806198582776
C           -1.44472220807743        2.04984812803904       -1.59102320040388
O           -1.53675189803249        2.95227393209080       -2.39851122390151
H           -3.11008345700203        1.60093836663627       -3.30493018280376
H           -4.22113506116491        2.10755614869167       -2.01988119261214
H           -4.11245406508751        0.38378163312555       -2.49807808458638
H           -5.58133076999093       -0.06353311627590        0.77785918470615
H           -4.59347189904493        1.33032542484002        0.33260893004633
H           -5.43800594655024        0.38042596730290       -0.91102232032879
H           -4.08433604951990       -1.55024163760993       -1.96279837705544
H           -4.93043358414006       -2.27397608929535       -0.58892914064218
H           -3.20710987892919       -2.58674379584407       -0.83228320326487
H           -4.16607057169705       -1.74638600020510        1.57207593255546
H           -3.51431670486503       -0.29849756167407        1.96475297184279
H           -1.04972690452225       -1.37150045686524        1.78819599217909
H           -1.61004489205348       -2.18615622067256        0.30882577823329
H            0.08580551498413       -1.69979983763415        0.45235293921030
H            2.25429229496189        1.36525509045066       -0.42829387029893
H            3.12718637636859        0.52509064630057        2.28335821867359
H            3.77418867060771        1.93737883272758        1.42093847366483
H            6.07733367990794        1.12947111441877        1.57267677163140
H            7.84279403141418       -0.31448382862964        0.58876581272292
H            4.83595079791010       -2.66135179588871       -1.36318203359437
H            3.07070896132192       -1.22270248130808       -0.37303365072079
H            0.40766345322665        3.46888851745110       -1.49884821359057

          :  Hamiltonian                  GFN1-xTB          :
         :: total energy             -79.523874121533 Eh    ::
         :: gradient norm              0.000656348654 Eh/a0 ::
         :: HOMO-LUMO gap              2.315990927062 eV    ::
         :: SCC energy               -80.424907318809 Eh    ::
         :: -> Gsolv                  -0.107743211186 Eh    ::
         :: repulsion energy           0.932085428890 Eh    ::

    * Orbital Energies and Occupations

         #    Occupation            Energy/Eh            Energy/eV
      -------------------------------------------------------------
         1        2.0000           -0.8793059             -23.9271
       ...           ...                  ...                  ...
        55        2.0000           -0.5212925             -14.1851
        56        2.0000           -0.5159858             -14.0407
        57        2.0000           -0.5144710             -13.9995
        58        2.0000           -0.5090592             -13.8522
        59        2.0000           -0.5063074             -13.7773
        60        2.0000           -0.5054587             -13.7542
        61        2.0000           -0.4826544             -13.1337
        62        2.0000           -0.4788371             -13.0298
        63        2.0000           -0.4704239             -12.8009
        64        2.0000           -0.4624719             -12.5845
        65        2.0000           -0.4590380             -12.4911
        66        2.0000           -0.4423091             -12.0358
        67        2.0000           -0.4376186             -11.9082 (HOMO)
        68                         -0.3525075              -9.5922 (LUMO)
        69                         -0.3500877              -9.5264
        70                         -0.2810496              -7.6477
        71                         -0.2735101              -7.4426
        72                         -0.2674358              -7.2773
        73                         -0.2088974              -5.6844
        74                         -0.1622302              -4.4145
        75                         -0.1525817              -4.1520
        76                         -0.1521202              -4.1394
        77                         -0.1459915              -3.9726
        78                         -0.1368725              -3.7245
       ...                                ...                  ...
       144                          0.6966484              18.9568
      -------------------------------------------------------------
                  HL-Gap            0.0851111 Eh            2.3160 eV

Wiberg/Mayer (AO) data.
largest (>0.10) Wiberg bond orders for each atom

     #   Z sym  total        # sym  WBO       # sym  WBO       # sym  WBO
 ---------------------------------------------------------------------------
     1   6 C    3.896 --    28 H    0.978    27 H    0.972    26 H    0.967
                             2 N    0.910
     2   7 N    3.528 --     3 C    1.279    24 C    1.073     1 C    0.910
                            25 O    0.119
     3   6 C    3.886 --     8 N    1.368     2 N    1.279     4 C    0.968
     4   6 C    3.954 --     7 N    0.994     6 C    0.979     5 C    0.977
                             3 C    0.968
     5   6 C    3.987 --    30 H    0.984    31 H    0.979    29 H    0.978
                             4 C    0.977
     6   6 C    3.987 --    33 H    0.979     4 C    0.979    32 H    0.978
                            34 H    0.976
     7   7 N    2.976 --     4 C    0.994    36 H    0.936    35 H    0.929
     8   7 N    3.575 --     3 C    1.368    10 C    1.099     9 C    0.901
     9   6 C    3.891 --    38 H    0.977    39 H    0.975    37 H    0.966
                             8 N    0.901
    10   6 C    3.922 --    22 C    1.537     8 N    1.099    11 C    0.959
    11   6 C    3.919 --    12 O    1.576    13 N    1.308    10 C    0.959
    12   8 O    1.913 --    11 C    1.576    13 N    0.185
    13   7 N    3.389 --    11 C    1.308    14 C    0.935    40 H    0.891
                            12 O    0.185
    14   6 C    3.934 --    15 C    0.999    42 H    0.967    41 H    0.958
                            13 N    0.935
    15   6 C    3.988 --    21 C    1.418    16 C    1.413    14 C    0.999
    16   6 C    3.993 --    17 C    1.447    15 C    1.413    43 H    0.971
                            20 C    0.111
    17   6 C    3.991 --    16 C    1.447    18 C    1.398    44 H    0.969
                            21 C    0.110
    18   6 C    3.863 --    20 C    1.401    17 C    1.398    19 F    0.929
    19   9 F    1.058 --    18 C    0.929
    20   6 C    3.992 --    21 C    1.442    18 C    1.401    45 H    0.969
                            16 C    0.111
    21   6 C    3.995 --    20 C    1.442    15 C    1.418    46 H    0.971
                            17 C    0.110
    22   6 C    3.927 --    10 C    1.537    23 O    1.108    24 C    1.066
    23   8 O    2.088 --    22 C    1.108    47 H    0.789
    24   6 C    3.908 --    25 O    1.622     2 N    1.073    22 C    1.066
    25   8 O    1.953 --    24 C    1.622     2 N    0.119
    26   1 H    0.999 --     1 C    0.967
    27   1 H    0.997 --     1 C    0.972
    28   1 H    1.004 --     1 C    0.978
    29   1 H    0.998 --     5 C    0.978
    30   1 H    0.997 --     5 C    0.984
    31   1 H    1.000 --     5 C    0.979
    32   1 H    1.001 --     6 C    0.978
    33   1 H    0.995 --     6 C    0.979
    34   1 H    1.001 --     6 C    0.976
    35   1 H    0.944 --     7 N    0.929
    36   1 H    0.948 --     7 N    0.936
    37   1 H    1.023 --     9 C    0.966
    38   1 H    1.017 --     9 C    0.977
    39   1 H    1.001 --     9 C    0.975
    40   1 H    0.939 --    13 N    0.891
    41   1 H    1.008 --    14 C    0.958
    42   1 H    1.001 --    14 C    0.967
    43   1 H    0.998 --    16 C    0.971
    44   1 H    0.997 --    17 C    0.969
    45   1 H    0.997 --    20 C    0.969
    46   1 H    1.003 --    21 C    0.971
    47   1 H    0.824 --    23 O    0.789
 ---------------------------------------------------------------------------

           -------------------------------------------------
          | TOTAL ENERGY              -79.523874121533 Eh   |
          | GRADIENT NORM               0.000656348654 Eh/α |
          | HOMO-LUMO GAP               2.315990927062 eV   |
           -------------------------------------------------

 * finished run on 2023/06/20 at 15:20:03.993
