   * xtb version 6.5.1 (579679a) compiled by 'ehlert@majestix' on 2022-07-11
          program call               : /lustre/hpc/kemi/ree/PhD/git/ReactivityQM/dep/xtb-6.5.1/bin/xtb --gfn 1 /lustre/hpc/kemi/ree/PhD/git/ReactivityQM/calculations/R02oxygendeprot/reac01prodN06/conf07/R02oxygendeprot_reac01prodN06_conf07_gfn1.xyz --opt --vfukui --chrg 0 --uhf 0 --alpb DMSO

   ID    Z sym.   atoms
    1    6 C      1, 3, 5, 7-10, 12, 14, 16, 17, 20, 22, 24
    2    8 O      2, 4, 13, 15, 23, 25
    3    7 N      6, 11, 18, 19, 21
    4    1 H      26-42

      * Solvation model:               ALPB
        Solvent                        DMSO
        Solvent mass                       7.8130E+01 g/mol
          :  Hamiltonian                  GFN1-xTB          :
 * total energy  :   -82.9562768 Eh     change       -0.5546212E-09 Eh
 * total energy  :   -82.9705664 Eh     change       -0.1428958E-01 Eh
 * total energy  :   -82.9770857 Eh     change       -0.6519307E-02 Eh
 * total energy  :   -82.9784416 Eh     change       -0.1355900E-02 Eh
 * total energy  :   -82.9796118 Eh     change       -0.1170261E-02 Eh
 * total energy  :   -82.9801500 Eh     change       -0.5381633E-03 Eh
 * total energy  :   -82.9805728 Eh     change       -0.4227874E-03 Eh
 * total energy  :   -82.9808774 Eh     change       -0.3046398E-03 Eh
 * total energy  :   -82.9810761 Eh     change       -0.1986708E-03 Eh
 * total energy  :   -82.9811995 Eh     change       -0.1234032E-03 Eh
 * total energy  :   -82.9815088 Eh     change       -0.5689008E-04 Eh
 * total energy  :   -82.9815576 Eh     change       -0.4878610E-04 Eh
 * total energy  :   -82.9815948 Eh     change       -0.3715399E-04 Eh
 * total energy  :   -82.9816252 Eh     change       -0.3040595E-04 Eh
 * total energy  :   -82.9816520 Eh     change       -0.2685260E-04 Eh
 * total energy  :   -82.9816688 Eh     change       -0.1683877E-04 Eh
 * total energy  :   -82.9816783 Eh     change       -0.9443495E-05 Eh
 * total energy  :   -82.9816841 Eh     change       -0.5837282E-05 Eh
 * total energy  :   -82.9816877 Eh     change       -0.3579261E-05 Eh
   *** GEOMETRY OPTIMIZATION CONVERGED AFTER 22 ITERATIONS ***

 final structure:
================
42
 xtb: 6.5.1 (579679a)
C            5.99204892620750        0.99121183774237        1.93308758289008
O            4.80328239310399        0.69919592081431        1.20875605444395
C            4.80012009207782        1.07598196107836       -0.10293266207075
O            5.76960819272317        1.63044687274070       -0.59162742216928
C            3.55421761368919        0.73104036045018       -0.77599110550466
N            2.61234902681665        0.10627533472325        0.01423857393964
C            1.48398354787576       -0.25088958221766       -0.47445381874027
C            0.48042848650892       -0.98939396181813        0.38257437113336
C            0.82361840967304       -0.81313342796351        1.86333952739091
C            0.47059042959843       -2.47102368846888       -0.01986506473016
N           -0.85276023552580       -0.40297993908952        0.11923101728370
C           -1.97658262209322       -0.88480608721047        0.64894446667892
O           -2.10092055687325       -1.82330631586688        1.41627527691938
C           -3.19461094972733       -0.14061132615291        0.19413002793618
O           -3.17560396194317        0.90411914662571       -0.62405781477696
C           -4.46058401973839        1.25994976666856       -0.80297057930196
C           -4.81536890921096        2.39947599401482       -1.66571184536933
N           -5.25989957217735        0.48125183183658       -0.13432795736740
N           -4.45276003753588       -0.39863070392519        0.48698190716100
C           -5.02254796705648       -1.42230569674732        1.33685348712488
N            1.16404896978857       -0.05475160818365       -1.80342827499710
C            2.00094100748583        0.56379623607357       -2.70459782006428
O            1.63990749053241        0.70763231316437       -3.86667465513382
C            3.33750771223769        1.01421913995309       -2.15339273580092
O            4.13566793630907        1.58006462248793       -2.91607824288559
H            6.19918288958029        2.06606550412208        1.91999932438164
H            5.82796767554964        0.65945153839405        2.95734036883397
H            6.84716786967887        0.45898236119469        1.50374873919897
H            0.75757183791448        0.23926210963089        2.13544217818426
H            1.84316606359411       -1.15768077702716        2.03366126100352
H            0.13957212016586       -1.38829279676359        2.48314195133387
H           -0.18871079710116       -3.04294840666673        0.62896656384545
H            0.13217882125064       -2.57380891351827       -1.04914792229803
H            1.48154781089593       -2.86781397081678        0.06474714685867
H           -0.91341415443375        0.41029782572770       -0.47278483278673
H           -4.32761660006803        3.30364971331378       -1.29954059033476
H           -5.89401568948171        2.53552913020886       -1.67030359098032
H           -4.46017683690817        2.21633769306027       -2.68069420218486
H           -4.41702200617488       -2.32267533850084        1.25646064861155
H           -5.01578088566422       -1.06622731073097        2.36694634363675
H           -6.04284973193171       -1.60166455451473        1.00808938025932
H            0.27455421039861       -0.36129380783833       -2.15438006155554

          :  Hamiltonian                  GFN1-xTB          :
         :: total energy             -82.981687709333 Eh    ::
         :: gradient norm              0.000528983638 Eh/a0 ::
         :: HOMO-LUMO gap              0.183099154931 eV    ::
         :: SCC energy               -83.770151776498 Eh    ::
         :: -> Gsolv                  -0.115552299257 Eh    ::
         :: repulsion energy           0.813608703881 Eh    ::

    * Orbital Energies and Occupations

         #    Occupation            Energy/Eh            Energy/eV
      -------------------------------------------------------------
         1        2.0000           -0.9287735             -25.2732
       ...           ...                  ...                  ...
        55        2.0000           -0.5088373             -13.8462
        56        2.0000           -0.5051417             -13.7456
        57        2.0000           -0.5015847             -13.6488
        58        2.0000           -0.4914881             -13.3741
        59        2.0000           -0.4850504             -13.1989
        60        2.0000           -0.4713105             -12.8250
        61        2.0000           -0.4696948             -12.7810
        62        2.0000           -0.4649151             -12.6510
        63        2.0000           -0.4496585             -12.2358
        64        2.0000           -0.4438708             -12.0783
        65        2.0000           -0.4270733             -11.6213
        66        2.0000           -0.3861723             -10.5083
        67        1.9437           -0.3743961             -10.1878 (HOMO)
        68        0.0563           -0.3676673             -10.0047 (LUMO)
        69                         -0.3164348              -8.6106
        70                         -0.2777233              -7.5572
        71                         -0.2506464              -6.8204
        72                         -0.2455712              -6.6823
        73                         -0.2038083              -5.5459
        74                         -0.1657783              -4.5111
        75                         -0.1632107              -4.4412
        76                         -0.1282955              -3.4911
        77                         -0.1253841              -3.4119
        78                         -0.1243868              -3.3847
       ...                                ...                  ...
       134                          0.7645825              20.8053
      -------------------------------------------------------------
                  HL-Gap            0.0067288 Eh            0.1831 eV

Wiberg/Mayer (AO) data.
largest (>0.10) Wiberg bond orders for each atom

     #   Z sym  total        # sym  WBO       # sym  WBO       # sym  WBO
 ---------------------------------------------------------------------------
     1   6 C    3.895 --    27 H    0.987    28 H    0.980    26 H    0.980
                             2 O    0.923
     2   8 O    2.142 --     3 C    1.035     1 C    0.923     4 O    0.112
     3   6 C    3.848 --     4 O    1.603     5 C    1.103     2 O    1.035
     4   8 O    1.872 --     3 C    1.603     2 O    0.112
     5   6 C    3.884 --    24 C    1.254     6 N    1.168     3 C    1.103
                            25 O    0.121
     6   7 N    3.030 --     7 C    1.623     5 C    1.168
     7   6 C    3.918 --     6 N    1.623    21 N    1.094     8 C    0.980
     8   6 C    3.911 --     9 C    0.991     7 C    0.980    10 C    0.980
                            11 N    0.892
     9   6 C    3.987 --     8 C    0.991    29 H    0.985    31 H    0.984
                            30 H    0.981
    10   6 C    3.985 --    33 H    0.985    34 H    0.984    32 H    0.980
                             8 C    0.980
    11   7 N    3.391 --    12 C    1.314     8 C    0.892    35 H    0.888
                            13 O    0.199
    12   6 C    3.920 --    13 O    1.567    11 N    1.314    14 C    0.965
    13   8 O    1.921 --    12 C    1.567    11 N    0.199
    14   6 C    3.802 --    19 N    1.430    15 O    1.116    12 C    0.965
    15   8 O    2.354 --    14 C    1.116    16 C    1.067
    16   6 C    3.839 --    18 N    1.580    15 O    1.067    17 C    1.042
    17   6 C    3.971 --    16 C    1.042    37 H    0.978    36 H    0.951
                            38 H    0.950
    18   7 N    2.962 --    16 C    1.580    19 N    1.152
    19   7 N    3.625 --    14 C    1.430    18 N    1.152    20 C    0.911
    20   6 C    3.883 --    41 H    0.977    39 H    0.969    40 H    0.960
                            19 N    0.911
    21   7 N    3.415 --    22 C    1.145     7 C    1.094    42 H    0.896
                            23 O    0.133
    22   6 C    3.870 --    23 O    1.596    21 N    1.145    24 C    0.963
    23   8 O    1.867 --    22 C    1.596    21 N    0.133
    24   6 C    3.934 --    25 O    1.540     5 C    1.254    22 C    0.963
    25   8 O    1.827 --    24 C    1.540     5 C    0.121
    26   1 H    1.013 --     1 C    0.980
    27   1 H    1.015 --     1 C    0.987
    28   1 H    1.012 --     1 C    0.980
    29   1 H    1.005 --     9 C    0.985
    30   1 H    1.013 --     9 C    0.981
    31   1 H    1.006 --     9 C    0.984
    32   1 H    1.007 --    10 C    0.980
    33   1 H    1.001 --    10 C    0.985
    34   1 H    1.002 --    10 C    0.984
    35   1 H    0.931 --    11 N    0.888
    36   1 H    0.989 --    17 C    0.951
    37   1 H    0.991 --    17 C    0.978
    38   1 H    0.989 --    17 C    0.950
    39   1 H    1.004 --    20 C    0.969
    40   1 H    0.991 --    20 C    0.960
    41   1 H    0.994 --    20 C    0.977
    42   1 H    0.942 --    21 N    0.896
 ---------------------------------------------------------------------------

           -------------------------------------------------
          | TOTAL ENERGY              -82.981687709333 Eh   |
          | GRADIENT NORM               0.000528983638 Eh/α |
          | HOMO-LUMO GAP               0.183099154931 eV   |
           -------------------------------------------------

 * finished run on 2023/06/21 at 17:21:44.101
