   * xtb version 6.5.1 (579679a) compiled by 'ehlert@majestix' on 2022-07-11
          program call               : /lustre/hpc/kemi/ree/PhD/git/ReactivityQM/dep/xtb-6.5.1/bin/xtb --gfn 1 /lustre/hpc/kemi/ree/PhD/git/ReactivityQM/calculations/R02deprot/reac01prodE07/conf05/R02deprot_reac01prodE07_conf05_gfn1.xyz --opt --vfukui --chrg -2 --uhf 0 --alpb DMSO

   ID    Z sym.   atoms
    1    6 C      1, 3, 5, 7-10, 12, 14, 15, 18, 19, 22, 24
    2    8 O      2, 4, 13, 20, 23, 25
    3    7 N      6, 11, 16, 17, 21
    4    1 H      26-42

      * Solvation model:               ALPB
        Solvent                        DMSO
        Solvent mass                       7.8130E+01 g/mol
          :  Hamiltonian                  GFN1-xTB          :
 * total energy  :   -83.5678978 Eh     change       -0.6169358E-09 Eh
 * total energy  :   -83.5814703 Eh     change       -0.1357252E-01 Eh
 * total energy  :   -83.5870719 Eh     change       -0.5601531E-02 Eh
 * total energy  :   -83.5885651 Eh     change       -0.1493226E-02 Eh
 * total energy  :   -83.5899739 Eh     change       -0.1408817E-02 Eh
 * total energy  :   -83.5906494 Eh     change       -0.6755029E-03 Eh
 * total energy  :   -83.5913029 Eh     change       -0.6534832E-03 Eh
 * total energy  :   -83.5916923 Eh     change       -0.3893749E-03 Eh
 * total energy  :   -83.5919711 Eh     change       -0.2788469E-03 Eh
 * total energy  :   -83.5922092 Eh     change       -0.2381082E-03 Eh
 * total energy  :   -83.5997088 Eh     change       -0.1013892E-04 Eh
 * total energy  :   -83.5997177 Eh     change       -0.8869541E-05 Eh
 * total energy  :   -83.5997254 Eh     change       -0.7779434E-05 Eh
 * total energy  :   -83.5997337 Eh     change       -0.8254648E-05 Eh
 * total energy  :   -83.5997421 Eh     change       -0.8387876E-05 Eh
 * total energy  :   -83.5997501 Eh     change       -0.7974115E-05 Eh
 * total energy  :   -83.5997579 Eh     change       -0.7860354E-05 Eh
 * total energy  :   -83.5997647 Eh     change       -0.6817133E-05 Eh
 * total energy  :   -83.5997682 Eh     change       -0.3441523E-05 Eh
   *** GEOMETRY OPTIMIZATION CONVERGED AFTER 62 ITERATIONS ***

 final structure:
================
42
 xtb: 6.5.1 (579679a)
C           -6.47397508873395        1.82363221516748        0.92400925747397
O           -5.33757516075233        1.74248787504375        0.07343658388196
C           -4.33942545358234        0.93456325522595        0.49505687161781
O           -4.42910506714229        0.31367282515423        1.54113763524169
C           -3.17747390213506        0.89444626259423       -0.41221989806121
N           -2.14237452406540        0.11227502062292        0.02427603632245
C           -1.06282395304853        0.03146185960021       -0.73062774533435
C            0.06155879861128       -0.83842251646789       -0.17135861620313
C           -0.51889341837331       -2.20765138093561        0.21251065726375
C            0.62238441820568       -0.13263682574111        1.07995943002924
N            1.08918581656247       -1.01804317023036       -1.20893715305781
C            2.33595457328903       -1.57945492303275       -0.76545945169626
O            2.41355031343918       -2.99461363454198       -0.90661642219741
C            2.96889055207537       -3.66422604998530        0.20671245613681
C            3.47178995210608       -0.83877435348124       -0.60325045687623
N            4.74269575831717       -1.27480860677529       -0.37734525272840
N            5.50046145300528       -0.13782731019828       -0.17408863770483
C            4.72797331485356        0.88409897904236       -0.27620933680116
C            5.10178890776648        2.31723751273907       -0.13156102466731
O            3.41888107881658        0.55163509461067       -0.54833942991891
N           -0.85869342072430        0.64127366234456       -1.89883910814381
C           -1.83890101953516        1.42251951493449       -2.40230195089876
O           -1.76491745461335        2.03239916684861       -3.49459743850058
C           -3.06132515539472        1.55280553218909       -1.61177241878921
O           -4.01289671280216        2.34937256181451       -2.16420814148296
H           -7.17547891065713        2.51116458313757        0.45454607695007
H           -6.93889131264778        0.84013994659439        1.04071687316950
H           -6.18965299921809        2.19952113503585        1.91141330668141
H           -0.83853624777933       -2.73920363120608       -0.68508674674071
H            0.22649811069370       -2.81205575426647        0.72789280921373
H           -1.37807984544098       -2.07596843396671        0.87072232146047
H           -0.18356067116664        0.04644551703319        1.79149626877970
H            1.06928395999028        0.82229737262523        0.80219903471584
H            1.38508181475798       -0.75178241371584        1.55363170482700
H            1.26393070336251       -0.10155693034255       -1.62960222640375
H            2.44516661960880       -3.40823114368419        1.14018441422691
H            4.03554225035627       -3.42030265862111        0.33167601953619
H            2.86944517520634       -4.73870341613818        0.02955313893130
H            6.16648852740338        2.38868123452407        0.08199341338353
H            4.88546739137503        2.87215562422034       -1.04656062984294
H            4.54542641284592        2.78357170659454        0.68346479692372
H           -3.62486158483545        2.66640669564168       -3.00847802071178

          :  Hamiltonian                  GFN1-xTB          :
         :: total energy             -83.599768169738 Eh    ::
         :: gradient norm              0.000494749538 Eh/a0 ::
         :: HOMO-LUMO gap              0.196975726018 eV    ::
         :: SCC energy               -84.323941187689 Eh    ::
         :: -> Gsolv                  -0.262581446148 Eh    ::
         :: repulsion energy           0.750012982484 Eh    ::

    * Orbital Energies and Occupations

         #    Occupation            Energy/Eh            Energy/eV
      -------------------------------------------------------------
         1        2.0000           -0.8054583             -21.9176
       ...           ...                  ...                  ...
        56        2.0000           -0.4379958             -11.9185
        57        2.0000           -0.4209519             -11.4547
        58        2.0000           -0.4195209             -11.4157
        59        2.0000           -0.4116483             -11.2015
        60        2.0000           -0.4033804             -10.9765
        61        2.0000           -0.3914258             -10.6512
        62        2.0000           -0.3851715             -10.4810
        63        2.0000           -0.3757751             -10.2254
        64        2.0000           -0.3647898              -9.9264
        65        2.0000           -0.3577153              -9.7339
        66        2.0000           -0.3564643              -9.6999
        67        2.0000           -0.3540999              -9.6355
        68        1.9567           -0.2729908              -7.4285 (HOMO)
        69        0.0433           -0.2657521              -7.2315 (LUMO)
        70                         -0.2105718              -5.7300
        71                         -0.1781869              -4.8487
        72                         -0.1770895              -4.8189
        73                         -0.1323583              -3.6017
        74                         -0.1239195              -3.3720
        75                         -0.1114587              -3.0329
        76                         -0.1013852              -2.7588
        77                         -0.0910732              -2.4782
        78                         -0.0861377              -2.3439
        79                         -0.0837185              -2.2781
       ...                                ...                  ...
       134                          0.7413500              20.1732
      -------------------------------------------------------------
                  HL-Gap            0.0072387 Eh            0.1970 eV

Wiberg/Mayer (AO) data.
largest (>0.10) Wiberg bond orders for each atom

     #   Z sym  total        # sym  WBO       # sym  WBO       # sym  WBO
 ---------------------------------------------------------------------------
     1   6 C    3.894 --    26 H    0.987    27 H    0.980    28 H    0.980
                             2 O    0.919
     2   8 O    2.167 --     3 C    1.064     1 C    0.919     4 O    0.118
     3   6 C    3.813 --     4 O    1.615     2 O    1.064     5 C    1.042
     4   8 O    1.871 --     3 C    1.615     2 O    0.118
     5   6 C    3.957 --    24 C    1.460     6 N    1.207     3 C    1.042
     6   7 N    2.988 --     7 C    1.453     5 C    1.207
     7   6 C    3.950 --     6 N    1.453    21 N    1.363     8 C    0.973
     8   6 C    3.969 --     9 C    0.990    10 C    0.976     7 C    0.973
                            11 N    0.963
     9   6 C    3.997 --     8 C    0.990    29 H    0.986    31 H    0.985
                            30 H    0.983
    10   6 C    3.996 --    32 H    0.986    33 H    0.985    34 H    0.984
                             8 C    0.976
    11   7 N    3.017 --    12 C    0.982     8 C    0.963    35 H    0.935
    12   6 C    3.698 --    15 C    1.496    11 N    0.982    13 O    0.905
                            16 N    0.138
    13   8 O    1.997 --    14 C    0.960    12 C    0.905
    14   6 C    3.932 --    38 H    0.986    36 H    0.977    37 H    0.975
                            13 O    0.960
    15   6 C    3.862 --    12 C    1.496    16 N    1.262    20 O    0.953
    16   7 N    2.795 --    15 C    1.262    17 N    1.151    12 C    0.138
                            18 C    0.122
    17   7 N    2.986 --    18 C    1.673    16 N    1.151
    18   6 C    3.878 --    17 N    1.673    19 C    1.018    20 O    0.991
                            16 N    0.122
    19   6 C    3.996 --    18 C    1.018    39 H    0.987    40 H    0.976
                            41 H    0.976
    20   8 O    2.175 --    18 C    0.991    15 C    0.953
    21   7 N    2.983 --     7 C    1.363    22 C    1.261    23 O    0.123
    22   6 C    3.930 --    23 O    1.444    21 N    1.261    24 C    1.088
    23   8 O    1.781 --    22 C    1.444    21 N    0.123
    24   6 C    3.887 --     5 C    1.460    22 C    1.088    25 O    1.055
    25   8 O    2.030 --    24 C    1.055    42 H    0.819
    26   1 H    1.015 --     1 C    0.987
    27   1 H    1.012 --     1 C    0.980
    28   1 H    1.012 --     1 C    0.980
    29   1 H    1.016 --     9 C    0.986
    30   1 H    1.012 --     9 C    0.983
    31   1 H    1.023 --     9 C    0.985
    32   1 H    1.016 --    10 C    0.986
    33   1 H    1.015 --    10 C    0.985
    34   1 H    1.019 --    10 C    0.984
    35   1 H    0.998 --    11 N    0.935
    36   1 H    1.026 --    14 C    0.977
    37   1 H    1.048 --    14 C    0.975
    38   1 H    1.023 --    14 C    0.986
    39   1 H    1.008 --    19 C    0.987
    40   1 H    1.007 --    19 C    0.976
    41   1 H    1.007 --    19 C    0.976
    42   1 H    0.884 --    25 O    0.819
 ---------------------------------------------------------------------------

           -------------------------------------------------
          | TOTAL ENERGY              -83.599768169738 Eh   |
          | GRADIENT NORM               0.000494749538 Eh/α |
          | HOMO-LUMO GAP               0.196975726018 eV   |
           -------------------------------------------------

 * finished run on 2023/06/20 at 17:49:07.605
