   * xtb version 6.5.1 (579679a) compiled by 'ehlert@majestix' on 2022-07-11
          program call               : /lustre/hpc/kemi/ree/PhD/git/ReactivityQM/dep/xtb-6.5.1/bin/xtb --gfn 1 /lustre/hpc/kemi/ree/PhD/git/ReactivityQM/calculations/R02/reac01prodN05/conf18/R02_reac01prodN05_conf18_gfn1.xyz --opt --vfukui --chrg 1 --uhf 0 --alpb DMSO

   ID    Z sym.   atoms
    1    6 C      1, 3, 5, 6, 8, 11-14, 16, 18, 21, 22, 25
    2    8 O      2, 4, 7, 9, 17, 23
    3    7 N      10, 15, 19, 20, 24
    4    1 H      26-43

      * Solvation model:               ALPB
        Solvent                        DMSO
        Solvent mass                       7.8130E+01 g/mol
          :  Hamiltonian                  GFN1-xTB          :
 * total energy  :   -83.1327013 Eh     change       -0.1695355E-10 Eh
 * total energy  :   -83.1528554 Eh     change       -0.2015415E-01 Eh
 * total energy  :   -83.1606087 Eh     change       -0.7753277E-02 Eh
 * total energy  :   -83.1625347 Eh     change       -0.1925968E-02 Eh
 * total energy  :   -83.1635494 Eh     change       -0.1014709E-02 Eh
 * total energy  :   -83.1639637 Eh     change       -0.4143127E-03 Eh
 * total energy  :   -83.1642021 Eh     change       -0.2384425E-03 Eh
 * total energy  :   -83.1643530 Eh     change       -0.1508437E-03 Eh
 * total energy  :   -83.1644935 Eh     change       -0.1405121E-03 Eh
 * total energy  :   -83.1646707 Eh     change       -0.1772115E-03 Eh
 * total energy  :   -83.1662037 Eh     change       -0.2606707E-04 Eh
 * total energy  :   -83.1662234 Eh     change       -0.1969437E-04 Eh
 * total energy  :   -83.1662423 Eh     change       -0.1891202E-04 Eh
 * total energy  :   -83.1662526 Eh     change       -0.1026411E-04 Eh
 * total energy  :   -83.1662578 Eh     change       -0.5197833E-05 Eh
 * total energy  :   -83.1662232 Eh     change        0.3463566E-04 Eh
 * total energy  :   -83.1662628 Eh     change       -0.3959582E-04 Eh
 * total energy  :   -83.1662693 Eh     change       -0.6545174E-05 Eh
 * total energy  :   -83.1662729 Eh     change       -0.3630422E-05 Eh
   *** GEOMETRY OPTIMIZATION CONVERGED AFTER 37 ITERATIONS ***

 final structure:
================
43
 xtb: 6.5.1 (579679a)
C           -4.77428234866667        2.46877671469117       -2.34478784633198
O           -4.31560573700266        1.52886649760522       -1.35727246084239
C           -3.02731656979550        1.50421371837182       -1.10625992812050
O           -2.20501194785207        2.20739570005131       -1.63799244784656
C           -2.68544512828365        0.50703584796775       -0.02091611395295
C           -3.49021251765922        0.32117427320058        1.06341003385399
O           -4.66316833203122        0.91696948700751        1.20724575346492
C           -3.06038639295263       -0.54028095075753        2.16484509546909
O           -3.72557514592408       -0.78184577555115        3.14234885534537
N           -1.77578258734748       -1.04163458223690        1.99840078221811
C           -0.98402836156444       -0.86118580524561        0.92994473168591
C            0.37881774899772       -1.54120601403413        0.97259199338424
C            0.25277141846552       -2.89903545071536        0.25933273440762
C            0.86537789190242       -1.76098707215999        2.41359846242498
N            1.33469763790911       -0.65052014940714        0.32030041573095
C            2.60939107200448       -1.03514817776820        0.00428408766049
O            3.02925287420465       -2.17097121849747        0.02868927923859
C            3.39760460420508        0.14243812942549       -0.41860268319819
N            2.97667387013112        1.37277095004071       -0.44342685146363
N            4.00946376485232        2.13080403768566       -0.89634242508995
C            4.99875211997751        1.31546433655464       -1.11989396590017
C            6.34851151372669        1.64941128972173       -1.62328596894261
O            4.67129305568132        0.04751868429100       -0.83541663938071
N           -1.44875605248617       -0.14873472673304       -0.08528550576585
C           -0.73483495910825       -0.06096850728066       -1.37128075156414
H           -4.41782404331694        3.47021990225523       -2.09726588232223
H           -4.39856232614590        2.17667821733706       -3.32680068461953
H           -5.86067697321509        2.42744430458884       -2.32174796702261
H           -5.07799649606571        0.66521376933686        2.05286335834608
H           -1.44933557900578       -1.60123977138531        2.77590745501801
H            0.10845794409953       -2.77626504405413       -0.81107631164827
H            1.15454970650613       -3.48349355742276        0.42874692310225
H           -0.59901765785735       -3.43541699320119        0.67299288198561
H            0.27835677779256       -2.52579342889062        2.91806362263061
H            1.89808235347152       -2.10487147667110        2.36913422366721
H            0.82730183837678       -0.83171975189184        2.97773152717146
H            1.20063212559398        0.33808149069271        0.47935507217020
H            7.09841325034806        1.38919571711234       -0.87582339889302
H            6.55942356036587        1.07632287601988       -2.52601364757151
H            6.40514337238529        2.71314592994619       -1.84163018105659
H           -0.05042422764271       -0.89384147545345       -1.46748660133483
H           -0.18957580088076        0.88017125048682       -1.41582302623793
H           -1.46914931619197       -0.10415219503203       -2.17159799987147

          :  Hamiltonian                  GFN1-xTB          :
         :: total energy             -83.166272928845 Eh    ::
         :: gradient norm              0.000505952513 Eh/a0 ::
         :: HOMO-LUMO gap              2.609903665490 eV    ::
         :: SCC energy               -83.968618037522 Eh    ::
         :: -> Gsolv                  -0.113182722597 Eh    ::
         :: repulsion energy           0.829791800562 Eh    ::

    * Orbital Energies and Occupations

         #    Occupation            Energy/Eh            Energy/eV
      -------------------------------------------------------------
         1        2.0000           -0.8974627             -24.4212
       ...           ...                  ...                  ...
        55        2.0000           -0.5364168             -14.5966
        56        2.0000           -0.5349502             -14.5567
        57        2.0000           -0.5290991             -14.3975
        58        2.0000           -0.5251278             -14.2895
        59        2.0000           -0.5208045             -14.1718
        60        2.0000           -0.5164324             -14.0528
        61        2.0000           -0.5029148             -13.6850
        62        2.0000           -0.4943217             -13.4512
        63        2.0000           -0.4859577             -13.2236
        64        2.0000           -0.4823575             -13.1256
        65        2.0000           -0.4768595             -12.9760
        66        2.0000           -0.4636819             -12.6174
        67        2.0000           -0.4619843             -12.5712 (HOMO)
        68                         -0.3660721              -9.9613 (LUMO)
        69                         -0.3611453              -9.8273
        70                         -0.3274510              -8.9104
        71                         -0.2878883              -7.8338
        72                         -0.2656960              -7.2300
        73                         -0.2229369              -6.0664
        74                         -0.2142871              -5.8310
        75                         -0.1671480              -4.5483
        76                         -0.1596129              -4.3433
        77                         -0.1523347              -4.1452
        78                         -0.1472799              -4.0077
       ...                                ...                  ...
       136                          0.7221272              19.6501
      -------------------------------------------------------------
                  HL-Gap            0.0959122 Eh            2.6099 eV

Wiberg/Mayer (AO) data.
largest (>0.10) Wiberg bond orders for each atom

     #   Z sym  total        # sym  WBO       # sym  WBO       # sym  WBO
 ---------------------------------------------------------------------------
     1   6 C    3.846 --    28 H    0.984    26 H    0.979    27 H    0.978
                             2 O    0.873
     2   8 O    2.239 --     3 C    1.169     1 C    0.873     4 O    0.147
     3   6 C    3.866 --     4 O    1.664     2 O    1.169     5 C    0.961
     4   8 O    1.957 --     3 C    1.664     2 O    0.147
     5   6 C    3.919 --     6 C    1.536    24 N    1.075     3 C    0.961
     6   6 C    3.927 --     5 C    1.536     7 O    1.147     8 C    1.036
     7   8 O    2.117 --     6 C    1.147    29 H    0.789
     8   6 C    3.901 --     9 O    1.662    10 N    1.076     6 C    1.036
     9   8 O    1.970 --     8 C    1.662    10 N    0.118
    10   7 N    3.492 --    11 C    1.276     8 C    1.076    30 H    0.860
                             9 O    0.118
    11   6 C    3.896 --    24 N    1.406    10 N    1.276    12 C    0.977
    12   6 C    3.929 --    14 C    0.983    11 C    0.977    13 C    0.964
                            15 N    0.941
    13   6 C    3.977 --    33 H    0.984    31 H    0.977    32 H    0.970
                            12 C    0.964
    14   6 C    3.982 --    36 H    0.983    12 C    0.983    34 H    0.977
                            35 H    0.974
    15   7 N    3.291 --    16 C    1.184    12 C    0.941    37 H    0.891
                            17 O    0.161
    16   6 C    3.908 --    17 O    1.634    15 N    1.184    18 C    0.999
    17   8 O    1.944 --    16 C    1.634    15 N    0.161
    18   6 C    3.880 --    19 N    1.598    23 O    1.067    16 C    0.999
    19   7 N    3.024 --    18 C    1.598    20 N    1.211
    20   7 N    2.982 --    21 C    1.592    19 N    1.211
    21   6 C    3.867 --    20 N    1.592    23 O    1.086    22 C    1.033
    22   6 C    3.984 --    21 C    1.033    40 H    0.982    39 H    0.963
                            38 H    0.960
    23   8 O    2.337 --    21 C    1.086    18 C    1.067
    24   7 N    3.581 --    11 C    1.406     5 C    1.075    25 C    0.902
    25   6 C    3.886 --    43 H    0.974    41 H    0.973    42 H    0.966
                            24 N    0.902
    26   1 H    1.003 --     1 C    0.979
    27   1 H    1.002 --     1 C    0.978
    28   1 H    1.006 --     1 C    0.984
    29   1 H    0.820 --     7 O    0.789
    30   1 H    0.912 --    10 N    0.860
    31   1 H    0.998 --    13 C    0.977
    32   1 H    1.006 --    13 C    0.970
    33   1 H    0.997 --    13 C    0.984
    34   1 H    0.994 --    14 C    0.977
    35   1 H    0.996 --    14 C    0.974
    36   1 H    0.995 --    14 C    0.983
    37   1 H    0.948 --    15 N    0.891
    38   1 H    0.995 --    22 C    0.960
    39   1 H    0.995 --    22 C    0.963
    40   1 H    0.998 --    22 C    0.982
    41   1 H    1.007 --    25 C    0.973
    42   1 H    1.006 --    25 C    0.966
    43   1 H    0.996 --    25 C    0.974
 ---------------------------------------------------------------------------

           -------------------------------------------------
          | TOTAL ENERGY              -83.166272928845 Eh   |
          | GRADIENT NORM               0.000505952513 Eh/α |
          | HOMO-LUMO GAP               2.609903665490 eV   |
           -------------------------------------------------

 * finished run on 2023/06/20 at 15:23:50.550
