   * xtb version 6.5.1 (579679a) compiled by 'ehlert@majestix' on 2022-07-11
          program call               : /lustre/hpc/kemi/ree/PhD/git/ReactivityQM/dep/xtb-6.5.1/bin/xtb --gfn 1 /lustre/hpc/kemi/ree/PhD/git/ReactivityQM/calculations/R02methylcation/reac01prodN10/conf20/R02methylcation_reac01prodN10_conf20_gfn1.xyz --opt --vfukui --chrg 0 --uhf 0 --alpb DMSO

   ID    Z sym.   atoms
    1    6 C      1, 3, 5, 6, 8, 11-15, 17, 19, 22, 23
    2    8 O      2, 4, 7, 9, 18, 24
    3    7 N      10, 16, 20, 21, 25
    4    1 H      26-42

      * Solvation model:               ALPB
        Solvent                        DMSO
        Solvent mass                       7.8130E+01 g/mol
          :  Hamiltonian                  GFN1-xTB          :
 * total energy  :   -82.9630099 Eh     change       -0.1473666E-10 Eh
 * total energy  :   -82.9752562 Eh     change       -0.1224628E-01 Eh
 * total energy  :   -82.9807600 Eh     change       -0.5503803E-02 Eh
 * total energy  :   -82.9819669 Eh     change       -0.1206933E-02 Eh
 * total energy  :   -82.9826506 Eh     change       -0.6836567E-03 Eh
 * total energy  :   -82.9829938 Eh     change       -0.3431985E-03 Eh
 * total energy  :   -82.9831879 Eh     change       -0.1941035E-03 Eh
 * total energy  :   -82.9833026 Eh     change       -0.1147057E-03 Eh
 * total energy  :   -82.9834036 Eh     change       -0.1010095E-03 Eh
 * total energy  :   -82.9835011 Eh     change       -0.9744261E-04 Eh
 * total energy  :   -82.9838415 Eh     change       -0.1292290E-04 Eh
 * total energy  :   -82.9838533 Eh     change       -0.1186665E-04 Eh
 * total energy  :   -82.9838610 Eh     change       -0.7683294E-05 Eh
 * total energy  :   -82.9838681 Eh     change       -0.7055732E-05 Eh
 * total energy  :   -82.9838753 Eh     change       -0.7270149E-05 Eh
 * total energy  :   -82.9838802 Eh     change       -0.4832360E-05 Eh
 * total energy  :   -82.9838731 Eh     change        0.7105072E-05 Eh
 * total energy  :   -82.9838894 Eh     change       -0.1635262E-04 Eh
 * total energy  :   -82.9838941 Eh     change       -0.4682615E-05 Eh
   *** GEOMETRY OPTIMIZATION CONVERGED AFTER 33 ITERATIONS ***

 final structure:
================
42
 xtb: 6.5.1 (579679a)
C           -4.00670313148406        3.80562615847937        0.10151366355170
O           -3.79053811790539        2.39529760694926       -0.03993094709203
C           -2.66263276821203        1.91179676272607        0.44473093615311
O           -1.80579753011755        2.56748740193407        0.98089573673480
C           -2.54311450620901        0.41335952728961        0.23811655119454
C           -3.75003155416265       -0.44259249274588        0.05118594374838
O           -4.85379770942398       -0.13994615171979        0.42503835044900
C           -3.45583882029049       -1.78607058868083       -0.62049223623121
O           -4.30861094526500       -2.44603317202127       -1.17778405881360
N           -2.16120621493932       -2.16075299609383       -0.55444347764385
C           -1.09410248969655       -1.45977690785955        0.13193745141852
C           -0.94730979995088       -2.02606026321065        1.55381179784903
C            0.22182332070792       -1.57377439896698       -0.70387955525040
C           -0.03090632067460       -1.05132576667209       -2.12325218933565
C            0.76085408503320       -3.00464753479576       -0.73143235282386
N            1.17965046572060       -0.69596134111654       -0.03263398925910
C            2.45878563890648       -0.53355427501485       -0.43607458153889
O            3.02465536408590       -1.18303775494774       -1.29642212691849
C            3.11442386154714        0.55343170781029        0.33639627703593
N            2.54566091153410        1.31646292066883        1.22052646311288
N            3.50034517159740        2.18028599587829        1.66614584572155
C            4.59111726548561        1.88958916273066        1.02400317571417
C            5.91524093686906        2.53679484008666        1.15229129488303
O            4.41081709533074        0.87219484968999        0.16889491455705
N           -1.36148077164680       -0.06284532156951        0.28007184648949
H           -3.20603765745197        4.35551409290355       -0.39699915074572
H           -4.02769297848409        4.07258737369668        1.16004891256780
H           -4.96521045146015        4.01945278629693       -0.36579072794977
H           -1.95729081030983       -3.09208407251546       -0.88333919946966
H           -1.83944179627307       -1.77999535037963        2.12697146076969
H           -0.07535036773882       -1.59377870487306        2.03927455868306
H           -0.84106511413401       -3.10665139794627        1.50781736597296
H            0.89370741544761       -1.08941598510905       -2.69687305803766
H           -0.77913358914936       -1.66674128198321       -2.61869073665472
H           -0.38473186704403       -0.02196236043244       -2.08271279719427
H           -0.00773691756708       -3.69369920251104       -1.07472795980349
H            1.09636742476964       -3.30839350036081        0.25813554638343
H            1.60496452436046       -3.06435857558770       -1.41642151516344
H            0.78970738346321        0.01293337790995        0.57830972930877
H            5.83926556084531        3.39717474642759        1.81247573683225
H            6.27122137342237        2.85440626277388        0.17283407678384
H            6.63715743046631        1.82906382286304        1.56040602401011

          :  Hamiltonian                  GFN1-xTB          :
         :: total energy             -82.983894107561 Eh    ::
         :: gradient norm              0.000466243464 Eh/a0 ::
         :: HOMO-LUMO gap              1.757851077765 eV    ::
         :: SCC energy               -83.764853559497 Eh    ::
         :: -> Gsolv                  -0.053496986753 Eh    ::
         :: repulsion energy           0.808261980950 Eh    ::

    * Orbital Energies and Occupations

         #    Occupation            Energy/Eh            Energy/eV
      -------------------------------------------------------------
         1        2.0000           -0.8650459             -23.5391
       ...           ...                  ...                  ...
        55        2.0000           -0.5083802             -13.8337
        56        2.0000           -0.5071952             -13.8015
        57        2.0000           -0.5056310             -13.7589
        58        2.0000           -0.5024057             -13.6712
        59        2.0000           -0.4976987             -13.5431
        60        2.0000           -0.4842535             -13.1772
        61        2.0000           -0.4835930             -13.1592
        62        2.0000           -0.4714124             -12.8278
        63        2.0000           -0.4656240             -12.6703
        64        2.0000           -0.4609955             -12.5443
        65        2.0000           -0.4538337             -12.3494
        66        2.0000           -0.4485005             -12.2043
        67        2.0000           -0.4403155             -11.9816 (HOMO)
        68                         -0.3757157             -10.2237 (LUMO)
        69                         -0.3214754              -8.7478
        70                         -0.3125533              -8.5050
        71                         -0.2582289              -7.0268
        72                         -0.2529705              -6.8837
        73                         -0.2064589              -5.6180
        74                         -0.2008967              -5.4667
        75                         -0.1441087              -3.9214
        76                         -0.1436620              -3.9092
        77                         -0.1432882              -3.8991
        78                         -0.1391251              -3.7858
       ...                                ...                  ...
       134                          0.7653347              20.8258
      -------------------------------------------------------------
                  HL-Gap            0.0645998 Eh            1.7579 eV

Wiberg/Mayer (AO) data.
largest (>0.10) Wiberg bond orders for each atom

     #   Z sym  total        # sym  WBO       # sym  WBO       # sym  WBO
 ---------------------------------------------------------------------------
     1   6 C    3.859 --    28 H    0.985    26 H    0.979    27 H    0.978
                             2 O    0.884
     2   8 O    2.226 --     3 C    1.149     1 C    0.884     4 O    0.147
     3   6 C    3.854 --     4 O    1.684     2 O    1.149     5 C    0.944
     4   8 O    1.948 --     3 C    1.684     2 O    0.147
     5   6 C    3.952 --    25 N    1.790     6 C    0.993     3 C    0.944
     6   6 C    3.856 --     7 O    1.805     5 C    0.993     8 C    0.907
     7   8 O    2.011 --     6 C    1.805
     8   6 C    3.904 --     9 O    1.635    10 N    1.247     6 C    0.907
     9   8 O    1.929 --     8 C    1.635    10 N    0.185
    10   7 N    3.364 --     8 C    1.247    11 C    0.940    29 H    0.882
                             9 O    0.185
    11   6 C    3.913 --    25 N    1.001    12 C    0.947    10 N    0.940
                            13 C    0.928
    12   6 C    3.982 --    30 H    0.982    31 H    0.981    32 H    0.980
                            11 C    0.947
    13   6 C    3.929 --    15 C    0.999    14 C    0.991    16 N    0.934
                            11 C    0.928
    14   6 C    3.990 --    13 C    0.991    35 H    0.984    34 H    0.984
                            33 H    0.981
    15   6 C    3.989 --    13 C    0.999    37 H    0.982    36 H    0.981
                            38 H    0.974
    16   7 N    3.340 --    17 C    1.245    13 C    0.934    39 H    0.886
                            18 O    0.175
    17   6 C    3.916 --    18 O    1.598    16 N    1.245    19 C    0.989
    18   8 O    1.915 --    17 C    1.598    16 N    0.175
    19   6 C    3.875 --    20 N    1.611    24 O    1.064    17 C    0.989
    20   7 N    3.017 --    19 C    1.611    21 N    1.200
    21   7 N    2.981 --    22 C    1.605    20 N    1.200
    22   6 C    3.871 --    21 N    1.605    24 O    1.083    23 C    1.031
    23   6 C    3.986 --    22 C    1.031    40 H    0.982    41 H    0.966
                            42 H    0.961
    24   8 O    2.330 --    22 C    1.083    19 C    1.064
    25   7 N    3.065 --     5 C    1.790    11 C    1.001
    26   1 H    1.005 --     1 C    0.979
    27   1 H    1.004 --     1 C    0.978
    28   1 H    1.008 --     1 C    0.985
    29   1 H    0.929 --    10 N    0.882
    30   1 H    0.999 --    12 C    0.982
    31   1 H    0.999 --    12 C    0.981
    32   1 H    0.999 --    12 C    0.980
    33   1 H    1.004 --    14 C    0.981
    34   1 H    1.002 --    14 C    0.984
    35   1 H    1.004 --    14 C    0.984
    36   1 H    0.998 --    15 C    0.981
    37   1 H    1.001 --    15 C    0.982
    38   1 H    1.009 --    15 C    0.974
    39   1 H    0.969 --    16 N    0.886
    40   1 H    0.998 --    23 C    0.982
    41   1 H    0.997 --    23 C    0.966
    42   1 H    0.997 --    23 C    0.961
 ---------------------------------------------------------------------------

           -------------------------------------------------
          | TOTAL ENERGY              -82.983894107561 Eh   |
          | GRADIENT NORM               0.000466243464 Eh/α |
          | HOMO-LUMO GAP               1.757851077765 eV   |
           -------------------------------------------------

 * finished run on 2023/06/21 at 17:41:49.030
