   * xtb version 6.5.1 (579679a) compiled by 'ehlert@majestix' on 2022-07-11
          program call               : /lustre/hpc/kemi/ree/PhD/git/ReactivityQM/dep/xtb-6.5.1/bin/xtb --gfn 1 /lustre/hpc/kemi/ree/PhD/git/ReactivityQM/calculations/R02oxygendeprot/reac01prodE05/conf20/R02oxygendeprot_reac01prodE05_conf20_gfn1.xyz --opt --vfukui --chrg -2 --uhf 0 --alpb DMSO

   ID    Z sym.   atoms
    1    6 C      1, 3, 5, 6, 8, 11-14, 16, 18, 21, 22, 25
    2    8 O      2, 4, 7, 9, 17, 23
    3    7 N      10, 15, 19, 20, 24
    4    1 H      26-42

      * Solvation model:               ALPB
        Solvent                        DMSO
        Solvent mass                       7.8130E+01 g/mol
          :  Hamiltonian                  GFN1-xTB          :
 * total energy  :   -83.5605277 Eh     change       -0.2623182E-09 Eh
 * total energy  :   -83.5725476 Eh     change       -0.1201997E-01 Eh
 * total energy  :   -83.5771148 Eh     change       -0.4567112E-02 Eh
 * total energy  :   -83.5782935 Eh     change       -0.1178756E-02 Eh
 * total energy  :   -83.5797810 Eh     change       -0.1487453E-02 Eh
 * total energy  :   -83.5809844 Eh     change       -0.1203432E-02 Eh
 * total energy  :   -83.5821271 Eh     change       -0.1142707E-02 Eh
 * total energy  :   -83.5830086 Eh     change       -0.8815003E-03 Eh
 * total energy  :   -83.5836084 Eh     change       -0.5997794E-03 Eh
 * total energy  :   -83.5840298 Eh     change       -0.4214376E-03 Eh
 * total energy  :   -83.5919384 Eh     change       -0.8434915E-05 Eh
 * total energy  :   -83.5919472 Eh     change       -0.8863522E-05 Eh
 * total energy  :   -83.5919566 Eh     change       -0.9341940E-05 Eh
 * total energy  :   -83.5919664 Eh     change       -0.9808428E-05 Eh
 * total energy  :   -83.5919762 Eh     change       -0.9794612E-05 Eh
 * total energy  :   -83.5919855 Eh     change       -0.9351404E-05 Eh
 * total energy  :   -83.5919936 Eh     change       -0.8071701E-05 Eh
 * total energy  :   -83.5920001 Eh     change       -0.6508825E-05 Eh
 * total energy  :   -83.5920051 Eh     change       -0.4956593E-05 Eh
   *** GEOMETRY OPTIMIZATION CONVERGED AFTER 206 ITERATIONS ***

 final structure:
================
42
 xtb: 6.5.1 (579679a)
C           -3.20897875952954        3.69687738477938       -0.37388689105701
O           -2.67112418681179        2.49064579884645       -0.87784639075061
C           -2.42539304476447        1.51454144038703        0.06894981196779
O           -2.67749737916592        1.75908672026922        1.25877961166278
C           -1.90818985083434        0.28876904360175       -0.43971497348353
C           -1.56810774128281        0.03462471641809       -1.78551849671207
O           -1.69058648874318        0.83820027564493       -2.74067683614625
C           -0.92644050727272       -1.31169323108832       -2.06264630788848
O           -0.76380985816984       -1.77171153183662       -3.21400866168533
N           -0.44991304913412       -1.97505261467201       -0.98840615275427
C           -0.78496772392193       -1.76498738411640        0.35366493497872
C            0.39809848312978       -1.81774292318974        1.31797158642338
C            0.00895713420233       -1.21603687106066        2.67349567802680
C            0.86418263750379       -3.26482611994227        1.53590755483879
N            1.51426120614124       -0.99533095778009        0.80781510510284
C            2.24257345195346       -1.27777027779710       -0.31783548278960
O            2.40306030202535       -2.42776719086729       -0.78903661217121
C            2.89874371376392       -0.12137251473810       -0.89066435208440
N            3.69656129098525       -0.09249834388246       -1.94568030340215
N            4.13042142208219        1.20094377830741       -2.07380356623826
C            3.59500575899403        1.88053155118709       -1.11473998532948
C            3.78834405310805        3.32159696743074       -0.82186777007802
O            2.79771269627909        1.12676394568673       -0.32291328968616
N           -1.74675181192120       -0.73076977322576        0.58170923000996
C           -3.04357737728424       -1.29164356841059        1.01465195820421
H           -3.35901064759058        4.36616298162239       -1.22204039240247
H           -4.16936174921604        3.52499836872333        0.12600285093767
H           -2.52708247749406        4.16761070632703        0.34401747897648
H            0.09624977291871       -2.80635865450965       -1.18551024971802
H           -0.78040554576898       -1.81045751290928        3.13117274837035
H           -0.35583075889560       -0.19520574123643        2.54924527545507
H            0.87007432093218       -1.20673865182207        3.34112133352979
H            1.76054956719608       -3.28851970693409        2.15591919404644
H            1.07937692094735       -3.76278428857909        0.59255405407822
H            0.07126552080155       -3.81491639965465        2.04153028600135
H            1.42526716208928       -0.01195889649644        1.02794529251688
H            4.53345405073690        3.73038498300545       -1.49987099179830
H            2.85427967231342        3.87108651613089       -0.94224968643715
H            4.12616965469375        3.45313708705646        0.20543782667175
H           -3.63662765033705       -0.51502315421817        1.50044601376182
H           -2.85047300090977       -2.09210468466111        1.72881210454838
H           -3.61048018374102       -1.70269227179788        0.16828246249805

          :  Hamiltonian                  GFN1-xTB          :
         :: total energy             -83.592005074765 Eh    ::
         :: gradient norm              0.000159485180 Eh/a0 ::
         :: HOMO-LUMO gap              0.449412274756 eV    ::
         :: SCC energy               -84.312062874289 Eh    ::
         :: -> Gsolv                  -0.283257683983 Eh    ::
         :: repulsion energy           0.748184615752 Eh    ::

    * Orbital Energies and Occupations

         #    Occupation            Energy/Eh            Energy/eV
      -------------------------------------------------------------
         1        2.0000           -0.8134295             -22.1345
       ...           ...                  ...                  ...
        56        2.0000           -0.4391506             -11.9499
        57        2.0000           -0.4344339             -11.8215
        58        2.0000           -0.4199276             -11.4268
        59        2.0000           -0.4125313             -11.2255
        60        2.0000           -0.4103165             -11.1653
        61        2.0000           -0.4064955             -11.0613
        62        2.0000           -0.4027635             -10.9598
        63        2.0000           -0.3995190             -10.8715
        64        2.0000           -0.3886337             -10.5753
        65        2.0000           -0.3697596             -10.0617
        66        2.0000           -0.3474301              -9.4541
        67        2.0000           -0.3271536              -8.9023
        68        1.9997           -0.2793024              -7.6002 (HOMO)
        69        0.0003           -0.2627868              -7.1508 (LUMO)
        70                         -0.2304102              -6.2698
        71                         -0.2168467              -5.9007
        72                         -0.1637197              -4.4550
        73                         -0.1434906              -3.9046
        74                         -0.1270130              -3.4562
        75                         -0.1090976              -2.9687
        76                         -0.1044605              -2.8425
        77                         -0.0959412              -2.6107
        78                         -0.0933866              -2.5412
        79                         -0.0797370              -2.1698
       ...                                ...                  ...
       134                          0.7480039              20.3542
      -------------------------------------------------------------
                  HL-Gap            0.0165156 Eh            0.4494 eV

Wiberg/Mayer (AO) data.
largest (>0.10) Wiberg bond orders for each atom

     #   Z sym  total        # sym  WBO       # sym  WBO       # sym  WBO
 ---------------------------------------------------------------------------
     1   6 C    3.914 --    26 H    0.987    27 H    0.980    28 H    0.980
                             2 O    0.943
     2   8 O    2.115 --     3 C    0.989     1 C    0.943
     3   6 C    3.847 --     4 O    1.495     5 C    1.236     2 O    0.989
     4   8 O    1.807 --     3 C    1.495
     5   6 C    3.882 --     6 C    1.313     3 C    1.236    24 N    0.970
                             7 O    0.130
     6   6 C    3.940 --     7 O    1.483     5 C    1.313     8 C    0.960
     7   8 O    1.787 --     6 C    1.483     5 C    0.130
     8   6 C    3.900 --     9 O    1.471    10 N    1.241     6 C    0.960
     9   8 O    1.769 --     8 C    1.471    10 N    0.143
    10   7 N    3.444 --     8 C    1.241    11 C    1.046    29 H    0.902
                             9 O    0.143
    11   6 C    3.544 --    10 N    1.046    24 N    0.996    12 C    0.959
    12   6 C    3.933 --    13 C    1.000    14 C    0.994    11 C    0.959
                            15 N    0.904
    13   6 C    3.996 --    12 C    1.000    32 H    0.988    30 H    0.985
                            31 H    0.981
    14   6 C    3.995 --    12 C    0.994    35 H    0.987    33 H    0.987
                            34 H    0.978
    15   7 N    3.304 --    16 C    1.179    36 H    0.919    12 C    0.904
                            17 O    0.136
    16   6 C    3.923 --    17 O    1.425    15 N    1.179    18 C    1.099
    17   8 O    1.781 --    16 C    1.425    15 N    0.136
    18   6 C    3.846 --    19 N    1.474    16 C    1.099    23 O    0.991
    19   7 N    2.836 --    18 C    1.474    20 N    1.179
    20   7 N    2.980 --    21 C    1.636    19 N    1.179
    21   6 C    3.838 --    20 N    1.636    23 O    1.049    22 C    1.025
    22   6 C    3.993 --    21 C    1.025    37 H    0.985    39 H    0.972
                            38 H    0.969
    23   8 O    2.255 --    21 C    1.049    18 C    0.991
    24   7 N    3.112 --    11 C    0.996     5 C    0.970    25 C    0.952
    25   6 C    3.962 --    41 H    0.987    40 H    0.986    42 H    0.983
                            24 N    0.952
    26   1 H    1.019 --     1 C    0.987
    27   1 H    1.019 --     1 C    0.980
    28   1 H    1.019 --     1 C    0.980
    29   1 H    0.978 --    10 N    0.902
    30   1 H    1.010 --    13 C    0.985
    31   1 H    1.022 --    13 C    0.981
    32   1 H    1.007 --    13 C    0.988
    33   1 H    1.008 --    14 C    0.987
    34   1 H    1.026 --    14 C    0.978
    35   1 H    1.015 --    14 C    0.987
    36   1 H    0.964 --    15 N    0.919
    37   1 H    1.004 --    22 C    0.985
    38   1 H    1.000 --    22 C    0.969
    39   1 H    1.001 --    22 C    0.972
    40   1 H    1.029 --    25 C    0.986
    41   1 H    1.029 --    25 C    0.987
    42   1 H    1.012 --    25 C    0.983
 ---------------------------------------------------------------------------

           -------------------------------------------------
          | TOTAL ENERGY              -83.592005074765 Eh   |
          | GRADIENT NORM               0.000159485180 Eh/α |
          | HOMO-LUMO GAP               0.449412274756 eV   |
           -------------------------------------------------

 * finished run on 2023/06/21 at 17:06:15.045
