   * xtb version 6.5.1 (579679a) compiled by 'ehlert@majestix' on 2022-07-11
          program call               : /lustre/hpc/kemi/ree/PhD/git/ReactivityQM/dep/xtb-6.5.1/bin/xtb --gfn 1 /lustre/hpc/kemi/ree/PhD/git/ReactivityQM/calculations/R02/reac01prodE06/conf01/R02_reac01prodE06_conf01_gfn1.xyz --opt --vfukui --chrg -1 --uhf 0 --alpb DMSO

   ID    Z sym.   atoms
    1    6 C      1, 3, 5, 6, 8, 11-15, 17, 19, 22, 23
    2    8 O      2, 4, 7, 9, 18, 24
    3    7 N      10, 16, 20, 21, 25
    4    1 H      26-43

      * Solvation model:               ALPB
        Solvent                        DMSO
        Solvent mass                       7.8130E+01 g/mol
          :  Hamiltonian                  GFN1-xTB          :
 * total energy  :   -83.8600317 Eh     change       -0.4324363E-10 Eh
 * total energy  :   -83.8720662 Eh     change       -0.1203451E-01 Eh
 * total energy  :   -83.8769166 Eh     change       -0.4850378E-02 Eh
 * total energy  :   -83.8779921 Eh     change       -0.1075486E-02 Eh
 * total energy  :   -83.8790181 Eh     change       -0.1026016E-02 Eh
 * total energy  :   -83.8796755 Eh     change       -0.6574408E-03 Eh
 * total energy  :   -83.8802540 Eh     change       -0.5784416E-03 Eh
 * total energy  :   -83.8807704 Eh     change       -0.5164091E-03 Eh
 * total energy  :   -83.8811574 Eh     change       -0.3869945E-03 Eh
 * total energy  :   -83.8813871 Eh     change       -0.2297426E-03 Eh
 * total energy  :   -83.8842563 Eh     change       -0.1656872E-04 Eh
 * total energy  :   -83.8842716 Eh     change       -0.1526266E-04 Eh
 * total energy  :   -83.8842767 Eh     change       -0.5078703E-05 Eh
 * total energy  :   -83.8842846 Eh     change       -0.7883363E-05 Eh
 * total energy  :   -83.8842959 Eh     change       -0.1131780E-04 Eh
 * total energy  :   -83.8843082 Eh     change       -0.1231469E-04 Eh
 * total energy  :   -83.8843183 Eh     change       -0.1012757E-04 Eh
 * total energy  :   -83.8843250 Eh     change       -0.6719642E-05 Eh
 * total energy  :   -83.8843300 Eh     change       -0.4952387E-05 Eh
   *** GEOMETRY OPTIMIZATION CONVERGED AFTER 74 ITERATIONS ***

 final structure:
================
43
 xtb: 6.5.1 (579679a)
C           -3.36568344802247        3.25146886531981        0.23997640719090
O           -2.62932751294777        2.03457589242668        0.30955597901664
C           -2.77449623412191        1.19200415273064       -0.72572121413062
O           -3.49628986882778        1.47689858546992       -1.67076357249154
C           -2.00250593262894       -0.06383894507329       -0.58439420113581
C           -2.02482621770850       -1.01842368054068       -1.60526379761002
O           -2.80350707202631       -0.90054625653982       -2.75429390434788
C           -1.15745041624274       -2.15413005355556       -1.53001872692590
O           -1.01177886212499       -3.03555334307373       -2.39311687492730
N           -0.34517586852897       -2.17811016640835       -0.39968434825726
C           -0.70161295212990       -1.46346286851962        0.81632030980973
C           -1.68521756858896       -2.32251637491971        1.64878022255162
C            0.61740153092644       -1.16702822362717        1.62041352367748
C            0.32742800366332       -0.23173442488811        2.80106222876974
C            1.32534915955150       -2.42087840023231        2.13409432391413
N            1.47735356682541       -0.40068784411862        0.70959516203299
C            2.37224650543191       -0.88798852404132       -0.15807585363709
O            2.76708322808926       -2.04417090196976       -0.24063594042661
C            2.92698930245030        0.16417613581130       -1.06148333013952
N            3.71549856501129       -0.01721632987246       -2.07528306349021
N            3.96273190992490        1.21576328671460       -2.60895962749060
C            3.31128501905406        2.07073535126109       -1.88647952793111
C            3.27043208888451        3.54107550101106       -2.04540890052710
O            2.63040916572665        1.47225590079090       -0.89387758282529
N           -1.31428025753395       -0.18467032144680        0.54893466158799
H           -3.13259606560080        3.81479786959396        1.14184664750536
H           -3.07561021822153        3.82448693653993       -0.64511610292921
H           -4.43888669932805        3.04577386335063        0.19406372779404
H           -3.31457672897964       -0.07261586028560       -2.70622553865275
H            0.10901674405662       -3.06800010630529       -0.24373971630968
H           -2.58445941441509       -2.49653588929997        1.05847608685794
H           -1.24541534864138       -3.28380840691409        1.90602254704783
H           -1.96468603812050       -1.79635348516394        2.55853676450184
H            1.26386941009273        0.11400884014257        3.23695386649063
H           -0.24756579133354        0.62998966868028        2.46082412523645
H           -0.24128985409209       -0.75139189455752        3.56965473951821
H            2.33274275635906       -2.16855577005335        2.46359910401423
H            0.77810794620601       -2.81988879057631        2.98664704267750
H            1.39456767592367       -3.19625298034029        1.37420806468006
H            1.19934335244307        0.56531556866628        0.60508783180720
H            2.24574450024334        3.87583523789369       -2.20372168279181
H            3.64578450106581        4.02265612019783       -1.14302747254603
H            3.88385743824179        3.83254206571696       -2.89417338716146

          :  Hamiltonian                  GFN1-xTB          :
         :: total energy             -83.884330002902 Eh    ::
         :: gradient norm              0.000223174349 Eh/a0 ::
         :: HOMO-LUMO gap              0.620918770322 eV    ::
         :: SCC energy               -84.638817851282 Eh    ::
         :: -> Gsolv                  -0.118583030411 Eh    ::
         :: repulsion energy           0.782837653224 Eh    ::

    * Orbital Energies and Occupations

         #    Occupation            Energy/Eh            Energy/eV
      -------------------------------------------------------------
         1        2.0000           -0.8567269             -23.3127
       ...           ...                  ...                  ...
        56        2.0000           -0.4747282             -12.9180
        57        2.0000           -0.4702210             -12.7954
        58        2.0000           -0.4660692             -12.6824
        59        2.0000           -0.4518275             -12.2949
        60        2.0000           -0.4491024             -12.2207
        61        2.0000           -0.4433258             -12.0635
        62        2.0000           -0.4388630             -11.9421
        63        2.0000           -0.4315316             -11.7426
        64        2.0000           -0.4220691             -11.4851
        65        2.0000           -0.4025084             -10.9528
        66        2.0000           -0.3891767             -10.5900
        67        2.0000           -0.3755022             -10.2179
        68        2.0000           -0.3185782              -8.6690 (HOMO)
        69        0.0000           -0.2957599              -8.0480 (LUMO)
        70                         -0.2700915              -7.3496
        71                         -0.2497146              -6.7951
        72                         -0.1892546              -5.1499
        73                         -0.1855869              -5.0501
        74                         -0.1400816              -3.8118
        75                         -0.1244620              -3.3868
        76                         -0.1169571              -3.1826
        77                         -0.1092730              -2.9735
        78                         -0.1079110              -2.9364
        79                         -0.0998390              -2.7168
       ...                                ...                  ...
       136                          0.7387078              20.1013
      -------------------------------------------------------------
                  HL-Gap            0.0228183 Eh            0.6209 eV

Wiberg/Mayer (AO) data.
largest (>0.10) Wiberg bond orders for each atom

     #   Z sym  total        # sym  WBO       # sym  WBO       # sym  WBO
 ---------------------------------------------------------------------------
     1   6 C    3.889 --    26 H    0.987    28 H    0.980    27 H    0.980
                             2 O    0.914
     2   8 O    2.191 --     3 C    1.093     1 C    0.914     4 O    0.118
     3   6 C    3.820 --     4 O    1.599     2 O    1.093     5 C    1.025
     4   8 O    1.919 --     3 C    1.599     2 O    0.118
     5   6 C    3.971 --    25 N    1.389     6 C    1.337     3 C    1.025
     6   6 C    3.877 --     5 C    1.337     8 C    1.173     7 O    0.989
                            25 N    0.187
     7   8 O    1.959 --     6 C    0.989    29 H    0.828
     8   6 C    3.915 --     9 O    1.492     6 C    1.173    10 N    1.100
     9   8 O    1.792 --     8 C    1.492    10 N    0.111
    10   7 N    3.214 --     8 C    1.100    11 C    0.944    30 H    0.916
                             9 O    0.111
    11   6 C    3.945 --    25 N    1.008    12 C    0.969    10 N    0.944
                            13 C    0.930
    12   6 C    3.994 --    32 H    0.985    31 H    0.984    33 H    0.983
                            11 C    0.969
    13   6 C    3.920 --    15 C    1.004    14 C    1.000    11 C    0.930
                            16 N    0.916
    14   6 C    3.994 --    13 C    1.000    34 H    0.987    36 H    0.983
                            35 H    0.978
    15   6 C    3.994 --    13 C    1.004    38 H    0.984    37 H    0.984
                            39 H    0.978
    16   7 N    3.387 --    17 C    1.297    13 C    0.916    40 H    0.901
                            18 O    0.184
    17   6 C    3.924 --    18 O    1.557    16 N    1.297    19 C    0.981
    18   8 O    1.880 --    17 C    1.557    16 N    0.184
    19   6 C    3.866 --    20 N    1.628    24 O    1.047    17 C    0.981
    20   7 N    2.990 --    19 C    1.628    21 N    1.188
    21   7 N    2.980 --    22 C    1.621    20 N    1.188
    22   6 C    3.871 --    21 N    1.621    24 O    1.070    23 C    1.030
    23   6 C    3.988 --    22 C    1.030    43 H    0.983    41 H    0.965
                            42 H    0.964
    24   8 O    2.312 --    22 C    1.070    19 C    1.047
    25   7 N    2.911 --     5 C    1.389    11 C    1.008     6 C    0.187
    26   1 H    1.014 --     1 C    0.987
    27   1 H    1.011 --     1 C    0.980
    28   1 H    1.011 --     1 C    0.980
    29   1 H    0.891 --     7 O    0.828
    30   1 H    0.968 --    10 N    0.916
    31   1 H    1.007 --    12 C    0.984
    32   1 H    1.005 --    12 C    0.985
    33   1 H    1.011 --    12 C    0.983
    34   1 H    1.004 --    14 C    0.987
    35   1 H    1.027 --    14 C    0.978
    36   1 H    1.006 --    14 C    0.983
    37   1 H    1.006 --    15 C    0.984
    38   1 H    1.006 --    15 C    0.984
    39   1 H    1.016 --    15 C    0.978
    40   1 H    0.962 --    16 N    0.901
    41   1 H    0.998 --    23 C    0.965
    42   1 H    0.998 --    23 C    0.964
    43   1 H    1.000 --    23 C    0.983
 ---------------------------------------------------------------------------

           -------------------------------------------------
          | TOTAL ENERGY              -83.884330002902 Eh   |
          | GRADIENT NORM               0.000223174349 Eh/α |
          | HOMO-LUMO GAP               0.620918770322 eV   |
           -------------------------------------------------

 * finished run on 2023/06/20 at 15:00:26.680
