   * xtb version 6.5.1 (579679a) compiled by 'ehlert@majestix' on 2022-07-11
          program call               : /lustre/hpc/kemi/ree/PhD/git/ReactivityQM/dep/xtb-6.5.1/bin/xtb --gfn 1 /lustre/hpc/kemi/ree/PhD/git/ReactivityQM/calculations/R01/reac02prodN03/conf17/R01_reac02prodN03_conf17_gfn1.xyz --opt --vfukui --chrg 1 --uhf 0 --alpb DMSO

   ID    Z sym.   atoms
    1    6 C      1, 3, 5, 7-10, 13, 15, 17
    2    8 O      2, 4, 14, 16
    3    7 N      6, 11, 12
    4    1 H      18-33

      * Solvation model:               ALPB
        Solvent                        DMSO
        Solvent mass                       7.8130E+01 g/mol
          :  Hamiltonian                  GFN1-xTB          :
 * total energy  :   -57.8027310 Eh     change       -0.2920331E-11 Eh
 * total energy  :   -57.8164407 Eh     change       -0.1370961E-01 Eh
 * total energy  :   -57.8224036 Eh     change       -0.5962955E-02 Eh
 * total energy  :   -57.8245674 Eh     change       -0.2163834E-02 Eh
 * total energy  :   -57.8273316 Eh     change       -0.2764139E-02 Eh
 * total energy  :   -57.8287861 Eh     change       -0.1454513E-02 Eh
 * total energy  :   -57.8311261 Eh     change       -0.2340010E-02 Eh
 * total energy  :   -57.8343914 Eh     change       -0.3265272E-02 Eh
 * total energy  :   -57.8370623 Eh     change       -0.2670892E-02 Eh
 * total energy  :   -57.8387749 Eh     change       -0.1712583E-02 Eh
 * total energy  :   -57.8478778 Eh     change       -0.1136979E-03 Eh
 * total energy  :   -57.8480593 Eh     change       -0.1814452E-03 Eh
 * total energy  :   -57.8481175 Eh     change       -0.5826893E-04 Eh
 * total energy  :   -57.8481766 Eh     change       -0.5902778E-04 Eh
 * total energy  :   -57.8482048 Eh     change       -0.2821763E-04 Eh
 * total energy  :   -57.8482185 Eh     change       -0.1376603E-04 Eh
 * total energy  :   -57.8482262 Eh     change       -0.7628710E-05 Eh
 * total energy  :   -57.8482352 Eh     change       -0.9022310E-05 Eh
 * total energy  :   -57.8482393 Eh     change       -0.4139036E-05 Eh
   *** GEOMETRY OPTIMIZATION CONVERGED AFTER 30 ITERATIONS ***

 final structure:
================
33
 xtb: 6.5.1 (579679a)
C           -3.40911158231060        2.44691399416900        1.36331920858801
O           -2.22246350372299        1.73646009757779        0.96121002634916
C           -2.31424321722599        0.53893297836379        0.51667543759272
O           -3.48857136298587        0.00687194746486        0.44550237619306
C           -1.09801813483916       -0.13444398612313        0.11918915043884
N            0.04496732833491        0.60160163021532        0.29322626643013
C            1.18498784755665        0.09020120059528       -0.04107358567922
C            2.44046497781662        0.93026616852929        0.13081054082352
C            3.66206404189130        0.07634588828556        0.47850443473152
C            2.66744804501491        1.70386595274730       -1.17784898981076
N            2.22071808396942        1.88737619758357        1.20402664924596
N            1.27076528767425       -1.16133193242638       -0.57589504330187
C            0.20953724301839       -2.01095119824699       -0.78867094107038
O            0.38109372675979       -3.12032417904664       -1.25515246903599
C           -1.08254640094530       -1.42040348743378       -0.39986052641693
O           -2.23094650352320       -2.07449201771264       -0.53367176629768
C           -2.31297209849545       -3.40895697879670       -1.07585980614453
H           -4.10435017524085        2.49547898327850        0.52470636967960
H           -3.87412471666405        1.92612318290540        2.20108334247278
H           -3.07789791456663        3.44072351260390        1.65581415785026
H            3.96985368164590       -0.53001950288484       -0.37168459598880
H            3.44235663403103       -0.57668854109804        1.32157904161438
H            4.48599628879899        0.73539495505821        0.75023477794349
H            3.53208756263743        2.35640196518797       -1.06305676802563
H            1.79198845952322        2.31015056321739       -1.40660780835811
H            2.84425763947199        1.01292369415866       -2.00031959405432
H            1.36521392407903        2.39689937655589        1.01288295075598
H            2.08124328279054        1.38192933581260        2.06945400808052
H            2.17076049959689       -1.53987040705120       -0.84092082566415
H           -3.49620881688961       -0.91080560299377        0.09353719579792
H           -3.37183467568868       -3.65978653669466       -1.05994554473095
H           -1.93378991878583       -3.42280385131339       -2.09864028995235
H           -1.74872753272829       -4.10398540248807       -0.45254438005603

          :  Hamiltonian                  GFN1-xTB          :
         :: total energy             -57.848239339122 Eh    ::
         :: gradient norm              0.000713187872 Eh/a0 ::
         :: HOMO-LUMO gap              1.178605231312 eV    ::
         :: SCC energy               -58.420225276866 Eh    ::
         :: -> Gsolv                  -0.093693502950 Eh    ::
         :: repulsion energy           0.590230958802 Eh    ::

    * Orbital Energies and Occupations

         #    Occupation            Energy/Eh            Energy/eV
      -------------------------------------------------------------
         1        2.0000           -0.9101363             -24.7661
       ...           ...                  ...                  ...
        35        2.0000           -0.5492136             -14.9449
        36        2.0000           -0.5423971             -14.7594
        37        2.0000           -0.5406401             -14.7116
        38        2.0000           -0.5245222             -14.2730
        39        2.0000           -0.5196151             -14.1394
        40        2.0000           -0.5141199             -13.9899
        41        2.0000           -0.5137472             -13.9798
        42        2.0000           -0.5038091             -13.7093
        43        2.0000           -0.4961689             -13.5014
        44        2.0000           -0.4844851             -13.1835
        45        2.0000           -0.4771216             -12.9831
        46        2.0000           -0.4575311             -12.4501
        47        2.0000           -0.4256856             -11.5835 (HOMO)
        48                         -0.3823727             -10.4049 (LUMO)
        49                         -0.3099785              -8.4349
        50                         -0.2884475              -7.8491
        51                         -0.1969898              -5.3604
        52                         -0.1648209              -4.4850
        53                         -0.1483256              -4.0361
        54                         -0.1453047              -3.9539
        55                         -0.1344671              -3.6590
        56                         -0.1320779              -3.5940
        57                         -0.1154108              -3.1405
        58                         -0.1007084              -2.7404
       ...                                ...                  ...
       100                          0.6845566              18.6277
      -------------------------------------------------------------
                  HL-Gap            0.0433129 Eh            1.1786 eV

Wiberg/Mayer (AO) data.
largest (>0.10) Wiberg bond orders for each atom

     #   Z sym  total        # sym  WBO       # sym  WBO       # sym  WBO
 ---------------------------------------------------------------------------
     1   6 C    3.821 --    20 H    0.982    18 H    0.973    19 H    0.972
                             2 O    0.853
     2   8 O    2.319 --     3 C    1.286     1 C    0.853
     3   6 C    3.811 --     2 O    1.286     4 O    1.250     5 C    1.119
     4   8 O    2.195 --     3 C    1.250    30 H    0.744
     5   6 C    3.960 --    15 C    1.410     6 N    1.173     3 C    1.119
     6   7 N    3.026 --     7 C    1.570     5 C    1.173
     7   6 C    3.904 --     6 N    1.570    12 N    1.172     8 C    0.969
     8   6 C    3.967 --    11 N    0.996     9 C    0.995    10 C    0.973
                             7 C    0.969
     9   6 C    3.992 --     8 C    0.995    22 H    0.985    23 H    0.982
                            21 H    0.981
    10   6 C    3.991 --    26 H    0.986    25 H    0.985    24 H    0.982
                             8 C    0.973
    11   7 N    2.957 --     8 C    0.996    28 H    0.942    27 H    0.939
    12   7 N    3.477 --     7 C    1.172    13 C    1.141    29 H    0.874
                            14 O    0.141
    13   6 C    3.915 --    14 O    1.608    12 N    1.141    15 C    1.041
    14   8 O    1.937 --    13 C    1.608    12 N    0.141
    15   6 C    3.906 --     5 C    1.410    16 O    1.133    13 C    1.041
    16   8 O    2.248 --    15 C    1.133    17 C    0.855
    17   6 C    3.829 --    31 H    0.983    32 H    0.975    33 H    0.974
                            16 O    0.855
    18   1 H    0.997 --     1 C    0.973
    19   1 H    0.997 --     1 C    0.972
    20   1 H    1.002 --     1 C    0.982
    21   1 H    0.999 --     9 C    0.981
    22   1 H    0.998 --     9 C    0.985
    23   1 H    1.002 --     9 C    0.982
    24   1 H    1.002 --    10 C    0.982
    25   1 H    1.001 --    10 C    0.985
    26   1 H    1.001 --    10 C    0.986
    27   1 H    0.969 --    11 N    0.939
    28   1 H    0.958 --    11 N    0.942
    29   1 H    0.922 --    12 N    0.874
    30   1 H    0.807 --     4 O    0.744
    31   1 H    1.005 --    17 C    0.983
    32   1 H    1.007 --    17 C    0.975
    33   1 H    1.007 --    17 C    0.974
 ---------------------------------------------------------------------------

           -------------------------------------------------
          | TOTAL ENERGY              -57.848239339122 Eh   |
          | GRADIENT NORM               0.000713187872 Eh/α |
          | HOMO-LUMO GAP               1.178605231312 eV   |
           -------------------------------------------------

 * finished run on 2023/06/20 at 15:05:06.414
