                         Program Version 5.0.1 -  RELEASE  -
|  1> # ORCA input file
|  2> ! SP r2SCAN-3c CPCM
|  3>
|  4> %maxcore 1875.0
|  5> %pal nprocs 4 end
|  6> %cpcm smd true SMDsolvent "DMSO" end
|  7>
|  8> *xyz 0 1
|  9> C       4.210555    2.834803    2.298961
| 10> O       4.089608    1.980669    1.159823
| 11> C       2.929505    1.339452    1.025055
| 12> O       2.009445    1.443749    1.823164
| 13> C       2.824517    0.497155   -0.161645
| 14> N       1.590210   -0.131161   -0.230750
| 15> C       1.181839   -0.906270   -1.195203
| 16> C      -0.163734   -1.601893   -1.115091
| 17> C       0.113904   -3.012686   -0.573884
| 18> C      -0.823942   -1.734128   -2.497271
| 19> N      -1.034247   -0.764591   -0.265308
| 20> C      -1.363332    0.545340   -0.838517
| 21> C      -1.593299   -1.183881    0.901212
| 22> O      -1.271504   -2.197582    1.501527
| 23> C      -2.658887   -0.337172    1.509196
| 24> N      -3.021582   -0.442552    2.751676
| 25> N      -4.064102    0.411314    2.937768
| 26> C      -4.288189    0.979571    1.794611
| 27> C      -5.324473    1.982584    1.466825
| 28> O      -3.434353    0.551303    0.850202
| 29> N       2.042265   -1.156094   -2.201425
| 30> C       3.333823   -0.631759   -2.304945
| 31> O       4.012730   -0.929831   -3.263551
| 32> C       3.784048    0.290066   -1.182437
| 33> O       4.910827    0.781380   -1.230536
| 34> H       4.088624    2.257484    3.219162
| 35> H       5.206485    3.272679    2.257117
| 36> H       3.450264    3.619131    2.263113
| 37> H       0.646604   -2.978428    0.373555
| 38> H       0.735924   -3.529830   -1.303894
| 39> H      -0.815227   -3.564242   -0.453638
| 40> H      -1.853732   -2.061313   -2.365955
| 41> H      -0.818217   -0.791577   -3.039071
| 42> H      -0.298886   -2.479222   -3.091486
| 43> H       0.957947    0.073848    0.542559
| 44> H      -0.585277    0.822994   -1.545479
| 45> H      -1.392384    1.290708   -0.046924
| 46> H      -2.324428    0.509208   -1.350132
| 47> H      -5.908684    2.208798    2.355733
| 48> H      -5.979740    1.598178    0.685319
| 49> H      -4.856153    2.893289    1.094150
| 50> H       1.755248   -1.749492   -2.964350
| 51> **                         ****END OF INPUT****

CARTESIAN COORDINATES (ANGSTROEM)
---------------------------------
  C      4.210555    2.834803    2.298961
  O      4.089608    1.980669    1.159823
  C      2.929505    1.339452    1.025055
  O      2.009445    1.443749    1.823164
  C      2.824517    0.497155   -0.161645
  N      1.590210   -0.131161   -0.230750
  C      1.181839   -0.906270   -1.195203
  C     -0.163734   -1.601893   -1.115091
  C      0.113904   -3.012686   -0.573884
  C     -0.823942   -1.734128   -2.497271
  N     -1.034247   -0.764591   -0.265308
  C     -1.363332    0.545340   -0.838517
  C     -1.593299   -1.183881    0.901212
  O     -1.271504   -2.197582    1.501527
  C     -2.658887   -0.337172    1.509196
  N     -3.021582   -0.442552    2.751676
  N     -4.064102    0.411314    2.937768
  C     -4.288189    0.979571    1.794611
  C     -5.324473    1.982584    1.466825
  O     -3.434353    0.551303    0.850202
  N      2.042265   -1.156094   -2.201425
  C      3.333823   -0.631759   -2.304945
  O      4.012730   -0.929831   -3.263551
  C      3.784048    0.290066   -1.182437
  O      4.910827    0.781380   -1.230536
  H      4.088624    2.257484    3.219162
  H      5.206485    3.272679    2.257117
  H      3.450264    3.619131    2.263113
  H      0.646604   -2.978428    0.373555
  H      0.735924   -3.529830   -1.303894
  H     -0.815227   -3.564242   -0.453638
  H     -1.853732   -2.061313   -2.365955
  H     -0.818217   -0.791577   -3.039071
  H     -0.298886   -2.479222   -3.091486
  H      0.957947    0.073848    0.542559
  H     -0.585277    0.822994   -1.545479
  H     -1.392384    1.290708   -0.046924
  H     -2.324428    0.509208   -1.350132
  H     -5.908684    2.208798    2.355733
  H     -5.979740    1.598178    0.685319
  H     -4.856153    2.893289    1.094150
  H      1.755248   -1.749492   -2.964350

 Total Charge           Charge          ....    0
 Multiplicity           Mult            ....    1
 Number of Electrons    NEL             ....  184
 Basis Dimension        Dim             ....  615

ORBITAL ENERGIES
----------------

  NO   OCC          E(Eh)            E(eV)
   0   2.0000     -19.063623      -518.7476
   1   2.0000     -18.995335      -516.8893
   2   2.0000     -18.939364      -515.3663
   3   2.0000     -18.933000      -515.1931
   4   2.0000     -18.931153      -515.1429
   5   2.0000     -18.906601      -514.4748
   6   2.0000     -14.249848      -387.7581
   7   2.0000     -14.237251      -387.4153
   8   2.0000     -14.219331      -386.9277
   9   2.0000     -14.203061      -386.4849
  10   2.0000     -14.196531      -386.3072
  11   2.0000     -10.160990      -276.4946
  12   2.0000     -10.157424      -276.3976
  13   2.0000     -10.152581      -276.2658
  14   2.0000     -10.147981      -276.1406
  15   2.0000     -10.145992      -276.0865
  16   2.0000     -10.143637      -276.0224
  17   2.0000     -10.123557      -275.4760
  18   2.0000     -10.106155      -275.0025
  19   2.0000     -10.078067      -274.2381
  20   2.0000     -10.074129      -274.1310
  21   2.0000     -10.064674      -273.8737
  22   2.0000     -10.045232      -273.3447
  23   2.0000     -10.031724      -272.9771
  24   2.0000     -10.027716      -272.8680
  25   2.0000      -1.153777       -31.3959
  26   2.0000      -1.071670       -29.1616
  27   2.0000      -1.038792       -28.2670
  28   2.0000      -1.025287       -27.8995
  29   2.0000      -1.002106       -27.2687
  30   2.0000      -0.978350       -26.6222
  31   2.0000      -0.974485       -26.5171
  32   2.0000      -0.973144       -26.4806
  33   2.0000      -0.928478       -25.2652
  34   2.0000      -0.912807       -24.8387
  35   2.0000      -0.831159       -22.6170
  36   2.0000      -0.794964       -21.6321
  37   2.0000      -0.749123       -20.3847
  38   2.0000      -0.714545       -19.4438
  39   2.0000      -0.695911       -18.9367
  40   2.0000      -0.693272       -18.8649
  41   2.0000      -0.671070       -18.2607
  42   2.0000      -0.663420       -18.0526
  43   2.0000      -0.657335       -17.8870
  44   2.0000      -0.641593       -17.4586
  45   2.0000      -0.613420       -16.6920
  46   2.0000      -0.599217       -16.3055
  47   2.0000      -0.564951       -15.3731
  48   2.0000      -0.552345       -15.0301
  49   2.0000      -0.533250       -14.5105
  50   2.0000      -0.529964       -14.4211
  51   2.0000      -0.502024       -13.6608
  52   2.0000      -0.495080       -13.4718
  53   2.0000      -0.488454       -13.2915
  54   2.0000      -0.473113       -12.8740
  55   2.0000      -0.465566       -12.6687
  56   2.0000      -0.463141       -12.6027
  57   2.0000      -0.455087       -12.3835
  58   2.0000      -0.445310       -12.1175
  59   2.0000      -0.439885       -11.9699
  60   2.0000      -0.433371       -11.7926
  61   2.0000      -0.423851       -11.5336
  62   2.0000      -0.409716       -11.1489
  63   2.0000      -0.407934       -11.1004
  64   2.0000      -0.406026       -11.0485
  65   2.0000      -0.395629       -10.7656
  66   2.0000      -0.393645       -10.7116
  67   2.0000      -0.383280       -10.4296
  68   2.0000      -0.382009       -10.3950
  69   2.0000      -0.380184       -10.3453
  70   2.0000      -0.378126       -10.2893
  71   2.0000      -0.373655       -10.1677
  72   2.0000      -0.370340       -10.0775
  73   2.0000      -0.360191        -9.8013
  74   2.0000      -0.356097        -9.6899
  75   2.0000      -0.353141        -9.6094
  76   2.0000      -0.344213        -9.3665
  77   2.0000      -0.339868        -9.2483
  78   2.0000      -0.338098        -9.2001
  79   2.0000      -0.327487        -8.9114
  80   2.0000      -0.319319        -8.6891
  81   2.0000      -0.312779        -8.5112
  82   2.0000      -0.288818        -7.8591
  83   2.0000      -0.271408        -7.3854
  84   2.0000      -0.267047        -7.2667
  85   2.0000      -0.262374        -7.1396
  86   2.0000      -0.261164        -7.1066
  87   2.0000      -0.248018        -6.7489
  88   2.0000      -0.239517        -6.5176
  89   2.0000      -0.238264        -6.4835
  90   2.0000      -0.204946        -5.5769
  91   2.0000      -0.189954        -5.1689
  92   0.0000      -0.087650        -2.3851
  93   0.0000      -0.081457        -2.2166
  94   0.0000      -0.059608        -1.6220
  95   0.0000      -0.020676        -0.5626
  96   0.0000       0.017099         0.4653

MULLIKEN ATOMIC CHARGES
-----------------------
   0 C :   -0.321315
   1 O :   -0.160994
   2 C :    0.218119
   3 O :   -0.478531
   4 C :   -0.044463
   5 N :    0.047728
   6 C :    0.170714
   7 C :   -0.154495
   8 C :   -0.538236
   9 C :   -0.495680
  10 N :    0.168303
  11 C :   -0.449715
  12 C :   -0.110122
  13 O :   -0.420399
  14 C :    0.378482
  15 N :   -0.162367
  16 N :   -0.278870
  17 C :    0.390579
  18 C :   -0.637870
  19 O :   -0.046827
  20 N :    0.013264
  21 C :    0.090426
  22 O :   -0.363487
  23 C :   -0.025322
  24 O :   -0.359707
  25 H :    0.173056
  26 H :    0.174824
  27 H :    0.173225
  28 H :    0.207895
  29 H :    0.187189
  30 H :    0.198878
  31 H :    0.208564
  32 H :    0.197341
  33 H :    0.193888
  34 H :    0.337792
  35 H :    0.193569
  36 H :    0.191293
  37 H :    0.201169
  38 H :    0.204972
  39 H :    0.201088
  40 H :    0.200619
  41 H :    0.325423
Sum of atomic charges:   -0.0000000

LOEWDIN ATOMIC CHARGES
----------------------
   0 C :   -0.041127
   1 O :   -0.573636
   2 C :    0.396190
   3 O :   -0.473129
   4 C :    0.169109
   5 N :   -0.502164
   6 C :    0.386150
   7 C :    0.117528
   8 C :   -0.320576
   9 C :   -0.339964
  10 N :   -0.764074
  11 C :   -0.079683
  12 C :    0.399867
  13 O :   -0.460380
  14 C :    0.414513
  15 N :   -0.336303
  16 N :   -0.358857
  17 C :    0.378466
  18 C :   -0.317701
  19 O :   -0.407253
  20 N :   -0.428656
  21 C :    0.382962
  22 O :   -0.413846
  23 C :    0.247778
  24 O :   -0.520266
  25 H :    0.180186
  26 H :    0.184539
  27 H :    0.180278
  28 H :    0.185884
  29 H :    0.171790
  30 H :    0.184930
  31 H :    0.184559
  32 H :    0.178408
  33 H :    0.176660
  34 H :    0.329686
  35 H :    0.201702
  36 H :    0.205310
  37 H :    0.194138
  38 H :    0.191079
  39 H :    0.191728
  40 H :    0.191541
  41 H :    0.312634

  Mayer bond orders larger than 0.100000
B(  0-C ,  1-O ) :   0.8313 B(  0-C , 25-H ) :   0.9583 B(  0-C , 26-H ) :   0.9647
B(  0-C , 27-H ) :   0.9578 B(  1-O ,  2-C ) :   1.1915 B(  2-C ,  3-O ) :   1.7706
B(  2-C ,  4-C ) :   1.1340 B(  4-C ,  5-N ) :   1.0450 B(  4-C , 23-C ) :   0.9754
B(  5-N ,  6-C ) :   1.4933 B(  5-N , 20-N ) :   0.1209 B(  5-N , 34-H ) :   0.8560
B(  6-C ,  7-C ) :   0.7780 B(  6-C ,  9-C ) :  -0.1255 B(  6-C , 20-N ) :   1.2203
B(  7-C ,  8-C ) :   0.9648 B(  7-C ,  9-C ) :   1.0513 B(  7-C , 10-N ) :   0.8741
B(  8-C , 28-H ) :   0.9588 B(  8-C , 29-H ) :   0.9306 B(  8-C , 30-H ) :   0.9576
B(  9-C , 31-H ) :   0.9697 B(  9-C , 32-H ) :   0.9323 B(  9-C , 33-H ) :   0.9459
B( 10-N , 11-C ) :   0.9137 B( 10-N , 12-C ) :   1.2045 B( 11-C , 35-H ) :   0.9226
B( 11-C , 36-H ) :   0.9316 B( 11-C , 37-H ) :   0.9395 B( 12-C , 13-O ) :   1.8423
B( 12-C , 14-C ) :   0.8363 B( 14-C , 15-N ) :   1.6706 B( 14-C , 17-C ) :   0.1094
B( 14-C , 19-O ) :   1.0840 B( 15-N , 16-N ) :   1.2739 B( 16-N , 17-C ) :   1.6306
B( 17-C , 18-C ) :   0.8258 B( 17-C , 19-O ) :   1.0637 B( 18-C , 38-H ) :   0.9893
B( 18-C , 39-H ) :   0.9431 B( 18-C , 40-H ) :   0.9420 B( 20-N , 21-C ) :   0.9153
B( 20-N , 41-H ) :   0.8802 B( 21-C , 22-O ) :   2.0807 B( 21-C , 23-C ) :   0.8557
B( 23-C , 24-O ) :   1.9515

Dispersion correction           -0.019599567
FINAL SINGLE POINT ENERGY     -1268.640848482722

DIPOLE MOMENT
-------------
                                X             Y             Z
Electronic contribution:      8.16602      -1.36814       2.46797
Nuclear contribution   :    -12.86251       1.91220      -5.02946
                        -----------------------------------------
Total Dipole Moment    :     -4.69649       0.54406      -2.56149
                        -----------------------------------------
Magnitude (a.u.)       :      5.37720
Magnitude (Debye)      :     13.66776

Rotational constants in cm-1:     0.011242     0.004437     0.003578
Rotational constants in MHz :   337.014517   133.003404   107.256476

                             ****ORCA TERMINATED NORMALLY****
TOTAL RUN TIME: 0 days 0 hours 2 minutes 17 seconds 467 msec
