   * xtb version 6.5.1 (579679a) compiled by 'ehlert@majestix' on 2022-07-11
          program call               : /lustre/hpc/kemi/ree/PhD/git/ReactivityQM/dep/xtb-6.5.1/bin/xtb --gfn 1 /lustre/hpc/kemi/ree/PhD/git/ReactivityQM/calculations/R02methylcation/reac01prodN17/conf12/R02methylcation_reac01prodN17_conf12_gfn1.xyz --opt --vfukui --chrg 0 --uhf 0 --alpb DMSO

   ID    Z sym.   atoms
    1    6 C      1, 3, 5, 7-10, 12, 13, 15, 18, 19, 22, 24
    2    8 O      2, 4, 14, 20, 23, 25
    3    7 N      6, 11, 16, 17, 21
    4    1 H      26-42

      * Solvation model:               ALPB
        Solvent                        DMSO
        Solvent mass                       7.8130E+01 g/mol
          :  Hamiltonian                  GFN1-xTB          :
 * total energy  :   -82.9326073 Eh     change       -0.9835333E-10 Eh
 * total energy  :   -82.9450521 Eh     change       -0.1244477E-01 Eh
 * total energy  :   -82.9492580 Eh     change       -0.4205845E-02 Eh
 * total energy  :   -82.9498012 Eh     change       -0.5432303E-03 Eh
 * total energy  :   -82.9500621 Eh     change       -0.2608836E-03 Eh
 * total energy  :   -82.9501997 Eh     change       -0.1375874E-03 Eh
 * total energy  :   -82.9503410 Eh     change       -0.1413081E-03 Eh
 * total energy  :   -82.9504565 Eh     change       -0.1155441E-03 Eh
 * total energy  :   -82.9505484 Eh     change       -0.9193916E-04 Eh
 * total energy  :   -82.9506171 Eh     change       -0.6862354E-04 Eh
 * total energy  :   -82.9994907 Eh     change       -0.1527780E-04 Eh
 * total energy  :   -82.9995053 Eh     change       -0.1464427E-04 Eh
 * total energy  :   -82.9995043 Eh     change        0.1036965E-05 Eh
 * total energy  :   -82.9995142 Eh     change       -0.9966632E-05 Eh
 * total energy  :   -82.9995290 Eh     change       -0.1477983E-04 Eh
 * total energy  :   -82.9995369 Eh     change       -0.7839035E-05 Eh
 * total energy  :   -82.9995424 Eh     change       -0.5510802E-05 Eh
 * total energy  :   -82.9995482 Eh     change       -0.5846619E-05 Eh
 * total energy  :   -82.9995509 Eh     change       -0.2678574E-05 Eh
   *** GEOMETRY OPTIMIZATION CONVERGED AFTER 156 ITERATIONS ***

 final structure:
================
42
 xtb: 6.5.1 (579679a)
C            4.21055502040903        2.83480345635848        2.29896086276427
O            4.08960761145734        1.98066888305211        1.15982324106616
C            2.92950504028318        1.33945170453055        1.02505546126532
O            2.00944486622622        1.44374940386483        1.82316392914064
C            2.82451677518775        0.49715530185784       -0.16164502065161
N            1.59020955529560       -0.13116120903494       -0.23074950107195
C            1.18183949169178       -0.90626983378235       -1.19520321452241
C           -0.16373398925762       -1.60189324534575       -1.11509136856227
C            0.11390389597263       -3.01268568574592       -0.57388433108668
C           -0.82394184850395       -1.73412789548174       -2.49727135481684
N           -1.03424663246858       -0.76459082629804       -0.26530800792008
C           -1.36333238148822        0.54534006976633       -0.83851684430397
C           -1.59329910102583       -1.18388130357718        0.90121170977680
O           -1.27150434150651       -2.19758246623332        1.50152702827113
C           -2.65888675813501       -0.33717185490987        1.50919615601565
N           -3.02158180873724       -0.44255205822406        2.75167645215302
N           -4.06410213926465        0.41131357560321        2.93776797761464
C           -4.28818886260509        0.97957079703374        1.79461119174282
C           -5.32447311053715        1.98258440126094        1.46682496374944
O           -3.43435310776559        0.55130338824879        0.85020186017943
N            2.04226515250911       -1.15609401389705       -2.20142511980900
C            3.33382314805518       -0.63175855013895       -2.30494485007615
O            4.01272992419131       -0.92983063938555       -3.26355093209187
C            3.78404764331020        0.29006566126649       -1.18243737446956
O            4.91082723435207        0.78137998850131       -1.23053589594055
H            4.08862358544324        2.25748353052707        3.21916193823517
H            5.20648510390563        3.27267894674322        2.25711660722065
H            3.45026388473357        3.61913148997725        2.26311317666847
H            0.64660353513999       -2.97842823549974        0.37355539771284
H            0.73592376579910       -3.52983025153775       -1.30389383397422
H           -0.81522728342094       -3.56424190022134       -0.45363756467780
H           -1.85373158940488       -2.06131267934998       -2.36595502114046
H           -0.81821722733845       -0.79157653581167       -3.03907102250579
H           -0.29888637465920       -2.47922216428323       -3.09148569145400
H            0.95794650338004        0.07384820553720        0.54255892849762
H           -0.58527721670714        0.82299392573617       -1.54547913316410
H           -1.39238359351281        1.29070824939063       -0.04692362762754
H           -2.32442790668588        0.50920787210819       -1.35013199601540
H           -5.90868423534928        2.20879820538241        2.35573319918615
H           -5.97973980693911        1.59817798767505        0.68531864551539
H           -4.85615287632556        2.89328861603739        1.09415015126592
H            1.75524845430510       -1.74949231168240       -2.96435017217336

          :  Hamiltonian                  GFN1-xTB          :
         :: total energy             -82.999550900325 Eh    ::
         :: gradient norm              0.000553511647 Eh/a0 ::
         :: HOMO-LUMO gap              2.603603866045 eV    ::
         :: SCC energy               -83.783014117506 Eh    ::
         :: -> Gsolv                  -0.073664677071 Eh    ::
         :: repulsion energy           0.810675805374 Eh    ::

    * Orbital Energies and Occupations

         #    Occupation            Energy/Eh            Energy/eV
      -------------------------------------------------------------
         1        2.0000           -0.8671770             -23.5971
       ...           ...                  ...                  ...
        55        2.0000           -0.5114948             -13.9185
        56        2.0000           -0.5054118             -13.7530
        57        2.0000           -0.5053230             -13.7505
        58        2.0000           -0.4959063             -13.4943
        59        2.0000           -0.4920873             -13.3904
        60        2.0000           -0.4799465             -13.0600
        61        2.0000           -0.4781382             -13.0108
        62        2.0000           -0.4674098             -12.7189
        63        2.0000           -0.4579944             -12.4627
        64        2.0000           -0.4534512             -12.3390
        65        2.0000           -0.4473029             -12.1717
        66        2.0000           -0.4297621             -11.6944
        67        2.0000           -0.4178929             -11.3714 (HOMO)
        68                         -0.3222122              -8.7678 (LUMO)
        69                         -0.3122076              -8.4956
        70                         -0.3060583              -8.3283
        71                         -0.2574383              -7.0053
        72                         -0.2395971              -6.5198
        73                         -0.2100854              -5.7167
        74                         -0.1603506              -4.3634
        75                         -0.1501885              -4.0868
        76                         -0.1443907              -3.9291
        77                         -0.1422164              -3.8699
        78                         -0.1349920              -3.6733
       ...                                ...                  ...
       134                          0.7540737              20.5194
      -------------------------------------------------------------
                  HL-Gap            0.0956807 Eh            2.6036 eV

Wiberg/Mayer (AO) data.
largest (>0.10) Wiberg bond orders for each atom

     #   Z sym  total        # sym  WBO       # sym  WBO       # sym  WBO
 ---------------------------------------------------------------------------
     1   6 C    3.875 --    27 H    0.986    26 H    0.980    28 H    0.980
                             2 O    0.901
     2   8 O    2.197 --     3 C    1.106     1 C    0.901     4 O    0.120
     3   6 C    3.868 --     4 O    1.578     2 O    1.106     5 C    1.088
     4   8 O    1.888 --     3 C    1.578     2 O    0.120
     5   6 C    3.859 --    24 C    1.260     3 C    1.088     6 N    1.069
                            25 O    0.132
     6   7 N    3.563 --     7 C    1.434     5 C    1.069    35 H    0.862
     7   6 C    3.912 --     6 N    1.434    21 N    1.219     8 C    0.975
     8   6 C    3.935 --    10 C    0.985     7 C    0.975     9 C    0.973
                            11 N    0.925
     9   6 C    3.979 --    30 H    0.982    29 H    0.981    31 H    0.977
                             8 C    0.973
    10   6 C    3.985 --     8 C    0.985    33 H    0.982    32 H    0.981
                            34 H    0.979
    11   7 N    3.367 --    13 C    1.236    12 C    0.935     8 C    0.925
                            14 O    0.171
    12   6 C    3.934 --    36 H    0.983    37 H    0.981    38 H    0.978
                            11 N    0.935
    13   6 C    3.915 --    14 O    1.583    11 N    1.236    15 C    0.990
    14   8 O    1.909 --    13 C    1.583    11 N    0.171
    15   6 C    3.875 --    16 N    1.622    20 O    1.048    13 C    0.990
    16   7 N    3.000 --    15 C    1.622    17 N    1.203
    17   7 N    2.983 --    18 C    1.609    16 N    1.203
    18   6 C    3.868 --    17 N    1.609    20 O    1.071    19 C    1.031
    19   6 C    3.986 --    18 C    1.031    39 H    0.982    41 H    0.963
                            40 H    0.963
    20   8 O    2.321 --    18 C    1.071    15 C    1.048
    21   7 N    3.452 --     7 C    1.219    22 C    1.078    42 H    0.879
                            23 O    0.116
    22   6 C    3.863 --    23 O    1.673    21 N    1.078    24 C    0.946
    23   8 O    1.940 --    22 C    1.673    21 N    0.116
    24   6 C    3.944 --    25 O    1.577     5 C    1.260    22 C    0.946
    25   8 O    1.885 --    24 C    1.577     5 C    0.132
    26   1 H    1.008 --     1 C    0.980
    27   1 H    1.011 --     1 C    0.986
    28   1 H    1.008 --     1 C    0.980
    29   1 H    1.013 --     9 C    0.981
    30   1 H    1.001 --     9 C    0.982
    31   1 H    1.004 --     9 C    0.977
    32   1 H    0.996 --    10 C    0.981
    33   1 H    0.998 --    10 C    0.982
    34   1 H    0.997 --    10 C    0.979
    35   1 H    0.938 --     6 N    0.862
    36   1 H    1.003 --    12 C    0.983
    37   1 H    1.005 --    12 C    0.981
    38   1 H    1.006 --    12 C    0.978
    39   1 H    0.998 --    19 C    0.982
    40   1 H    0.996 --    19 C    0.963
    41   1 H    0.996 --    19 C    0.963
    42   1 H    0.926 --    21 N    0.879
 ---------------------------------------------------------------------------

           -------------------------------------------------
          | TOTAL ENERGY              -82.999550900325 Eh   |
          | GRADIENT NORM               0.000553511647 Eh/α |
          | HOMO-LUMO GAP               2.603603866045 eV   |
           -------------------------------------------------

 * finished run on 2023/06/21 at 17:59:52.338
