   * xtb version 6.5.1 (579679a) compiled by 'ehlert@majestix' on 2022-07-11
          program call               : /lustre/hpc/kemi/ree/PhD/git/ReactivityQM/dep/xtb-6.5.1/bin/xtb --gfn 1 /lustre/hpc/kemi/ree/PhD/git/ReactivityQM/calculations/R02oxygendeprot/reac01prodE14/conf11/R02oxygendeprot_reac01prodE14_conf11_gfn1.xyz --opt --vfukui --chrg -2 --uhf 0 --alpb DMSO

   ID    Z sym.   atoms
    1    6 C      1, 3, 5, 7-10, 12, 14, 17, 18, 21, 23, 24
    2    8 O      2, 4, 13, 19, 22, 25
    3    7 N      6, 11, 15, 16, 20
    4    1 H      26-42

      * Solvation model:               ALPB
        Solvent                        DMSO
        Solvent mass                       7.8130E+01 g/mol
          :  Hamiltonian                  GFN1-xTB          :
 * total energy  :   -83.5823425 Eh     change       -0.1222276E-09 Eh
 * total energy  :   -83.5983199 Eh     change       -0.1597736E-01 Eh
 * total energy  :   -83.6052198 Eh     change       -0.6899986E-02 Eh
 * total energy  :   -83.6067309 Eh     change       -0.1511055E-02 Eh
 * total energy  :   -83.6075080 Eh     change       -0.7771192E-03 Eh
 * total energy  :   -83.6078423 Eh     change       -0.3342512E-03 Eh
 * total energy  :   -83.6080992 Eh     change       -0.2569827E-03 Eh
 * total energy  :   -83.6083083 Eh     change       -0.2090404E-03 Eh
 * total energy  :   -83.6084755 Eh     change       -0.1672006E-03 Eh
 * total energy  :   -83.6085949 Eh     change       -0.1194550E-03 Eh
 * total energy  :   -83.6100878 Eh     change       -0.2475865E-04 Eh
 * total energy  :   -83.6101130 Eh     change       -0.2519291E-04 Eh
 * total energy  :   -83.6101266 Eh     change       -0.1363191E-04 Eh
 * total energy  :   -83.6101458 Eh     change       -0.1920666E-04 Eh
 * total energy  :   -83.6101526 Eh     change       -0.6823819E-05 Eh
 * total energy  :   -83.6101663 Eh     change       -0.1368337E-04 Eh
 * total energy  :   -83.6101715 Eh     change       -0.5146950E-05 Eh
 * total energy  :   -83.6101791 Eh     change       -0.7669666E-05 Eh
 * total energy  :   -83.6101834 Eh     change       -0.4298869E-05 Eh
   *** GEOMETRY OPTIMIZATION CONVERGED AFTER 50 ITERATIONS ***

 final structure:
================
42
 xtb: 6.5.1 (579679a)
C           -5.54092437710305        1.92723909323688       -1.17578767203950
O           -4.56900528041613        1.51779393932817       -0.23954189715691
C           -3.55410774751178        0.69627232628184       -0.75720243535769
O           -3.60347492519152        0.41368778205157       -1.97392145446686
C           -2.56273358006820        0.30022259684131        0.15904191062558
N           -1.63850759639639       -0.55826241532070       -0.38560832693761
C           -0.62400417751044       -0.99154745440546        0.27409618056126
C            0.34449941390999       -1.96309545593202       -0.37073940473715
C            0.68251789377471       -3.14600406533912        0.54232867087888
C           -0.25604320102204       -2.48198853906403       -1.68066878966149
N            1.57400193028371       -1.22643238377231       -0.74681644036653
C            2.59588438660254       -0.88454283470596        0.06065227630701
O            2.74675876087379       -1.23181038541646        1.23018937938224
C            3.55235624623017       -0.00550466459921       -0.64641249171990
N            3.40048376462778        0.49265525262571       -1.84437416600989
N            4.51102009452601        1.24700784872466       -2.09955670252961
C            5.26676415762760        1.16136320206973       -1.05035386452812
C            6.58415939052522        1.80134918710129       -0.83518133736076
O            4.72229960496090        0.39009931324483       -0.09384482543970
N           -0.29265324383601       -0.48881888783290        1.54434850720987
C           -1.04340378616191        0.49415653482167        2.12574355633119
O           -0.54339569465962        1.17494686081586        3.03107152645501
C           -2.55548723329384        0.52418489959525        1.70576370698668
C           -3.06736509781651        1.96252358433262        2.06356540073252
O           -3.17506367375675       -0.44349871932343        2.40081072624667
H           -6.25965207155210        2.55772627463241       -0.64975889153756
H           -6.06880404167455        1.06863208924497       -1.61056728805463
H           -5.09206229450578        2.50321110652808       -1.99505498956030
H           -0.20107394573843       -3.77502742908464        0.64902675675287
H            0.99355358890546       -2.81514622821184        1.53100029013301
H            1.48344251929112       -3.74000206841306        0.10490495903985
H            0.45153062158655       -3.13574345792320       -2.18732675517871
H           -0.50901609613100       -1.64794827994354       -2.33591574429342
H           -1.16798216029637       -3.03971177758002       -1.47021205981023
H            1.59207611872919       -0.84720845242653       -1.68222904886280
H            6.91029505667973        2.28083392255587       -1.75454341572809
H            7.31726337300257        1.05526307009635       -0.53242327198242
H            6.51622588301540        2.54879356263696       -0.04441156855312
H            0.65722544658396       -0.59892547221381        1.86814238646974
H           -4.15541501725688        1.96946120641011        2.07982429772783
H           -2.70727174579342        2.70769832632995        1.35284890850606
H           -2.71491226404756        2.22609499200511        3.06256340153183

          :  Hamiltonian                  GFN1-xTB          :
         :: total energy             -83.610183435111 Eh    ::
         :: gradient norm              0.000623154234 Eh/a0 ::
         :: HOMO-LUMO gap              0.251662968243 eV    ::
         :: SCC energy               -84.343592875678 Eh    ::
         :: -> Gsolv                  -0.303699930686 Eh    ::
         :: repulsion energy           0.759330049915 Eh    ::

    * Orbital Energies and Occupations

         #    Occupation            Energy/Eh            Energy/eV
      -------------------------------------------------------------
         1        2.0000           -0.8442134             -22.9722
       ...           ...                  ...                  ...
        56        2.0000           -0.4402245             -11.9791
        57        2.0000           -0.4366968             -11.8831
        58        2.0000           -0.4301256             -11.7043
        59        2.0000           -0.4278238             -11.6417
        60        2.0000           -0.4210821             -11.4582
        61        2.0000           -0.4142380             -11.2720
        62        2.0000           -0.3992906             -10.8652
        63        2.0000           -0.3912614             -10.6468
        64        2.0000           -0.3851993             -10.4818
        65        2.0000           -0.3702094             -10.0739
        66        2.0000           -0.3071272              -8.3574
        67        1.9944           -0.2992936              -8.1442
        68        1.9873           -0.2985078              -8.1228 (HOMO)
        69        0.0183           -0.2892593              -7.8711 (LUMO)
        70                         -0.2415404              -6.5726
        71                         -0.2130001              -5.7960
        72                         -0.1767550              -4.8097
        73                         -0.1692185              -4.6047
        74                         -0.1361663              -3.7053
        75                         -0.1160244              -3.1572
        76                         -0.1068899              -2.9086
        77                         -0.1054723              -2.8700
        78                         -0.1034171              -2.8141
        79                         -0.0753060              -2.0492
       ...                                ...                  ...
       134                          0.7248262              19.7235
      -------------------------------------------------------------
                  HL-Gap            0.0092484 Eh            0.2517 eV

Wiberg/Mayer (AO) data.
largest (>0.10) Wiberg bond orders for each atom

     #   Z sym  total        # sym  WBO       # sym  WBO       # sym  WBO
 ---------------------------------------------------------------------------
     1   6 C    3.921 --    26 H    0.987    27 H    0.980    28 H    0.980
                             2 O    0.951
     2   8 O    2.085 --     1 C    0.951     3 C    0.937
     3   6 C    3.838 --     4 O    1.451     5 C    1.315     2 O    0.937
     4   8 O    1.740 --     3 C    1.451     5 C    0.101
     5   6 C    3.803 --     3 C    1.315     6 N    1.201    23 C    0.918
                             4 O    0.101
     6   7 N    3.051 --     7 C    1.597     5 C    1.201
     7   6 C    3.906 --     6 N    1.597    20 N    1.019     8 C    0.969
     8   6 C    3.924 --    10 C    1.001     9 C    0.995     7 C    0.969
                            11 N    0.894
     9   6 C    3.992 --     8 C    0.995    31 H    0.986    29 H    0.986
                            30 H    0.980
    10   6 C    3.996 --     8 C    1.001    32 H    0.988    34 H    0.984
                            33 H    0.982
    11   7 N    3.344 --    12 C    1.260    35 H    0.904     8 C    0.894
                            13 O    0.174
    12   6 C    3.891 --    13 O    1.529    11 N    1.260    14 C    1.008
    13   8 O    1.852 --    12 C    1.529    11 N    0.174
    14   6 C    3.833 --    15 N    1.571    19 O    1.045    12 C    1.008
    15   7 N    2.959 --    14 C    1.571    16 N    1.187
    16   7 N    2.979 --    17 C    1.619    15 N    1.187
    17   6 C    3.862 --    16 N    1.619    19 O    1.075    18 C    1.029
    18   6 C    3.989 --    17 C    1.029    36 H    0.983    37 H    0.969
                            38 H    0.964
    19   8 O    2.295 --    17 C    1.075    14 C    1.045
    20   7 N    3.366 --    21 C    1.182     7 C    1.019    39 H    0.903
                            22 O    0.117
    21   6 C    3.817 --    22 O    1.556    20 N    1.182    23 C    0.879
    22   8 O    1.826 --    21 C    1.556    20 N    0.117
    23   6 C    3.964 --    25 O    1.123    24 C    0.946     5 C    0.918
                            21 C    0.879
    24   6 C    3.989 --    41 H    0.990    40 H    0.987    42 H    0.985
                            23 C    0.946
    25   8 O    1.415 --    23 C    1.123
    26   1 H    1.020 --     1 C    0.987
    27   1 H    1.022 --     1 C    0.980
    28   1 H    1.022 --     1 C    0.980
    29   1 H    1.007 --     9 C    0.986
    30   1 H    1.019 --     9 C    0.980
    31   1 H    1.004 --     9 C    0.986
    32   1 H    1.004 --    10 C    0.988
    33   1 H    1.021 --    10 C    0.982
    34   1 H    1.013 --    10 C    0.984
    35   1 H    0.964 --    11 N    0.904
    36   1 H    1.000 --    18 C    0.983
    37   1 H    0.998 --    18 C    0.969
    38   1 H    0.998 --    18 C    0.964
    39   1 H    0.971 --    20 N    0.903
    40   1 H    1.034 --    24 C    0.987
    41   1 H    1.017 --    24 C    0.990
    42   1 H    1.027 --    24 C    0.985
 ---------------------------------------------------------------------------

           -------------------------------------------------
          | TOTAL ENERGY              -83.610183435111 Eh   |
          | GRADIENT NORM               0.000623154234 Eh/α |
          | HOMO-LUMO GAP               0.251662968243 eV   |
           -------------------------------------------------

 * finished run on 2023/06/21 at 17:16:14.149
