                         Program Version 5.0.1 -  RELEASE  -
|  1> # ORCA input file
|  2> ! SP r2SCAN-3c CPCM
|  3>
|  4> %maxcore 1875.0
|  5> %pal nprocs 4 end
|  6> %cpcm smd true SMDsolvent "DMSO" end
|  7>
|  8> *xyz -1 1
|  9> C      -6.542391   -0.744069    0.038436
| 10> O      -5.276347   -0.728375   -0.603273
| 11> C      -4.260147   -0.173696    0.107325
| 12> O      -4.459108    0.267444    1.234264
| 13> C      -2.977407   -0.153192   -0.577621
| 14> N      -1.979033    0.440100    0.176533
| 15> C      -0.791781    0.543082   -0.286468
| 16> C       0.298602    1.232986    0.507292
| 17> C       0.540164    2.632543   -0.066972
| 18> C      -0.091828    1.314129    1.985361
| 19> N       1.552493    0.481159    0.357796
| 20> C       1.664065   -0.820117    0.688881
| 21> O       0.748930   -1.531541    1.069739
| 22> C       3.046007   -1.342003    0.517360
| 23> N       3.461734   -2.553991    0.717022
| 24> N       4.793754   -2.566688    0.422299
| 25> C       5.107256   -1.362367    0.061030
| 26> C       6.431689   -0.856472   -0.359315
| 27> O       4.047241   -0.537552    0.098673
| 28> N      -0.451029    0.090296   -1.545219
| 29> C      -1.332341   -0.525476   -2.394288
| 30> O      -0.952633   -0.903366   -3.500959
| 31> C      -2.745416   -0.683468   -1.873989
| 32> O      -3.584208   -1.247718   -2.601385
| 33> H      -6.877893    0.274118    0.259073
| 34> H      -6.497603   -1.308922    0.975000
| 35> H      -7.242607   -1.221271   -0.646199
| 36> H       0.827981    2.565186   -1.114656
| 37> H       1.333562    3.133394    0.484345
| 38> H      -0.370779    3.224274    0.011336
| 39> H       0.696742    1.804917    2.551376
| 40> H      -1.014056    1.886314    2.079737
| 41> H      -0.256485    0.315230    2.388037
| 42> H       2.383303    0.996335    0.129777
| 43> H       7.161720   -1.660851   -0.318705
| 44> H       6.744387   -0.044489    0.296327
| 45> H       6.374849   -0.464467   -1.374633
| 46> H       0.488612    0.228587   -1.876813
| 47> **                         ****END OF INPUT****

CARTESIAN COORDINATES (ANGSTROEM)
---------------------------------
  C     -6.542391   -0.744069    0.038436
  O     -5.276347   -0.728375   -0.603273
  C     -4.260147   -0.173696    0.107325
  O     -4.459108    0.267444    1.234264
  C     -2.977407   -0.153192   -0.577621
  N     -1.979033    0.440100    0.176533
  C     -0.791781    0.543082   -0.286468
  C      0.298602    1.232986    0.507292
  C      0.540164    2.632543   -0.066972
  C     -0.091828    1.314129    1.985361
  N      1.552493    0.481159    0.357796
  C      1.664065   -0.820117    0.688881
  O      0.748930   -1.531541    1.069739
  C      3.046007   -1.342003    0.517360
  N      3.461734   -2.553991    0.717022
  N      4.793754   -2.566688    0.422299
  C      5.107256   -1.362367    0.061030
  C      6.431689   -0.856472   -0.359315
  O      4.047241   -0.537552    0.098673
  N     -0.451029    0.090296   -1.545219
  C     -1.332341   -0.525476   -2.394288
  O     -0.952633   -0.903366   -3.500959
  C     -2.745416   -0.683468   -1.873989
  O     -3.584208   -1.247718   -2.601385
  H     -6.877893    0.274118    0.259073
  H     -6.497603   -1.308922    0.975000
  H     -7.242607   -1.221271   -0.646199
  H      0.827981    2.565186   -1.114656
  H      1.333562    3.133394    0.484345
  H     -0.370779    3.224274    0.011336
  H      0.696742    1.804917    2.551376
  H     -1.014056    1.886314    2.079737
  H     -0.256485    0.315230    2.388037
  H      2.383303    0.996335    0.129777
  H      7.161720   -1.660851   -0.318705
  H      6.744387   -0.044489    0.296327
  H      6.374849   -0.464467   -1.374633
  H      0.488612    0.228587   -1.876813

 Total Charge           Charge          ....   -1
 Multiplicity           Mult            ....    1
 Number of Electrons    NEL             ....  176
 Basis Dimension        Dim             ....  581

ORBITAL ENERGIES
----------------

  NO   OCC          E(Eh)            E(eV)
   0   2.0000     -19.064020      -518.7583
   1   2.0000     -18.966525      -516.1054
   2   2.0000     -18.932148      -515.1699
   3   2.0000     -18.903126      -514.3802
   4   2.0000     -18.899875      -514.2917
   5   2.0000     -18.874323      -513.5965
   6   2.0000     -14.202919      -386.4811
   7   2.0000     -14.197864      -386.3435
   8   2.0000     -14.195784      -386.2869
   9   2.0000     -14.194151      -386.2425
  10   2.0000     -14.133401      -384.5894
  11   2.0000     -10.153785      -276.2985
  12   2.0000     -10.145688      -276.0782
  13   2.0000     -10.140907      -275.9481
  14   2.0000     -10.122191      -275.4388
  15   2.0000     -10.111329      -275.1432
  16   2.0000     -10.092034      -274.6182
  17   2.0000     -10.085740      -274.4469
  18   2.0000     -10.069700      -274.0105
  19   2.0000     -10.060268      -273.7538
  20   2.0000     -10.044117      -273.3143
  21   2.0000     -10.032749      -273.0050
  22   2.0000     -10.022012      -272.7128
  23   2.0000     -10.011669      -272.4314
  24   2.0000      -1.153444       -31.3868
  25   2.0000      -1.037564       -28.2336
  26   2.0000      -1.020764       -27.7764
  27   2.0000      -0.993983       -27.0476
  28   2.0000      -0.973538       -26.4913
  29   2.0000      -0.944470       -25.7003
  30   2.0000      -0.934471       -25.4283
  31   2.0000      -0.932335       -25.3701
  32   2.0000      -0.904712       -24.6185
  33   2.0000      -0.843790       -22.9607
  34   2.0000      -0.829494       -22.5717
  35   2.0000      -0.767353       -20.8807
  36   2.0000      -0.712493       -19.3879
  37   2.0000      -0.705711       -19.2034
  38   2.0000      -0.666901       -18.1473
  39   2.0000      -0.663391       -18.0518
  40   2.0000      -0.658009       -17.9053
  41   2.0000      -0.613270       -16.6879
  42   2.0000      -0.603609       -16.4250
  43   2.0000      -0.598741       -16.2926
  44   2.0000      -0.578629       -15.7453
  45   2.0000      -0.543470       -14.7886
  46   2.0000      -0.528192       -14.3728
  47   2.0000      -0.517936       -14.0937
  48   2.0000      -0.495755       -13.4902
  49   2.0000      -0.492363       -13.3979
  50   2.0000      -0.471156       -12.8208
  51   2.0000      -0.467005       -12.7079
  52   2.0000      -0.457650       -12.4533
  53   2.0000      -0.430145       -11.7048
  54   2.0000      -0.424992       -11.5646
  55   2.0000      -0.419273       -11.4090
  56   2.0000      -0.412106       -11.2140
  57   2.0000      -0.407645       -11.0926
  58   2.0000      -0.406816       -11.0700
  59   2.0000      -0.402574       -10.9546
  60   2.0000      -0.394791       -10.7428
  61   2.0000      -0.383989       -10.4489
  62   2.0000      -0.380246       -10.3470
  63   2.0000      -0.377311       -10.2672
  64   2.0000      -0.369832       -10.0636
  65   2.0000      -0.361785        -9.8447
  66   2.0000      -0.354274        -9.6403
  67   2.0000      -0.347549        -9.4573
  68   2.0000      -0.347369        -9.4524
  69   2.0000      -0.344486        -9.3739
  70   2.0000      -0.342283        -9.3140
  71   2.0000      -0.327373        -8.9083
  72   2.0000      -0.320450        -8.7199
  73   2.0000      -0.312527        -8.5043
  74   2.0000      -0.309952        -8.4342
  75   2.0000      -0.303081        -8.2472
  76   2.0000      -0.297252        -8.0886
  77   2.0000      -0.266292        -7.2462
  78   2.0000      -0.260833        -7.0976
  79   2.0000      -0.251837        -6.8528
  80   2.0000      -0.247768        -6.7421
  81   2.0000      -0.242461        -6.5977
  82   2.0000      -0.238671        -6.4946
  83   2.0000      -0.236083        -6.4241
  84   2.0000      -0.222491        -6.0543
  85   2.0000      -0.205825        -5.6008
  86   2.0000      -0.169091        -4.6012
  87   2.0000      -0.153690        -4.1821
  88   0.0000      -0.084174        -2.2905
  89   0.0000      -0.048569        -1.3216
  90   0.0000      -0.018718        -0.5093
  91   0.0000      -0.003250        -0.0884
  92   0.0000       0.046569         1.2672

MULLIKEN ATOMIC CHARGES
-----------------------
   0 C :   -0.330836
   1 O :   -0.150571
   2 C :    0.131436
   3 O :   -0.439360
   4 C :   -0.040609
   5 N :   -0.148857
   6 C :    0.157840
   7 C :    0.123536
   8 C :   -0.562047
   9 C :   -0.632291
  10 N :   -0.167294
  11 C :   -0.132410
  12 O :   -0.427430
  13 C :    0.435405
  14 N :   -0.177872
  15 N :   -0.282006
  16 C :    0.393618
  17 C :   -0.634680
  18 O :   -0.056862
  19 N :   -0.027722
  20 C :    0.010006
  21 O :   -0.398130
  22 C :   -0.102693
  23 O :   -0.372688
  24 H :    0.161496
  25 H :    0.162014
  26 H :    0.162819
  27 H :    0.186171
  28 H :    0.184900
  29 H :    0.193692
  30 H :    0.180892
  31 H :    0.185099
  32 H :    0.195106
  33 H :    0.317104
  34 H :    0.204882
  35 H :    0.200629
  36 H :    0.201173
  37 H :    0.296541
Sum of atomic charges:   -1.0000000

LOEWDIN ATOMIC CHARGES
----------------------
   0 C :   -0.056790
   1 O :   -0.605464
   2 C :    0.385919
   3 O :   -0.484597
   4 C :    0.114892
   5 N :   -0.598916
   6 C :    0.312328
   7 C :    0.105876
   8 C :   -0.344808
   9 C :   -0.350850
  10 N :   -0.575678
  11 C :    0.377409
  12 O :   -0.440371
  13 C :    0.414432
  14 N :   -0.336253
  15 N :   -0.361722
  16 C :    0.377537
  17 C :   -0.317566
  18 O :   -0.392190
  19 N :   -0.482573
  20 C :    0.355287
  21 O :   -0.482754
  22 C :    0.225773
  23 O :   -0.571683
  24 H :    0.172559
  25 H :    0.172900
  26 H :    0.176628
  27 H :    0.172324
  28 H :    0.171047
  29 H :    0.176597
  30 H :    0.165029
  31 H :    0.175424
  32 H :    0.179975
  33 H :    0.298051
  34 H :    0.190902
  35 H :    0.191524
  36 H :    0.191788
  37 H :    0.298017

  Mayer bond orders larger than 0.100000
B(  0-C ,  1-O ) :   0.8493 B(  0-C , 24-H ) :   0.9623 B(  0-C , 25-H ) :   0.9625
B(  0-C , 26-H ) :   0.9697 B(  1-O ,  2-C ) :   1.1227 B(  2-C ,  3-O ) :   1.8894
B(  2-C ,  4-C ) :   1.1562 B(  4-C ,  5-N ) :   0.8825 B(  4-C , 22-C ) :   0.9776
B(  5-N ,  6-C ) :   1.8726 B(  6-C ,  7-C ) :   0.7927 B(  6-C , 19-N ) :   1.0030
B(  7-C ,  8-C ) :   0.9458 B(  7-C ,  9-C ) :   0.8768 B(  7-C , 10-N ) :   0.7866
B(  8-C , 27-H ) :   0.9558 B(  8-C , 28-H ) :   0.9659 B(  8-C , 29-H ) :   0.9697
B(  9-C , 30-H ) :   0.9752 B(  9-C , 31-H ) :   0.9631 B(  9-C , 32-H ) :   0.9710
B( 10-N , 11-C ) :   1.1704 B( 10-N , 33-H ) :   0.8906 B( 11-C , 12-O ) :   1.8916
B( 11-C , 13-C ) :   0.7852 B( 13-C , 14-N ) :   1.7223 B( 13-C , 16-C ) :   0.1144
B( 13-C , 18-O ) :   1.0738 B( 14-N , 15-N ) :   1.2705 B( 15-N , 16-C ) :   1.6311
B( 16-C , 17-C ) :   0.8271 B( 16-C , 18-O ) :   1.0656 B( 17-C , 34-H ) :   0.9904
B( 17-C , 35-H ) :   0.9428 B( 17-C , 36-H ) :   0.9419 B( 19-N , 20-C ) :   1.0178
B( 19-N , 37-H ) :   0.8852 B( 20-C , 21-O ) :   2.0827 B( 20-C , 22-C ) :   0.8808
B( 22-C , 23-O ) :   1.9591

Dispersion correction           -0.017091308
FINAL SINGLE POINT ENERGY     -1228.900982081539

DIPOLE MOMENT
-------------
                                X             Y             Z
Electronic contribution:      1.52489     -10.14190      -5.32972
Nuclear contribution   :      5.95567      14.31161       6.81481
                        -----------------------------------------
Total Dipole Moment    :      7.48056       4.16971       1.48509
                        -----------------------------------------
Magnitude (a.u.)       :      8.69199
Magnitude (Debye)      :     22.09329

Rotational constants in cm-1:     0.017114     0.003772     0.003577
Rotational constants in MHz :   513.072769   113.093831   107.226238

                             ****ORCA TERMINATED NORMALLY****
TOTAL RUN TIME: 0 days 0 hours 2 minutes 41 seconds 141 msec
