   * xtb version 6.5.1 (579679a) compiled by 'ehlert@majestix' on 2022-07-11
          program call               : /lustre/hpc/kemi/ree/PhD/git/ReactivityQM/dep/xtb-6.5.1/bin/xtb --gfn 1 /lustre/hpc/kemi/ree/PhD/git/ReactivityQM/calculations/R02methylcation/reac01/conf19/R02methylcation_reac01_conf19_gfn1.xyz --opt --vfukui --chrg -1 --uhf 0 --alpb DMSO

   ID    Z sym.   atoms
    1    6 C      1, 3, 5, 7-10, 12, 14, 17, 18, 21, 23
    2    8 O      2, 4, 13, 19, 22, 24
    3    7 N      6, 11, 15, 16, 20
    4    1 H      25-38

      * Solvation model:               ALPB
        Solvent                        DMSO
        Solvent mass                       7.8130E+01 g/mol
          :  Hamiltonian                  GFN1-xTB          :
 * total energy  :   -79.6067488 Eh     change       -0.3869616E-10 Eh
 * total energy  :   -79.6188709 Eh     change       -0.1212217E-01 Eh
 * total energy  :   -79.6232534 Eh     change       -0.4382436E-02 Eh
 * total energy  :   -79.6241004 Eh     change       -0.8470720E-03 Eh
 * total energy  :   -79.6249295 Eh     change       -0.8290760E-03 Eh
 * total energy  :   -79.6254786 Eh     change       -0.5491430E-03 Eh
 * total energy  :   -79.6259536 Eh     change       -0.4749455E-03 Eh
 * total energy  :   -79.6262530 Eh     change       -0.2994104E-03 Eh
 * total energy  :   -79.6263734 Eh     change       -0.1204331E-03 Eh
 * total energy  :   -79.6264290 Eh     change       -0.5553184E-04 Eh
 * total energy  :   -79.6272054 Eh     change       -0.2985690E-04 Eh
 * total energy  :   -79.6272162 Eh     change       -0.1081880E-04 Eh
 * total energy  :   -79.6272364 Eh     change       -0.2017760E-04 Eh
 * total energy  :   -79.6272423 Eh     change       -0.5906154E-05 Eh
 * total energy  :   -79.6272510 Eh     change       -0.8743120E-05 Eh
 * total energy  :   -79.6272566 Eh     change       -0.5565683E-05 Eh
 * total energy  :   -79.6272623 Eh     change       -0.5655039E-05 Eh
 * total energy  :   -79.6272684 Eh     change       -0.6114820E-05 Eh
 * total energy  :   -79.6272731 Eh     change       -0.4727630E-05 Eh
   *** GEOMETRY OPTIMIZATION CONVERGED AFTER 38 ITERATIONS ***

 final structure:
================
38
 xtb: 6.5.1 (579679a)
C           -6.54239100526662       -0.74406860062712        0.03843595315262
O           -5.27634674132703       -0.72837493004703       -0.60327289202777
C           -4.26014733950007       -0.17369581768774        0.10732469855039
O           -4.45910751931339        0.26744418601259        1.23426401673765
C           -2.97740654921123       -0.15319216001382       -0.57762065046968
N           -1.97903329985036        0.44009964291984        0.17653255025368
C           -0.79178070705277        0.54308197870031       -0.28646753456314
C            0.29860216335488        1.23298576083913        0.50729238564637
C            0.54016448269130        2.63254267437418       -0.06697171744645
C           -0.09182801713969        1.31412898020316        1.98536067222321
N            1.55249348762470        0.48115857869271        0.35779569029687
C            1.66406486517125       -0.82011686516976        0.68888121741072
O            0.74892980349550       -1.53154070657524        1.06973900611066
C            3.04600652671724       -1.34200341795959        0.51736046669980
N            3.46173441966309       -2.55399141561921        0.71702234891207
N            4.79375358682780       -2.56668847014196        0.42229854145961
C            5.10725586957648       -1.36236689440039        0.06102951796982
C            6.43168872860864       -0.85647191699763       -0.35931468603603
O            4.04724099411338       -0.53755219025011        0.09867269169602
N           -0.45102853216785        0.09029606017855       -1.54521861567534
C           -1.33234082467980       -0.52547646081339       -2.39428832883576
O           -0.95263335936328       -0.90336587379031       -3.50095854443061
C           -2.74541633651466       -0.68346810703835       -1.87398872532790
O           -3.58420755115002       -1.24771770459979       -2.60138548861979
H           -6.87789321406912        0.27411819283941        0.25907324913926
H           -6.49760275589839       -1.30892194800956        0.97500033666684
H           -7.24260708095921       -1.22127103887815       -0.64619929477301
H            0.82798107896180        2.56518647364767       -1.11465577487611
H            1.33356242390927        3.13339445489748        0.48434526037824
H           -0.37077890542490        3.22427386512925        0.01133648213131
H            0.69674209684293        1.80491669799662        2.55137637622310
H           -1.01405617045352        1.88631355989145        2.07973709674383
H           -0.25648497322221        0.31523010416407        2.38803713567625
H            2.38330300012883        0.99633488406758        0.12977737132374
H            7.16172037855571       -1.66085124988658       -0.31870488599932
H            6.74438720715630       -0.04448929900503        0.29632702744548
H            6.37484880475637       -0.46446744037637       -1.37463254835298
H            0.48861196441231        0.22858741333954       -1.87681340541384

          :  Hamiltonian                  GFN1-xTB          :
         :: total energy             -79.627273095859 Eh    ::
         :: gradient norm              0.000754876540 Eh/a0 ::
         :: HOMO-LUMO gap              1.627354029121 eV    ::
         :: SCC energy               -80.355336330390 Eh    ::
         :: -> Gsolv                  -0.142128194375 Eh    ::
         :: repulsion energy           0.751261293936 Eh    ::

    * Orbital Energies and Occupations

         #    Occupation            Energy/Eh            Energy/eV
      -------------------------------------------------------------
         1        2.0000           -0.8607448             -23.4221
       ...           ...                  ...                  ...
        52        2.0000           -0.4814357             -13.1005
        53        2.0000           -0.4749729             -12.9247
        54        2.0000           -0.4639540             -12.6248
        55        2.0000           -0.4593218             -12.4988
        56        2.0000           -0.4545795             -12.3697
        57        2.0000           -0.4540709             -12.3559
        58        2.0000           -0.4468092             -12.1583
        59        2.0000           -0.4417102             -12.0195
        60        2.0000           -0.4370109             -11.8917
        61        2.0000           -0.4347527             -11.8302
        62        2.0000           -0.4134568             -11.2507
        63        2.0000           -0.3771232             -10.2620
        64        2.0000           -0.3638584              -9.9011 (HOMO)
        65                         -0.3040542              -8.2737 (LUMO)
        66                         -0.2684525              -7.3050
        67                         -0.2525844              -6.8732
        68                         -0.2359471              -6.4204
        69                         -0.1954744              -5.3191
        70                         -0.1918587              -5.2207
        71                         -0.1395528              -3.7974
        72                         -0.1242696              -3.3815
        73                         -0.1214038              -3.3036
        74                         -0.1129859              -3.0745
        75                         -0.1071213              -2.9149
       ...                                ...                  ...
       124                          0.7549888              20.5443
      -------------------------------------------------------------
                  HL-Gap            0.0598042 Eh            1.6274 eV

Wiberg/Mayer (AO) data.
largest (>0.10) Wiberg bond orders for each atom

     #   Z sym  total        # sym  WBO       # sym  WBO       # sym  WBO
 ---------------------------------------------------------------------------
     1   6 C    3.900 --    27 H    0.987    25 H    0.980    26 H    0.980
                             2 O    0.926
     2   8 O    2.159 --     3 C    1.045     1 C    0.926     4 O    0.109
     3   6 C    3.850 --     4 O    1.573     5 C    1.117     2 O    1.045
     4   8 O    1.849 --     3 C    1.573     2 O    0.109
     5   6 C    3.916 --    23 C    1.274     6 N    1.149     3 C    1.117
                            24 O    0.130
     6   7 N    3.030 --     7 C    1.640     5 C    1.149
     7   6 C    3.933 --     6 N    1.640    20 N    1.091     8 C    0.973
     8   6 C    3.932 --    10 C    0.992     9 C    0.989     7 C    0.973
                            11 N    0.915
     9   6 C    3.991 --     8 C    0.989    28 H    0.984    30 H    0.984
                            29 H    0.984
    10   6 C    3.991 --     8 C    0.992    31 H    0.987    32 H    0.983
                            33 H    0.981
    11   7 N    3.354 --    12 C    1.264     8 C    0.915    34 H    0.895
                            13 O    0.179
    12   6 C    3.920 --    13 O    1.584    11 N    1.264    14 C    0.988
    13   8 O    1.887 --    12 C    1.584    11 N    0.179
    14   6 C    3.870 --    15 N    1.625    19 O    1.048    12 C    0.988
    15   7 N    2.997 --    14 C    1.625    16 N    1.194
    16   7 N    2.981 --    17 C    1.615    15 N    1.194
    17   6 C    3.870 --    16 N    1.615    19 O    1.072    18 C    1.031
    18   6 C    3.987 --    17 C    1.031    35 H    0.983    36 H    0.964
                            37 H    0.963
    19   8 O    2.315 --    17 C    1.072    14 C    1.048
    20   7 N    3.427 --    21 C    1.165     7 C    1.091    38 H    0.898
                            22 O    0.136
    21   6 C    3.879 --    22 O    1.574    20 N    1.165    23 C    0.968
    22   8 O    1.855 --    21 C    1.574    20 N    0.136
    23   6 C    3.943 --    24 O    1.517     5 C    1.274    21 C    0.968
    24   8 O    1.822 --    23 C    1.517     5 C    0.130
    25   1 H    1.014 --     1 C    0.980
    26   1 H    1.014 --     1 C    0.980
    27   1 H    1.016 --     1 C    0.987
    28   1 H    1.000 --     9 C    0.984
    29   1 H    0.998 --     9 C    0.984
    30   1 H    1.003 --     9 C    0.984
    31   1 H    1.003 --    10 C    0.987
    32   1 H    1.013 --    10 C    0.983
    33   1 H    1.014 --    10 C    0.981
    34   1 H    0.937 --    11 N    0.895
    35   1 H    0.999 --    18 C    0.983
    36   1 H    0.997 --    18 C    0.964
    37   1 H    0.997 --    18 C    0.963
    38   1 H    0.949 --    20 N    0.898
 ---------------------------------------------------------------------------

           -------------------------------------------------
          | TOTAL ENERGY              -79.627273095859 Eh   |
          | GRADIENT NORM               0.000754876540 Eh/α |
          | HOMO-LUMO GAP               1.627354029121 eV   |
           -------------------------------------------------

 * finished run on 2023/06/21 at 17:03:46.768
