   * xtb version 6.5.1 (579679a) compiled by 'ehlert@majestix' on 2022-07-11
          program call               : /lustre/hpc/kemi/ree/PhD/git/ReactivityQM/dep/xtb-6.5.1/bin/xtb --gfn 1 /lustre/hpc/kemi/ree/PhD/git/ReactivityQM/calculations/R02oxygendeprot/reac01prodN15/conf07/R02oxygendeprot_reac01prodN15_conf07_gfn1.xyz --opt --vfukui --chrg 0 --uhf 0 --alpb DMSO

   ID    Z sym.   atoms
    1    6 C      1, 3, 5, 7-10, 12, 14, 17, 18, 21, 23, 24
    2    8 O      2, 4, 13, 19, 22, 25
    3    7 N      6, 11, 15, 16, 20
    4    1 H      26-42

      * Solvation model:               ALPB
        Solvent                        DMSO
        Solvent mass                       7.8130E+01 g/mol
          :  Hamiltonian                  GFN1-xTB          :
 * total energy  :   -82.8938277 Eh     change       -0.4010303E-10 Eh
 * total energy  :   -82.9133723 Eh     change       -0.1954457E-01 Eh
 * total energy  :   -82.9330093 Eh     change       -0.1963708E-01 Eh
 * total energy  :   -82.9528987 Eh     change       -0.1988935E-01 Eh
 * total energy  :   -82.9770003 Eh     change       -0.2410163E-01 Eh
 * total energy  :   -82.9083971 Eh     change        0.6860322E-01 Eh
 * total energy  :   -82.9971257 Eh     change       -0.8872858E-01 Eh
 * total energy  :   -82.9990997 Eh     change       -0.1974016E-02 Eh
 * total energy  :   -83.0020422 Eh     change       -0.2942485E-02 Eh
 * total energy  :   -83.0028944 Eh     change       -0.8521667E-03 Eh
 * total energy  :   -83.0065221 Eh     change       -0.3005476E-04 Eh
 * total energy  :   -83.0065341 Eh     change       -0.1201653E-04 Eh
 * total energy  :   -83.0065412 Eh     change       -0.7147340E-05 Eh
 * total energy  :   -83.0065569 Eh     change       -0.1564615E-04 Eh
 * total energy  :   -83.0065640 Eh     change       -0.7112614E-05 Eh
 * total energy  :   -83.0065816 Eh     change       -0.1756880E-04 Eh
 * total energy  :   -83.0065597 Eh     change        0.2186458E-04 Eh
 * total energy  :   -83.0065914 Eh     change       -0.3165985E-04 Eh
 * total energy  :   -83.0065957 Eh     change       -0.4386633E-05 Eh
   *** GEOMETRY OPTIMIZATION CONVERGED AFTER 61 ITERATIONS ***

 final structure:
================
42
 xtb: 6.5.1 (579679a)
C            4.58799306581703        2.77561895559991        0.23635101107286
O            3.57645410888005        1.75879060135741        0.25874366213318
C            3.94938926148411        0.54047917799501       -0.09407263863255
O            5.06544454326702        0.23957635219374       -0.43472563288491
C            2.77934724931402       -0.43005848160951       -0.05639098820726
N            1.68727141604193       -0.00225747313398        0.73288585770126
C            0.56809053666769       -0.59962744937554        0.61560691574311
C           -0.55614942712111       -0.29468856974110        1.58285879495765
C           -0.28107287882874        1.01139314855701        2.33235866639326
C           -0.64821963511074       -1.48574124427307        2.54954594482986
N           -1.79264705961537       -0.16884184990083        0.80330799202203
C           -3.01085052570343       -0.02202278960988        1.37643815160299
O           -3.25039568458761       -0.11047509319121        2.56730048926461
C           -4.07550185167694        0.23521071877900        0.37520003032763
N           -5.35249931453740        0.32680236091196        0.57973805473626
N           -5.93009931245893        0.55575287032520       -0.63259111002506
C           -4.96999375900894        0.59225071645352       -1.50342454158921
C           -5.07277665596390        0.82443451024815       -2.96019710833145
O           -3.77044353439000        0.39625398842839       -0.93136355259852
N            0.30340656890843       -1.55683195746562       -0.34244981474055
C            1.14067230115649       -1.82159339651074       -1.40124841484009
O            0.73942297289242       -2.35276830706709       -2.41376672406200
C            2.56129029198793       -1.38618685750975       -1.19589531710938
C            3.44673778424696       -1.45110555362655       -2.41698922231889
O            3.11329174830585       -1.78278693236344        0.03371570337482
H            5.33727498928169        2.56993370823030        1.00355410430012
H            4.08351447656654        3.71714102517657        0.44017981803515
H            5.06683973692788        2.80140711096442       -0.74447654278223
H            0.65792953380493        0.92798811507280        2.87718699446629
H           -0.20680651779018        1.83582322909864        1.62555926156192
H           -1.08840629113480        1.21066696080137        3.03472119923635
H           -1.36359646568384       -1.27793580608991        3.34213333575244
H           -0.96013989951502       -2.37877157819360        2.01124928692631
H            0.33084429833475       -1.66108004635461        2.99326264911706
H           -1.70744751236524        0.08340957570391       -0.16758505060552
H           -4.49148390437278        0.07611010750853       -3.49725225692885
H           -6.11481836524000        0.77719100157078       -3.26800767179821
H           -4.66822093016103        1.80661121393899       -3.20714177353799
H           -0.65157136537601       -1.86079893696177       -0.46040123724412
H            4.49085444710951       -1.34485845876206       -2.13294630229986
H            3.30191179680336       -2.41320057401673       -2.90803617567107
H            3.17515576284567       -0.66120809315696       -3.11477284734476

          :  Hamiltonian                  GFN1-xTB          :
         :: total energy             -83.006595748930 Eh    ::
         :: gradient norm              0.000414119607 Eh/a0 ::
         :: HOMO-LUMO gap              3.645759641190 eV    ::
         :: SCC energy               -83.778508824288 Eh    ::
         :: -> Gsolv                  -0.054847725633 Eh    ::
         :: repulsion energy           0.797334432614 Eh    ::

    * Orbital Energies and Occupations

         #    Occupation            Energy/Eh            Energy/eV
      -------------------------------------------------------------
         1        2.0000           -0.8665577             -23.5802
       ...           ...                  ...                  ...
        55        2.0000           -0.5063637             -13.7789
        56        2.0000           -0.5058812             -13.7657
        57        2.0000           -0.5040747             -13.7166
        58        2.0000           -0.5011632             -13.6373
        59        2.0000           -0.4816610             -13.1067
        60        2.0000           -0.4772880             -12.9877
        61        2.0000           -0.4690613             -12.7638
        62        2.0000           -0.4653795             -12.6636
        63        2.0000           -0.4638502             -12.6220
        64        2.0000           -0.4626693             -12.5899
        65        2.0000           -0.4531679             -12.3313
        66        2.0000           -0.4526531             -12.3173
        67        2.0000           -0.4470517             -12.1649 (HOMO)
        68                         -0.3130725              -8.5191 (LUMO)
        69                         -0.3031467              -8.2490
        70                         -0.2885872              -7.8529
        71                         -0.2585346              -7.0351
        72                         -0.2574404              -7.0053
        73                         -0.2012142              -5.4753
        74                         -0.1426111              -3.8806
        75                         -0.1419810              -3.8635
        76                         -0.1292289              -3.5165
        77                         -0.1271800              -3.4607
        78                         -0.1250397              -3.4025
       ...                                ...                  ...
       134                          0.7296878              19.8558
      -------------------------------------------------------------
                  HL-Gap            0.1339792 Eh            3.6458 eV

Wiberg/Mayer (AO) data.
largest (>0.10) Wiberg bond orders for each atom

     #   Z sym  total        # sym  WBO       # sym  WBO       # sym  WBO
 ---------------------------------------------------------------------------
     1   6 C    3.861 --    27 H    0.985    28 H    0.980    26 H    0.979
                             2 O    0.885
     2   8 O    2.218 --     3 C    1.144     1 C    0.885     4 O    0.141
     3   6 C    3.850 --     4 O    1.683     2 O    1.144     5 C    0.938
     4   8 O    1.952 --     3 C    1.683     2 O    0.141
     5   6 C    3.868 --     6 N    1.028     3 C    0.938    25 O    0.905
                            23 C    0.832
     6   7 N    3.024 --     7 C    1.708     5 C    1.028
     7   6 C    3.929 --     6 N    1.708    20 N    1.111     8 C    0.979
     8   6 C    3.934 --     9 C    0.990     7 C    0.979    10 C    0.975
                            11 N    0.924
     9   6 C    3.988 --     8 C    0.990    30 H    0.985    29 H    0.983
                            31 H    0.983
    10   6 C    3.987 --    34 H    0.985    33 H    0.985    32 H    0.977
                             8 C    0.975
    11   7 N    3.330 --    12 C    1.239     8 C    0.924    35 H    0.893
                            13 O    0.172
    12   6 C    3.914 --    13 O    1.597    11 N    1.239    14 C    0.993
    13   8 O    1.911 --    12 C    1.597    11 N    0.172
    14   6 C    3.872 --    15 N    1.622    19 O    1.046    12 C    0.993
    15   7 N    3.001 --    14 C    1.622    16 N    1.200
    16   7 N    2.982 --    17 C    1.610    15 N    1.200
    17   6 C    3.868 --    16 N    1.610    19 O    1.072    18 C    1.032
    18   6 C    3.986 --    17 C    1.032    37 H    0.981    36 H    0.967
                            38 H    0.959
    19   8 O    2.316 --    17 C    1.072    14 C    1.046
    20   7 N    3.417 --    21 C    1.140     7 C    1.111    39 H    0.883
                            22 O    0.125
    21   6 C    3.892 --    22 O    1.658    20 N    1.140    23 C    0.979
    22   8 O    1.936 --    21 C    1.658    20 N    0.125
    23   6 C    3.860 --    24 C    1.002    21 C    0.979    25 O    0.896
                             5 C    0.832
    24   6 C    3.984 --    23 C    1.002    42 H    0.980    40 H    0.979
                            41 H    0.975
    25   8 O    1.967 --     5 C    0.905    23 C    0.896
    26   1 H    1.004 --     1 C    0.979
    27   1 H    1.009 --     1 C    0.985
    28   1 H    1.005 --     1 C    0.980
    29   1 H    1.008 --     9 C    0.983
    30   1 H    1.004 --     9 C    0.985
    31   1 H    1.005 --     9 C    0.983
    32   1 H    1.011 --    10 C    0.977
    33   1 H    1.001 --    10 C    0.985
    34   1 H    1.001 --    10 C    0.985
    35   1 H    0.937 --    11 N    0.893
    36   1 H    0.996 --    18 C    0.967
    37   1 H    0.998 --    18 C    0.981
    38   1 H    0.996 --    18 C    0.959
    39   1 H    0.930 --    20 N    0.883
    40   1 H    1.010 --    24 C    0.979
    41   1 H    1.002 --    24 C    0.975
    42   1 H    1.000 --    24 C    0.980
 ---------------------------------------------------------------------------

           -------------------------------------------------
          | TOTAL ENERGY              -83.006595748930 Eh   |
          | GRADIENT NORM               0.000414119607 Eh/α |
          | HOMO-LUMO GAP               3.645759641190 eV   |
           -------------------------------------------------

 * finished run on 2023/06/21 at 17:35:38.616
