   * xtb version 6.5.1 (579679a) compiled by 'ehlert@majestix' on 2022-07-11
          program call               : /lustre/hpc/kemi/ree/PhD/git/ReactivityQM/dep/xtb-6.5.1/bin/xtb --gfn 1 /lustre/hpc/kemi/ree/PhD/git/ReactivityQM/calculations/R03/reac02prodE02/conf06/R03_reac02prodE02_conf06_gfn1.xyz --opt --vfukui --chrg -1 --uhf 0 --alpb DMSO

   ID    Z sym.   atoms
    1    6 C      1, 3, 4, 6, 8-11, 13, 15, 18, 19, 22, 23, 25
    2    8 O      2, 5, 14, 20, 24, 26
    3    7 N      7, 12, 16, 17, 21
    4    1 H      27-46

      * Solvation model:               ALPB
        Solvent                        DMSO
        Solvent mass                       7.8130E+01 g/mol
          :  Hamiltonian                  GFN1-xTB          :
 * total energy  :   -87.0235860 Eh     change       -0.7383960E-10 Eh
 * total energy  :   -87.0363866 Eh     change       -0.1280060E-01 Eh
 * total energy  :   -87.0414491 Eh     change       -0.5062491E-02 Eh
 * total energy  :   -87.0427095 Eh     change       -0.1260354E-02 Eh
 * total energy  :   -87.0434763 Eh     change       -0.7667854E-03 Eh
 * total energy  :   -87.0439395 Eh     change       -0.4632614E-03 Eh
 * total energy  :   -87.0442492 Eh     change       -0.3096878E-03 Eh
 * total energy  :   -87.0444664 Eh     change       -0.2171984E-03 Eh
 * total energy  :   -87.0446137 Eh     change       -0.1472500E-03 Eh
 * total energy  :   -87.0447280 Eh     change       -0.1143661E-03 Eh
 * total energy  :   -87.0466843 Eh     change       -0.1015359E-04 Eh
 * total energy  :   -87.0467005 Eh     change       -0.1616348E-04 Eh
 * total energy  :   -87.0467102 Eh     change       -0.9687265E-05 Eh
 * total energy  :   -87.0467347 Eh     change       -0.2458563E-04 Eh
 * total energy  :   -87.0467459 Eh     change       -0.1120245E-04 Eh
 * total energy  :   -87.0467550 Eh     change       -0.9040942E-05 Eh
 * total energy  :   -87.0467588 Eh     change       -0.3819305E-05 Eh
 * total energy  :   -87.0467614 Eh     change       -0.2551760E-05 Eh
 * total energy  :   -87.0467642 Eh     change       -0.2804877E-05 Eh
   *** GEOMETRY OPTIMIZATION CONVERGED AFTER 76 ITERATIONS ***

 final structure:
================
46
 xtb: 6.5.1 (579679a)
C           -3.08158305126752        2.23691764278384        2.23371521574174
O           -3.76243795721236        1.07177391608932        1.84529546899660
C           -4.10094513156214        1.02471767023029        0.37004931641153
C           -5.36776544677885        0.09966835152953        0.37306112177192
O           -4.24713446676159        2.18080837107437       -0.17869094729935
C           -2.91942004255423        0.17866885764047       -0.28371954027796
N           -1.79059637050169       -0.03382513008746        0.45647361513013
C           -0.76081526447591       -0.65993737339956       -0.01219196869698
C            0.41206321863830       -0.85328836326883        0.94615091144741
C            0.58787453683186       -2.34100334590426        1.28149561922609
C            0.15276897943546       -0.06888375790360        2.24011611506274
N            1.61588531098864       -0.29395265194288        0.31119637759209
C            2.85906190404152       -0.40444020898300        0.82407313951659
O            3.18490811338366       -1.08736334693932        1.77829535435497
C            3.81867949358394        0.42213742451538        0.04265795495131
N            3.51690410638000        1.21957153518059       -0.93737732804780
N            4.68314890443695        1.78704650459836       -1.35612715657820
C            5.62179339798892        1.29959844517686       -0.60344437065681
C            7.06986060535594        1.59654516758484       -0.65898801097932
O            5.13908333731125        0.43396843152821        0.30035865417060
N           -0.73111487792933       -1.15061342310586       -1.29409344119942
C            0.36479795131976       -1.91921945739528       -1.87896020845703
C           -1.82731735979645       -0.99147300212561       -2.13438813732322
O           -1.82822449511994       -1.45031926041692       -3.28363757849085
C           -2.94137798598176       -0.27441829928840       -1.57255345299537
O           -4.00720027133375       -0.12525171565276       -2.40972381010374
H           -2.05892617836278        2.27331859009618        1.82252432079694
H           -3.01289171211881        2.23831373887349        3.32620032115442
H           -3.60967451016244        3.15057222731061        1.91634615812228
H           -6.15130148685064        0.60279450757445        0.93771875945266
H           -5.70768665540680       -0.05403000065807       -0.64823036939689
H           -5.14548623278543       -0.86000214515121        0.83672387737761
H           -0.38427375006989       -2.76470524091143        1.53164560383849
H            1.25035713804974       -2.45974015288785        2.13660689941229
H            1.00739426730416       -2.89340360633525        0.44527422954532
H            0.02889690811134        0.99035281828108        2.01954659565196
H           -0.75213487485168       -0.43825151265831        2.71984467957156
H            0.99491621191825       -0.19515372326957        2.91777465586667
H            1.47970720365396        0.40787116076668       -0.40325551586140
H            7.62778779073558        0.68830608232738       -0.88621526096772
H            7.41198357284273        1.96851690040572        0.30636801053789
H            7.26126226404371        2.34210712184256       -1.42655698403020
H            0.15537025411571       -2.98497552987337       -1.78116901447510
H            0.42462963931501       -1.67000991185244       -2.93881813853917
H            1.30736860163965       -1.68028826443162       -1.39998233252790
H           -3.78819358953397       -0.55902704097225       -3.25069340879356

          :  Hamiltonian                  GFN1-xTB          :
         :: total energy             -87.046764160365 Eh    ::
         :: gradient norm              0.000518193435 Eh/a0 ::
         :: HOMO-LUMO gap              0.885179039573 eV    ::
         :: SCC energy               -87.843840469655 Eh    ::
         :: -> Gsolv                  -0.131522578519 Eh    ::
         :: repulsion energy           0.826731707235 Eh    ::

    * Orbital Energies and Occupations

         #    Occupation            Energy/Eh            Energy/eV
      -------------------------------------------------------------
         1        2.0000           -0.8620385             -23.4573
       ...           ...                  ...                  ...
        59        2.0000           -0.4625057             -12.5854
        60        2.0000           -0.4595197             -12.5042
        61        2.0000           -0.4579027             -12.4602
        62        2.0000           -0.4502732             -12.2526
        63        2.0000           -0.4463490             -12.1458
        64        2.0000           -0.4431478             -12.0587
        65        2.0000           -0.4347225             -11.8294
        66        2.0000           -0.4322444             -11.7620
        67        2.0000           -0.4173532             -11.3568
        68        2.0000           -0.4028849             -10.9631
        69        2.0000           -0.3926087             -10.6834
        70        2.0000           -0.3605082              -9.8099
        71        2.0000           -0.3406074              -9.2684 (HOMO)
        72                         -0.3080776              -8.3832 (LUMO)
        73                         -0.2734137              -7.4400
        74                         -0.2554158              -6.9502
        75                         -0.2479815              -6.7479
        76                         -0.1967004              -5.3525
        77                         -0.1415670              -3.8522
        78                         -0.1402488              -3.8164
        79                         -0.1328171              -3.6141
        80                         -0.1176336              -3.2010
        81                         -0.1168489              -3.1796
        82                         -0.0950997              -2.5878
       ...                                ...                  ...
       144                          0.7302998              19.8725
      -------------------------------------------------------------
                  HL-Gap            0.0325297 Eh            0.8852 eV

Wiberg/Mayer (AO) data.
largest (>0.10) Wiberg bond orders for each atom

     #   Z sym  total        # sym  WBO       # sym  WBO       # sym  WBO
 ---------------------------------------------------------------------------
     1   6 C    3.936 --    28 H    0.985     2 O    0.977    27 H    0.976
                            29 H    0.975
     2   8 O    1.943 --     1 C    0.977     3 C    0.789
     3   6 C    3.896 --     5 O    1.251     4 C    0.930     6 C    0.873
                             2 O    0.789
     4   6 C    3.991 --    32 H    0.991    30 H    0.987    31 H    0.986
                             3 C    0.930
     5   8 O    1.540 --     3 C    1.251
     6   6 C    3.914 --    25 C    1.512     7 N    1.205     3 C    0.873
     7   7 N    3.042 --     8 C    1.570     6 C    1.205
     8   6 C    3.937 --     7 N    1.570    21 N    1.167     9 C    0.973
     9   6 C    3.930 --    11 C    0.991    10 C    0.987     8 C    0.973
                            12 N    0.913
    10   6 C    3.990 --     9 C    0.987    33 H    0.985    35 H    0.981
                            34 H    0.979
    11   6 C    3.992 --     9 C    0.991    38 H    0.984    37 H    0.984
                            36 H    0.983
    12   7 N    3.352 --    13 C    1.251     9 C    0.913    39 H    0.897
                            14 O    0.177
    13   6 C    3.918 --    14 O    1.596    12 N    1.251    15 C    0.985
    14   8 O    1.911 --    13 C    1.596    12 N    0.177
    15   6 C    3.874 --    16 N    1.612    20 O    1.064    13 C    0.985
    16   7 N    3.017 --    15 C    1.612    17 N    1.198
    17   7 N    2.981 --    18 C    1.607    16 N    1.198
    18   6 C    3.871 --    17 N    1.607    20 O    1.082    19 C    1.031
    19   6 C    3.987 --    18 C    1.031    42 H    0.983    41 H    0.964
                            40 H    0.963
    20   8 O    2.330 --    18 C    1.082    15 C    1.064
    21   7 N    3.493 --     8 C    1.167    23 C    1.109    22 C    0.938
                            24 O    0.122
    22   6 C    3.934 --    45 H    0.979    43 H    0.977    44 H    0.975
                            21 N    0.938
    23   6 C    3.911 --    24 O    1.504    25 C    1.134    21 N    1.109
    24   8 O    1.851 --    23 C    1.504    21 N    0.122
    25   6 C    3.912 --     6 C    1.512    23 C    1.134    26 O    1.040
    26   8 O    2.030 --    25 C    1.040    46 H    0.829
    27   1 H    1.029 --     1 C    0.976
    28   1 H    1.023 --     1 C    0.985
    29   1 H    1.035 --     1 C    0.975
    30   1 H    1.019 --     4 C    0.987
    31   1 H    1.023 --     4 C    0.986
    32   1 H    1.013 --     4 C    0.991
    33   1 H    1.003 --    10 C    0.985
    34   1 H    1.013 --    10 C    0.979
    35   1 H    1.003 --    10 C    0.981
    36   1 H    1.015 --    11 C    0.983
    37   1 H    1.013 --    11 C    0.984
    38   1 H    1.006 --    11 C    0.984
    39   1 H    0.957 --    12 N    0.897
    40   1 H    0.997 --    19 C    0.963
    41   1 H    0.997 --    19 C    0.964
    42   1 H    0.999 --    19 C    0.983
    43   1 H    1.004 --    22 C    0.977
    44   1 H    1.011 --    22 C    0.975
    45   1 H    1.011 --    22 C    0.979
    46   1 H    0.871 --    26 O    0.829
 ---------------------------------------------------------------------------

           -------------------------------------------------
          | TOTAL ENERGY              -87.046764160365 Eh   |
          | GRADIENT NORM               0.000518193435 Eh/α |
          | HOMO-LUMO GAP               0.885179039573 eV   |
           -------------------------------------------------

 * finished run on 2023/06/20 at 15:15:42.982
