   * xtb version 6.5.1 (579679a) compiled by 'ehlert@majestix' on 2022-07-11
          program call               : /lustre/hpc/kemi/ree/PhD/git/ReactivityQM/dep/xtb-6.5.1/bin/xtb --gfn 1 /lustre/hpc/kemi/ree/PhD/git/ReactivityQM/calculations/RaltegravirCLI/reac02prodN06/conf18/RaltegravirCLI_reac02prodN06_conf18_gfn1.xyz --opt --vfukui --chrg 1 --uhf 0 --alpb DMSO

   ID    Z sym.   atoms
    1    6 C      1, 3, 5, 7-9, 12-16, 18, 19, 21-24
    2    7 N      2, 11, 20, 25
    3    8 O      4, 6, 10
    4    9 F      17
    5    1 H      26-47

      * Solvation model:               ALPB
        Solvent                        DMSO
        Solvent mass                       7.8130E+01 g/mol
          :  Hamiltonian                  GFN1-xTB          :
 * total energy  :   -79.4690932 Eh     change       -0.1138119E-08 Eh
 * total energy  :   -79.4839311 Eh     change       -0.1483791E-01 Eh
 * total energy  :   -79.4905232 Eh     change       -0.6592090E-02 Eh
 * total energy  :   -79.4923963 Eh     change       -0.1873144E-02 Eh
 * total energy  :   -79.4937316 Eh     change       -0.1335314E-02 Eh
 * total energy  :   -79.4941761 Eh     change       -0.4444918E-03 Eh
 * total energy  :   -79.4944296 Eh     change       -0.2534564E-03 Eh
 * total energy  :   -79.4945801 Eh     change       -0.1505174E-03 Eh
 * total energy  :   -79.4946727 Eh     change       -0.9265558E-04 Eh
 * total energy  :   -79.4947478 Eh     change       -0.7502067E-04 Eh
 * total energy  :   -79.4954265 Eh     change       -0.2904670E-04 Eh
 * total energy  :   -79.4954428 Eh     change       -0.1631553E-04 Eh
 * total energy  :   -79.4954617 Eh     change       -0.1886030E-04 Eh
 * total energy  :   -79.4954643 Eh     change       -0.2603660E-05 Eh
 * total energy  :   -79.4954991 Eh     change       -0.3482756E-04 Eh
 * total energy  :   -79.4955153 Eh     change       -0.1621421E-04 Eh
 * total energy  :   -79.4955265 Eh     change       -0.1112435E-04 Eh
 * total energy  :   -79.4955320 Eh     change       -0.5531237E-05 Eh
 * total energy  :   -79.4955349 Eh     change       -0.2908355E-05 Eh
   *** GEOMETRY OPTIMIZATION CONVERGED AFTER 45 ITERATIONS ***

 final structure:
================
47
 xtb: 6.5.1 (579679a)
C           -3.66288169991005        0.04303518727747       -2.42668019198030
N           -2.58980396781989       -0.55478426250345       -1.62405653934474
C           -2.07419274627917       -1.70975029254002       -2.13806392851255
O           -2.45333172531245       -2.24744920733642       -3.16483472552783
C           -0.99856031352845       -2.33914067131399       -1.34587635884776
O           -0.53213657229075       -3.45209106537832       -1.78428009476231
C           -0.41983676906796       -1.67940378005842       -0.20906467321491
C           -0.06892203472365       -2.56928410364314        0.99613027677531
C            1.07022513184510       -1.22129037802140       -0.72924728322317
O            1.79512314813610       -2.04882499939885       -1.20689806508830
N            1.28383270043563        0.05489511991981       -0.50698954178384
C            2.59902200096196        0.65944433409868       -0.77357199625966
C            3.47147382755468        0.55852582826191        0.45469137096802
C            4.23473533676131       -0.58698290248889        0.67290716328743
C            5.02818843437631       -0.69691157525993        1.80517329015461
C            5.03662302409986        0.35480615764281        2.70535560414329
F            5.80341910837067        0.25745231799761        3.79871802017451
C            4.28367855074747        1.50129974387231        2.52235199213035
C            3.49431378964337        1.59517866999975        1.38510567970641
N           -1.11571422869987       -0.51991334758316        0.19972476971635
C           -2.10074932351077       -0.00574908296801       -0.44450191664300
C           -2.67407717045080        1.27767068834630        0.14271242562362
C           -2.25787804318021        2.46218264106164       -0.74103533091967
C           -2.11093350848731        1.48207950832767        1.55822665464852
N           -4.12806038156663        1.19423331850064        0.19874492208739
H           -4.33084997234819        0.60213143958219       -1.77593674627917
H           -3.22144805562757        0.69892836780916       -3.17644495983879
H           -4.20029171363165       -0.76468413948097       -2.92265647415283
H           -0.97611852208158       -3.72627134026298       -2.61989671851803
H            0.54399805519428       -3.40634027046428        0.66761822667372
H           -0.99281320138233       -2.93567641920632        1.43847086190563
H            0.46854117415464       -1.97530057454363        1.73127935272815
H            0.59372092470193        0.60151579757375       -0.01321534371771
H            3.04079123927187        0.12887676698625       -1.62048490933214
H            2.41410351693786        1.69973141491149       -1.04602895620954
H            4.20462076627501       -1.39767764943645       -0.04625346542421
H            5.62699040715282       -1.57988456153848        1.98872787414996
H            4.31264466639886        2.29884193415097        3.25279674465059
H            2.89182908089589        2.48011211062657        1.22149720395786
H           -1.17619997725760        2.46580212097804       -0.86842032351472
H           -2.72981478752770        2.40941697856347       -1.71954680024317
H           -2.55864947719008        3.39141456910906       -0.25928637341801
H           -2.32981269766818        0.61616613926056        2.18036312620378
H           -2.57124829086457        2.36389375169032        2.00037881648458
H           -1.03219672012225        1.62462679116605        1.52080369499628
H           -4.39787704099857        0.50480765335500        0.88729148489093
H           -4.49347594238784        2.09033927236588        0.49169716070304

          :  Hamiltonian                  GFN1-xTB          :
         :: total energy             -79.495534891345 Eh    ::
         :: gradient norm              0.000542632302 Eh/a0 ::
         :: HOMO-LUMO gap              0.530825922451 eV    ::
         :: SCC energy               -80.394336662441 Eh    ::
         :: -> Gsolv                  -0.103637416953 Eh    ::
         :: repulsion energy           0.930927790076 Eh    ::

    * Orbital Energies and Occupations

         #    Occupation            Energy/Eh            Energy/eV
      -------------------------------------------------------------
         1        2.0000           -0.8980314             -24.4367
       ...           ...                  ...                  ...
        55        2.0000           -0.5217871             -14.1985
        56        2.0000           -0.5179511             -14.0942
        57        2.0000           -0.5162492             -14.0479
        58        2.0000           -0.5096178             -13.8674
        59        2.0000           -0.5017503             -13.6533
        60        2.0000           -0.4927437             -13.4082
        61        2.0000           -0.4845454             -13.1852
        62        2.0000           -0.4828983             -13.1403
        63        2.0000           -0.4820364             -13.1169
        64        2.0000           -0.4762118             -12.9584
        65        2.0000           -0.4627646             -12.5925
        66        2.0000           -0.4503079             -12.2535
        67        1.9999           -0.4285602             -11.6617 (HOMO)
        68        0.0001           -0.4090527             -11.1309 (LUMO)
        69                         -0.3198931              -8.7047
        70                         -0.2906651              -7.9094
        71                         -0.2845128              -7.7420
        72                         -0.2792255              -7.5981
        73                         -0.2568228              -6.9885
        74                         -0.1591444              -4.3305
        75                         -0.1528835              -4.1602
        76                         -0.1503322              -4.0907
        77                         -0.1490293              -4.0553
        78                         -0.1416566              -3.8547
       ...                                ...                  ...
       144                          0.7329926              19.9457
      -------------------------------------------------------------
                  HL-Gap            0.0195075 Eh            0.5308 eV

Wiberg/Mayer (AO) data.
largest (>0.10) Wiberg bond orders for each atom

     #   Z sym  total        # sym  WBO       # sym  WBO       # sym  WBO
 ---------------------------------------------------------------------------
     1   6 C    3.894 --    28 H    0.973    27 H    0.967    26 H    0.959
                             2 N    0.913
     2   7 N    3.531 --     3 C    1.192    21 C    1.106     1 C    0.913
                             4 O    0.164
     3   6 C    3.926 --     4 O    1.590     2 N    1.192     5 C    1.008
     4   8 O    1.950 --     3 C    1.590     2 N    0.164
     5   6 C    3.831 --     6 O    1.321     7 C    1.142     3 C    1.008
     6   8 O    2.263 --     5 C    1.321    29 H    0.755
     7   6 C    3.963 --     5 C    1.142    20 N    1.040     8 C    0.924
                             9 C    0.689
     8   6 C    3.966 --    32 H    0.983    30 H    0.981    31 H    0.976
                             7 C    0.924
     9   6 C    3.908 --    10 O    1.665    11 N    1.370     7 C    0.689
    10   8 O    2.057 --     9 C    1.665    11 N    0.177
    11   7 N    3.396 --     9 C    1.370    12 C    0.896    33 H    0.875
                            10 O    0.177
    12   6 C    3.916 --    13 C    0.997    34 H    0.972    35 H    0.971
                            11 N    0.896
    13   6 C    3.985 --    19 C    1.418    14 C    1.415    12 C    0.997
    14   6 C    3.991 --    15 C    1.448    13 C    1.415    36 H    0.970
                            18 C    0.110
    15   6 C    3.991 --    14 C    1.448    16 C    1.396    37 H    0.968
                            19 C    0.109
    16   6 C    3.861 --    18 C    1.399    15 C    1.396    17 F    0.934
    17   9 F    1.064 --    16 C    0.934
    18   6 C    3.990 --    19 C    1.445    16 C    1.399    38 H    0.968
                            14 C    0.110
    19   6 C    3.992 --    18 C    1.445    13 C    1.418    39 H    0.970
                            15 C    0.109
    20   7 N    3.039 --    21 C    1.656     7 C    1.040
    21   6 C    3.903 --    20 N    1.656     2 N    1.106    22 C    0.973
    22   6 C    3.961 --    24 C    0.990    25 N    0.985    23 C    0.978
                            21 C    0.973
    23   6 C    3.991 --    40 H    0.985    41 H    0.981    42 H    0.980
                            22 C    0.978
    24   6 C    3.992 --    22 C    0.990    44 H    0.983    43 H    0.983
                            45 H    0.982
    25   7 N    2.999 --    22 C    0.985    46 H    0.936    47 H    0.932
    26   1 H    1.023 --     1 C    0.959
    27   1 H    0.998 --     1 C    0.967
    28   1 H    1.000 --     1 C    0.973
    29   1 H    0.804 --     6 O    0.755
    30   1 H    0.998 --     8 C    0.981
    31   1 H    0.995 --     8 C    0.976
    32   1 H    0.998 --     8 C    0.983
    33   1 H    0.945 --    11 N    0.875
    34   1 H    1.000 --    12 C    0.972
    35   1 H    0.996 --    12 C    0.971
    36   1 H    1.002 --    14 C    0.970
    37   1 H    0.997 --    15 C    0.968
    38   1 H    0.996 --    18 C    0.968
    39   1 H    0.997 --    19 C    0.970
    40   1 H    1.001 --    23 C    0.985
    41   1 H    1.001 --    23 C    0.981
    42   1 H    0.997 --    23 C    0.980
    43   1 H    1.005 --    24 C    0.983
    44   1 H    1.001 --    24 C    0.983
    45   1 H    1.008 --    24 C    0.982
    46   1 H    0.950 --    25 N    0.936
    47   1 H    0.947 --    25 N    0.932
 ---------------------------------------------------------------------------

           -------------------------------------------------
          | TOTAL ENERGY              -79.495534891345 Eh   |
          | GRADIENT NORM               0.000542632302 Eh/α |
          | HOMO-LUMO GAP               0.530825922451 eV   |
           -------------------------------------------------

 * finished run on 2023/06/20 at 15:23:03.179
