   * xtb version 6.5.1 (579679a) compiled by 'ehlert@majestix' on 2022-07-11
          program call               : /lustre/hpc/kemi/ree/PhD/git/ReactivityQM/dep/xtb-6.5.1/bin/xtb --gfn 1 /lustre/hpc/kemi/ree/PhD/git/ReactivityQM/calculations/RaltegravirCLI/reac02prodE09/conf03/RaltegravirCLI_reac02prodE09_conf03_gfn1.xyz --opt --vfukui --chrg -1 --uhf 0 --alpb DMSO

   ID    Z sym.   atoms
    1    6 C      1, 3-6, 9, 10, 13-18, 20-22, 24
    2    7 N      2, 7, 8, 12
    3    8 O      11, 23, 25
    4    9 F      19
    5    1 H      26-47

      * Solvation model:               ALPB
        Solvent                        DMSO
        Solvent mass                       7.8130E+01 g/mol
          :  Hamiltonian                  GFN1-xTB          :
 * total energy  :   -80.1822999 Eh     change       -0.4121148E-12 Eh
 * total energy  :   -80.1923500 Eh     change       -0.1005007E-01 Eh
 * total energy  :   -80.1964680 Eh     change       -0.4118093E-02 Eh
 * total energy  :   -80.1979308 Eh     change       -0.1462710E-02 Eh
 * total energy  :   -80.1994289 Eh     change       -0.1498143E-02 Eh
 * total energy  :   -80.2008949 Eh     change       -0.1466010E-02 Eh
 * total energy  :   -80.2031825 Eh     change       -0.2287581E-02 Eh
 * total energy  :   -80.2061622 Eh     change       -0.2979698E-02 Eh
 * total energy  :   -80.2089399 Eh     change       -0.2777741E-02 Eh
 * total energy  :   -80.2114037 Eh     change       -0.2463795E-02 Eh
 * total energy  :   -80.2251844 Eh     change       -0.1640861E-04 Eh
 * total energy  :   -80.2251972 Eh     change       -0.1277351E-04 Eh
 * total energy  :   -80.2252080 Eh     change       -0.1086936E-04 Eh
 * total energy  :   -80.2252180 Eh     change       -0.9971526E-05 Eh
 * total energy  :   -80.2252364 Eh     change       -0.1837710E-04 Eh
 * total energy  :   -80.2252421 Eh     change       -0.5734739E-05 Eh
 * total energy  :   -80.2252492 Eh     change       -0.7072855E-05 Eh
 * total energy  :   -80.2252548 Eh     change       -0.5640704E-05 Eh
 * total energy  :   -80.2252583 Eh     change       -0.3495722E-05 Eh
   *** GEOMETRY OPTIMIZATION CONVERGED AFTER 68 ITERATIONS ***

 final structure:
================
47
 xtb: 6.5.1 (579679a)
C           -4.59850654860098       -1.89805649097932       -0.33085234396763
N           -3.35794997615298       -1.28962135296479        0.14727761411602
C           -3.03903046453642        0.04022752983679       -0.00427145721869
C           -3.96615123326859        1.07666481411445       -0.65518764890843
C           -5.11678293462224        1.43361866483431        0.29746984624180
C           -4.48428639821441        0.65461198201399       -2.03657473596223
N           -3.19576965833259        2.29872795749280       -0.85761326381386
N           -1.91445260890842        0.51629762748638        0.42542665149258
C           -0.97475788881453       -0.25931387636955        1.04452616262374
C            0.26155023716815        0.49747335595837        1.44556415662508
O            0.33366316062275        1.71322713768563        1.30598641126458
N            1.26140826748361       -0.23583807999218        1.96686834896444
C            2.55113913260810        0.37280756202976        2.29329353442976
C            3.49801513532166        0.26740426984898        1.11659693818353
C            3.38034348978675        1.14172186920053        0.03797599809693
C            4.22807075257219        1.02991699203910       -1.05284715492066
C            5.21501927791764        0.04422242670793       -1.09526594162102
C            6.15041398864001       -0.05276335527652       -2.26189911345630
F            8.45172030234681        1.88972178672237       -1.84046483028002
C            5.32520803626984       -0.83006893786106       -0.01475969739710
C            4.47440883039547       -0.72344590581220        1.07650700901708
C           -1.23202144571567       -1.58669761719932        1.22180718331407
O           -0.39357945999551       -2.46075728737967        1.81857588323941
C           -2.47509027664713       -2.16625408730689        0.75176729387313
O           -2.71553879025627       -3.36546453846040        0.88887284616666
H           -5.44388965677355       -1.24738304072675       -0.13488335972580
H           -4.73923670943400       -2.83658201606328        0.20462534908946
H           -4.52121239035489       -2.10560470855049       -1.39756672089826
H           -5.67231317830803        2.27189301076359       -0.12174610632073
H           -5.80080005095478        0.60056375509420        0.43930701780494
H           -4.71763194046577        1.72684474451680        1.26810931023216
H           -5.35150214783523        0.00354537389578       -1.96766398090131
H           -4.77976832296941        1.55221309155837       -2.57984006350779
H           -3.70197368087931        0.14935330757031       -2.60151189269338
H           -2.41377231881182        2.09164254330411       -1.46918142922312
H           -2.80955590438925        2.59327952137896        0.03516008271599
H            1.20436944459510       -1.23868971816715        2.01026293810239
H            2.95664136772568       -0.14700588456919        3.16525063724968
H            2.37183477642785        1.42134274651010        2.55359248953378
H            2.61569320552085        1.91138082411729        0.05287259321843
H            4.11541969708555        1.71633867403827       -1.88649412610550
H            6.53401054058712       -1.06729001802712       -2.37136817430761
H            5.65209962716013        0.24110055960721       -3.18629157520758
H            7.00632900198472        0.62533365723102       -2.10595136365967
H            6.07720708804108       -1.61247060192414       -0.02668939130399
H            4.57074115447704       -1.41917963889709        1.90286023012635
H           -0.81973252951847       -3.33898862897164        1.81779084569170

          :  Hamiltonian                  GFN1-xTB          :
         :: total energy             -80.225258335061 Eh    ::
         :: gradient norm              0.000348714729 Eh/a0 ::
         :: HOMO-LUMO gap              0.653986536075 eV    ::
         :: SCC energy               -81.117245363265 Eh    ::
         :: -> Gsolv                  -0.156850364842 Eh    ::
         :: repulsion energy           0.921310962576 Eh    ::

    * Orbital Energies and Occupations

         #    Occupation            Energy/Eh            Energy/eV
      -------------------------------------------------------------
         1        2.0000           -0.8248211             -22.4445
       ...           ...                  ...                  ...
        56        2.0000           -0.4629083             -12.5964
        57        2.0000           -0.4586639             -12.4809
        58        2.0000           -0.4488136             -12.2128
        59        2.0000           -0.4421822             -12.0324
        60        2.0000           -0.4319998             -11.7553
        61        2.0000           -0.4267481             -11.6124
        62        2.0000           -0.4234673             -11.5231
        63        2.0000           -0.4175106             -11.3610
        64        2.0000           -0.4095991             -11.1458
        65        2.0000           -0.4084518             -11.1145
        66        2.0000           -0.3320952              -9.0368
        67        2.0000           -0.3320922              -9.0367
        68        2.0000           -0.3315710              -9.0225 (HOMO)
        69        0.0000           -0.3075375              -8.3685 (LUMO)
        70                         -0.2707557              -7.3676
        71                         -0.2451327              -6.6704
        72                         -0.2440306              -6.6404
        73                         -0.2216981              -6.0327
        74                         -0.1451326              -3.9493
        75                         -0.1444770              -3.9314
        76                         -0.1262866              -3.4364
        77                         -0.1228249              -3.3422
        78                         -0.1166636              -3.1746
        79                         -0.1106020              -3.0096
       ...                                ...                  ...
       144                          0.7216619              19.6374
      -------------------------------------------------------------
                  HL-Gap            0.0240336 Eh            0.6540 eV

Wiberg/Mayer (AO) data.
largest (>0.10) Wiberg bond orders for each atom

     #   Z sym  total        # sym  WBO       # sym  WBO       # sym  WBO
 ---------------------------------------------------------------------------
     1   6 C    3.926 --    26 H    0.977    28 H    0.977    27 H    0.973
                             2 N    0.932
     2   7 N    3.506 --     3 C    1.162    24 C    1.134     1 C    0.932
                            25 O    0.132
     3   6 C    3.919 --     8 N    1.573     2 N    1.162     4 C    0.963
     4   6 C    3.969 --     7 N    0.997     6 C    0.991     5 C    0.984
                             3 C    0.963
     5   6 C    3.994 --    31 H    0.985     4 C    0.984    29 H    0.983
                            30 H    0.979
     6   6 C    3.994 --     4 C    0.991    34 H    0.986    33 H    0.983
                            32 H    0.983
     7   7 N    2.960 --     4 C    0.997    35 H    0.945    36 H    0.941
     8   7 N    3.042 --     3 C    1.573     9 C    1.196
     9   6 C    3.963 --    22 C    1.510     8 N    1.196    10 C    0.987
    10   6 C    3.909 --    11 O    1.569    12 N    1.273     9 C    0.987
    11   8 O    1.875 --    10 C    1.569    12 N    0.173
    12   7 N    3.353 --    10 C    1.273    13 C    0.935    37 H    0.891
                            11 O    0.173
    13   6 C    3.945 --    14 C    0.992    38 H    0.978    39 H    0.971
                            12 N    0.935
    14   6 C    3.985 --    21 C    1.419    15 C    1.410    13 C    0.992
                            17 C    0.106
    15   6 C    3.995 --    16 C    1.457    14 C    1.410    40 H    0.972
                            20 C    0.108
    16   6 C    3.995 --    15 C    1.457    17 C    1.401    41 H    0.974
                            21 C    0.107
    17   6 C    3.986 --    20 C    1.408    16 C    1.401    18 C    1.032
                            14 C    0.106
    18   6 C    3.989 --    17 C    1.032    42 H    0.984    43 H    0.983
                            44 H    0.926
    19   9 F    0.101
    20   6 C    3.995 --    21 C    1.448    17 C    1.408    45 H    0.973
                            15 C    0.108
    21   6 C    3.995 --    20 C    1.448    14 C    1.419    46 H    0.973
                            16 C    0.107
    22   6 C    3.916 --     9 C    1.510    24 C    1.094    23 O    1.069
    23   8 O    2.062 --    22 C    1.069    47 H    0.801
    24   6 C    3.916 --    25 O    1.535     2 N    1.134    22 C    1.094
    25   8 O    1.887 --    24 C    1.535     2 N    0.132
    26   1 H    1.008 --     1 C    0.977
    27   1 H    1.008 --     1 C    0.973
    28   1 H    1.003 --     1 C    0.977
    29   1 H    1.005 --     5 C    0.983
    30   1 H    1.005 --     5 C    0.979
    31   1 H    1.002 --     5 C    0.985
    32   1 H    1.004 --     6 C    0.983
    33   1 H    1.008 --     6 C    0.983
    34   1 H    1.001 --     6 C    0.986
    35   1 H    0.969 --     7 N    0.945
    36   1 H    0.977 --     7 N    0.941
    37   1 H    0.948 --    12 N    0.891
    38   1 H    1.005 --    13 C    0.978
    39   1 H    1.012 --    13 C    0.971
    40   1 H    1.011 --    15 C    0.972
    41   1 H    1.003 --    16 C    0.974
    42   1 H    1.006 --    18 C    0.984
    43   1 H    1.006 --    18 C    0.983
    44   1 H    1.038 --    18 C    0.926
    45   1 H    1.003 --    20 C    0.973
    46   1 H    1.002 --    21 C    0.973
    47   1 H    0.847 --    23 O    0.801
 ---------------------------------------------------------------------------

           -------------------------------------------------
          | TOTAL ENERGY              -80.225258335061 Eh   |
          | GRADIENT NORM               0.000348714729 Eh/α |
          | HOMO-LUMO GAP               0.653986536075 eV   |
           -------------------------------------------------

 * finished run on 2023/06/20 at 15:09:30.866
