   * xtb version 6.5.1 (579679a) compiled by 'ehlert@majestix' on 2022-07-11
          program call               : /lustre/hpc/kemi/ree/PhD/git/ReactivityQM/dep/xtb-6.5.1/bin/xtb --gfn 1 /lustre/hpc/kemi/ree/PhD/git/ReactivityQM/calculations/R01/reac01prodN01/conf08/R01_reac01prodN01_conf08_gfn1.xyz --opt --vfukui --chrg 1 --uhf 0 --alpb DMSO

   ID    Z sym.   atoms
    1    6 C      1, 3, 5, 8, 9, 11
    2    8 O      2, 4, 10
    3    7 N      6, 7
    4    1 H      12-20

      * Solvation model:               ALPB
        Solvent                        DMSO
        Solvent mass                       7.8130E+01 g/mol
          :  Hamiltonian                  GFN1-xTB          :
 * total energy  :   -37.5525160 Eh     change       -0.7950973E-11 Eh
 * total energy  :   -37.5657726 Eh     change       -0.1325664E-01 Eh
 * total energy  :   -37.5719066 Eh     change       -0.6134005E-02 Eh
 * total energy  :   -37.5737401 Eh     change       -0.1833478E-02 Eh
 * total energy  :   -37.5749225 Eh     change       -0.1182451E-02 Eh
 * total energy  :   -37.5754961 Eh     change       -0.5735255E-03 Eh
 * total energy  :   -37.5759459 Eh     change       -0.4498337E-03 Eh
 * total energy  :   -37.5761497 Eh     change       -0.2038516E-03 Eh
 * total energy  :   -37.5762239 Eh     change       -0.7419141E-04 Eh
 * total energy  :   -37.5762884 Eh     change       -0.6449318E-04 Eh
 * total energy  :   -37.5775372 Eh     change       -0.8656976E-04 Eh
 * total energy  :   -37.5775853 Eh     change       -0.4812069E-04 Eh
 * total energy  :   -37.5776122 Eh     change       -0.2687437E-04 Eh
 * total energy  :   -37.5776512 Eh     change       -0.3897174E-04 Eh
 * total energy  :   -37.5776690 Eh     change       -0.1777787E-04 Eh
 * total energy  :   -37.5776940 Eh     change       -0.2507311E-04 Eh
 * total energy  :   -37.5777047 Eh     change       -0.1072310E-04 Eh
 * total energy  :   -37.5777117 Eh     change       -0.6934951E-05 Eh
 * total energy  :   -37.5777142 Eh     change       -0.2490336E-05 Eh
   *** GEOMETRY OPTIMIZATION CONVERGED AFTER 28 ITERATIONS ***

 final structure:
================
20
 xtb: 6.5.1 (579679a)
C            3.44456895853533       -0.42499345669938       -0.12980065311816
O            2.01929343119809       -0.19660978265565       -0.07256767635298
C            1.62002025822403        1.03355775398579        0.15529871672938
O            2.31749589730122        1.99220673399571        0.32884607385464
C            0.12504976812936        1.15727004621651        0.17866224681705
N           -0.53528459197398        2.24261738598079        0.32348641186554
N           -1.86761147777150        1.96247670761469        0.28042241016619
C           -2.02464911368370        0.70564491356798        0.10928168828673
C           -3.27014374419325       -0.06668469217965        0.00003847832829
O           -0.76890884744132        0.08945184793611        0.03072550496273
C           -0.45879320730505       -1.33016204667233       -0.14381163471741
H            3.57177494481483       -1.50337539295526       -0.16912238553841
H            3.84729215618125        0.04656529985463       -1.02727208035769
H            3.91682363655925       -0.00562875398381        0.75960336218751
H           -3.33524105227283       -0.80094494707369        0.80367738144922
H           -3.30820121950936       -0.59814552909005       -0.95119876031569
H           -4.11170040123998        0.62133911516975        0.06744032052236
H            0.08087966845425       -1.43254881023560       -1.08243794163613
H           -1.40856181189825       -1.85498362693870       -0.16761315681718
H            0.14589674789168       -1.63705276583799        0.70634069368408

          :  Hamiltonian                  GFN1-xTB          :
         :: total energy             -37.577714174574 Eh    ::
         :: gradient norm              0.000570920655 Eh/a0 ::
         :: HOMO-LUMO gap              3.709110136794 eV    ::
         :: SCC energy               -37.927531602106 Eh    ::
         :: -> Gsolv                  -0.097104642092 Eh    ::
         :: repulsion energy           0.358745209874 Eh    ::

    * Orbital Energies and Occupations

         #    Occupation            Energy/Eh            Energy/eV
      -------------------------------------------------------------
         1        2.0000           -0.9756314             -26.5483
       ...           ...                  ...                  ...
        18        2.0000           -0.6107352             -16.6190
        19        2.0000           -0.6024983             -16.3948
        20        2.0000           -0.6020463             -16.3825
        21        2.0000           -0.5858131             -15.9408
        22        2.0000           -0.5846475             -15.9091
        23        2.0000           -0.5728928             -15.5892
        24        2.0000           -0.5641686             -15.3518
        25        2.0000           -0.5486270             -14.9289
        26        2.0000           -0.5415836             -14.7372
        27        2.0000           -0.5311071             -14.4522
        28        2.0000           -0.5287107             -14.3870
        29        2.0000           -0.5200840             -14.1522
        30        2.0000           -0.5136237             -13.9764 (HOMO)
        31                         -0.3773164             -10.2673 (LUMO)
        32                         -0.3203678              -8.7177
        33                         -0.2586151              -7.0373
        34                         -0.1969136              -5.3583
        35                         -0.1794706              -4.8836
        36                         -0.1548297              -4.2131
        37                         -0.1295458              -3.5251
        38                         -0.1216589              -3.3105
        39                         -0.1214884              -3.3059
        40                         -0.1049612              -2.8561
        41                         -0.0900088              -2.4493
       ...                                ...                  ...
        62                          0.7330733              19.9479
      -------------------------------------------------------------
                  HL-Gap            0.1363073 Eh            3.7091 eV

Wiberg/Mayer (AO) data.
largest (>0.10) Wiberg bond orders for each atom

     #   Z sym  total        # sym  WBO       # sym  WBO       # sym  WBO
 ---------------------------------------------------------------------------
     1   6 C    3.827 --    12 H    0.984    14 H    0.978    13 H    0.976
                             2 O    0.856
     2   8 O    2.236 --     3 C    1.157     1 C    0.856     4 O    0.153
     3   6 C    3.878 --     4 O    1.694     2 O    1.157     5 C    0.960
     4   8 O    1.977 --     3 C    1.694     2 O    0.153
     5   6 C    3.809 --     6 N    1.710     3 C    0.960    10 O    0.879
     6   7 N    3.041 --     5 C    1.710     7 N    1.158
     7   7 N    3.025 --     8 C    1.688     6 N    1.158
     8   6 C    3.800 --     7 N    1.688     9 C    1.046    10 O    0.877
     9   6 C    3.967 --     8 C    1.046    17 H    0.968    16 H    0.949
                            15 H    0.947
    10   8 O    2.651 --     5 C    0.879     8 C    0.877    11 C    0.746
    11   6 C    3.722 --    19 H    0.972    20 H    0.968    18 H    0.968
                            10 O    0.746
    12   1 H    1.003 --     1 C    0.984
    13   1 H    0.999 --     1 C    0.976
    14   1 H    1.000 --     1 C    0.978
    15   1 H    0.986 --     9 C    0.947
    16   1 H    0.986 --     9 C    0.949
    17   1 H    0.988 --     9 C    0.968
    18   1 H    0.995 --    11 C    0.968
    19   1 H    0.989 --    11 C    0.972
    20   1 H    0.995 --    11 C    0.968
 ---------------------------------------------------------------------------

           -------------------------------------------------
          | TOTAL ENERGY              -37.577714174574 Eh   |
          | GRADIENT NORM               0.000570920655 Eh/α |
          | HOMO-LUMO GAP               3.709110136794 eV   |
           -------------------------------------------------

 * finished run on 2023/06/20 at 14:54:41.377
