   * xtb version 6.5.1 (579679a) compiled by 'ehlert@majestix' on 2022-07-11
          program call               : /lustre/hpc/kemi/ree/PhD/git/ReactivityQM/dep/xtb-6.5.1/bin/xtb --gfn 1 /lustre/hpc/kemi/ree/PhD/git/ReactivityQM/calculations/R02oxygendeprot/reac01prodN12/conf20/R02oxygendeprot_reac01prodN12_conf20_gfn1.xyz --opt --vfukui --chrg 0 --uhf 0 --alpb DMSO

   ID    Z sym.   atoms
    1    6 C      1, 3, 5, 7-10, 12, 14, 15, 18, 19, 22, 24
    2    8 O      2, 4, 13, 20, 23, 25
    3    7 N      6, 11, 16, 17, 21
    4    1 H      26-42

      * Solvation model:               ALPB
        Solvent                        DMSO
        Solvent mass                       7.8130E+01 g/mol
          :  Hamiltonian                  GFN1-xTB          :
 * total energy  :   -82.9299615 Eh     change       -0.4151701E-09 Eh
 * total energy  :   -82.9406466 Eh     change       -0.1068507E-01 Eh
 * total energy  :   -82.9448468 Eh     change       -0.4200214E-02 Eh
 * total energy  :   -82.9455010 Eh     change       -0.6542363E-03 Eh
 * total energy  :   -82.9458776 Eh     change       -0.3765975E-03 Eh
 * total energy  :   -82.9460090 Eh     change       -0.1314002E-03 Eh
 * total energy  :   -82.9460942 Eh     change       -0.8517123E-04 Eh
 * total energy  :   -82.9461543 Eh     change       -0.6008325E-04 Eh
 * total energy  :   -82.9462129 Eh     change       -0.5861292E-04 Eh
 * total energy  :   -82.9462771 Eh     change       -0.6425214E-04 Eh
 * total energy  :   -82.9537663 Eh     change       -0.1327927E-04 Eh
 * total energy  :   -82.9537781 Eh     change       -0.1175372E-04 Eh
 * total energy  :   -82.9537877 Eh     change       -0.9672464E-05 Eh
 * total energy  :   -82.9537954 Eh     change       -0.7638996E-05 Eh
 * total energy  :   -82.9538023 Eh     change       -0.6924746E-05 Eh
 * total energy  :   -82.9538097 Eh     change       -0.7404860E-05 Eh
 * total energy  :   -82.9538174 Eh     change       -0.7708226E-05 Eh
 * total energy  :   -82.9538248 Eh     change       -0.7352833E-05 Eh
 * total energy  :   -82.9538294 Eh     change       -0.4604014E-05 Eh
   *** GEOMETRY OPTIMIZATION CONVERGED AFTER 115 ITERATIONS ***

 final structure:
================
42
 xtb: 6.5.1 (579679a)
C           -5.11968556049728       -1.70910048841204       -2.02386875444851
O           -4.56689301041024       -1.08432989139329       -0.86696992331340
C           -3.32975529498886       -0.59116341867694       -0.99386039911781
O           -2.70403007007251       -0.66629108477138       -2.03558867202060
C           -2.79751569323945        0.04212006449660        0.23266592014982
N           -1.56396690999889        0.57229471285710        0.06353853322836
C           -0.93697516040836        1.14411257517460        1.04969703666352
C            0.41037291993343        1.76167185318066        0.75450113097478
C            0.24068694277855        2.76846174812254       -0.38873889681273
C            1.08640259295113        2.40136266038991        1.96530975695718
N            1.30258235051470        0.69554592442867        0.24615484887344
C            1.30244422415454       -0.49907402507243        0.82125375695487
O            0.50310290350818       -0.89550773544434        1.63663013064761
C            2.43835351046883       -1.47552197657904        0.30859711782182
C            3.17502736127622       -2.02488499088965        1.52693068326263
N            1.78597192078968       -2.46446825780703       -0.47486664131390
N            2.20802985740091       -2.36755863358897       -1.69926318824102
C            3.11799074200159       -1.40149001183130       -1.75606448890095
C            3.85815302385657       -0.96840902957227       -2.94921696147457
O            3.31210324044833       -0.82393315937150       -0.58572937054788
N           -1.50645492005372        1.27867913929911        2.27944113313231
C           -2.75810429404797        0.79514962652121        2.60613901905268
O           -3.19735731898048        0.95203340391748        3.73170214796979
C           -3.49707174811415        0.09235261188246        1.48594826549195
O           -4.61518054677831       -0.37629381077859        1.70577066474369
H           -5.16859524566621       -0.99818192495158       -2.85274136315533
H           -4.50697434445572       -2.56371524756871       -2.32312610953726
H           -6.12082926781227       -2.04091990826444       -1.75463122298410
H           -0.39140049397319        3.59156302703505       -0.06049627825509
H            1.21038526363733        3.16296684352765       -0.68347112274146
H           -0.22482408893850        2.27678822668072       -1.24270712313286
H            1.21718046922817        1.66880100767803        2.76028933378054
H            0.49529550722198        3.23882152353429        2.33087235884365
H            2.06673399640654        2.77218337787592        1.67356052654121
H            2.09377430565181        0.99570319270551       -0.29731105494327
H            3.90771429997234       -2.75831391298861        1.19918452613937
H            3.68031186025849       -1.20917727237801        2.03767714505711
H            2.45144508464324       -2.48865598343731        2.19434048129064
H            3.66670011197393       -1.64461442984381       -3.77880770811865
H            4.92458666764091       -0.93513513605996       -2.72569446920292
H            3.55401556472495        0.04290558231271       -3.22398239833188
H           -1.00375175303805        1.73322922810535        3.02344662900709

          :  Hamiltonian                  GFN1-xTB          :
         :: total energy             -82.953829379015 Eh    ::
         :: gradient norm              0.000463349897 Eh/a0 ::
         :: HOMO-LUMO gap              0.159487826354 eV    ::
         :: SCC energy               -83.724051302194 Eh    ::
         :: -> Gsolv                  -0.087953399881 Eh    ::
         :: repulsion energy           0.797242021028 Eh    ::

    * Orbital Energies and Occupations

         #    Occupation            Energy/Eh            Energy/eV
      -------------------------------------------------------------
         1        2.0000           -0.8871871             -24.1416
       ...           ...                  ...                  ...
        55        2.0000           -0.5140184             -13.9872
        56        2.0000           -0.5113496             -13.9145
        57        2.0000           -0.5085614             -13.8387
        58        2.0000           -0.4952772             -13.4772
        59        2.0000           -0.4889986             -13.3063
        60        2.0000           -0.4884825             -13.2923
        61        2.0000           -0.4779050             -13.0045
        62        2.0000           -0.4773143             -12.9884
        63        2.0000           -0.4704722             -12.8022
        64        2.0000           -0.4687992             -12.7567
        65        2.0000           -0.4532004             -12.3322
        66        2.0000           -0.4156092             -11.3093
        67        1.9125           -0.3999970             -10.8845 (HOMO)
        68        0.0875           -0.3941359             -10.7250 (LUMO)
        69                         -0.3026109              -8.2345
        70                         -0.2893497              -7.8736
        71                         -0.2769940              -7.5374
        72                         -0.2766107              -7.5270
        73                         -0.2289910              -6.2312
        74                         -0.1578621              -4.2956
        75                         -0.1484359              -4.0391
        76                         -0.1437837              -3.9126
        77                         -0.1404750              -3.8225
        78                         -0.1360597              -3.7024
       ...                                ...                  ...
       134                          0.7466848              20.3183
      -------------------------------------------------------------
                  HL-Gap            0.0058611 Eh            0.1595 eV

Wiberg/Mayer (AO) data.
largest (>0.10) Wiberg bond orders for each atom

     #   Z sym  total        # sym  WBO       # sym  WBO       # sym  WBO
 ---------------------------------------------------------------------------
     1   6 C    3.881 --    28 H    0.986    27 H    0.980    26 H    0.979
                             2 O    0.907
     2   8 O    2.187 --     3 C    1.098     1 C    0.907     4 O    0.127
     3   6 C    3.840 --     4 O    1.619     2 O    1.098     5 C    1.038
     4   8 O    1.879 --     3 C    1.619     2 O    0.127
     5   6 C    3.836 --     6 N    1.283    24 C    1.181     3 C    1.038
     6   7 N    3.007 --     7 C    1.485     5 C    1.283
     7   6 C    3.880 --     6 N    1.485    21 N    1.169     8 C    0.988
     8   6 C    3.925 --    10 C    0.997     7 C    0.988     9 C    0.979
                            11 N    0.893
     9   6 C    3.980 --    29 H    0.983    30 H    0.983    31 H    0.981
                             8 C    0.979
    10   6 C    3.990 --     8 C    0.997    32 H    0.981    34 H    0.981
                            33 H    0.981
    11   7 N    3.365 --    12 C    1.327     8 C    0.893    35 H    0.888
                            13 O    0.171
    12   6 C    3.888 --    13 O    1.629    11 N    1.327    14 C    0.803
    13   8 O    1.996 --    12 C    1.629    11 N    0.171
    14   6 C    3.852 --    16 N    1.065    15 C    0.939    20 O    0.910
                            12 C    0.803
    15   6 C    3.944 --    37 H    0.982    36 H    0.980    38 H    0.979
                            14 C    0.939
    16   7 N    2.823 --    17 N    1.448    14 C    1.065
    17   7 N    2.973 --    16 N    1.448    18 C    1.370
    18   6 C    3.699 --    17 N    1.370    20 O    1.151    19 C    1.052
    19   6 C    3.974 --    18 C    1.052    39 H    0.979    40 H    0.950
                            41 H    0.940
    20   8 O    2.241 --    18 C    1.151    14 C    0.910
    21   7 N    3.433 --     7 C    1.169    22 C    1.123    42 H    0.884
                            23 O    0.120
    22   6 C    3.850 --    23 O    1.633    21 N    1.123    24 C    0.954
    23   8 O    1.868 --    22 C    1.633    21 N    0.120
    24   6 C    3.881 --    25 O    1.595     5 C    1.181    22 C    0.954
    25   8 O    1.795 --    24 C    1.595
    26   1 H    1.009 --     1 C    0.979
    27   1 H    1.009 --     1 C    0.980
    28   1 H    1.012 --     1 C    0.986
    29   1 H    0.998 --     9 C    0.983
    30   1 H    0.996 --     9 C    0.983
    31   1 H    1.010 --     9 C    0.981
    32   1 H    0.997 --    10 C    0.981
    33   1 H    0.996 --    10 C    0.981
    34   1 H    0.998 --    10 C    0.981
    35   1 H    0.932 --    11 N    0.888
    36   1 H    0.994 --    15 C    0.980
    37   1 H    0.995 --    15 C    0.982
    38   1 H    1.001 --    15 C    0.979
    39   1 H    0.994 --    19 C    0.979
    40   1 H    0.983 --    19 C    0.950
    41   1 H    0.980 --    19 C    0.940
    42   1 H    0.935 --    21 N    0.884
 ---------------------------------------------------------------------------

           -------------------------------------------------
          | TOTAL ENERGY              -82.953829379015 Eh   |
          | GRADIENT NORM               0.000463349897 Eh/α |
          | HOMO-LUMO GAP               0.159487826354 eV   |
           -------------------------------------------------

 * finished run on 2023/06/21 at 17:27:41.113
