   * xtb version 6.5.1 (579679a) compiled by 'ehlert@majestix' on 2022-07-11
          program call               : /lustre/hpc/kemi/ree/PhD/git/ReactivityQM/dep/xtb-6.5.1/bin/xtb --gfn 1 /lustre/hpc/kemi/ree/PhD/git/ReactivityQM/calculations/R02deprot/reac01prodE04/conf18/R02deprot_reac01prodE04_conf18_gfn1.xyz --opt --vfukui --chrg -2 --uhf 0 --alpb DMSO

   ID    Z sym.   atoms
    1    6 C      1, 3, 5, 6, 8-11, 13, 15, 18, 19, 22, 24
    2    8 O      2, 4, 14, 20, 23, 25
    3    7 N      7, 12, 16, 17, 21
    4    1 H      26-42

      * Solvation model:               ALPB
        Solvent                        DMSO
        Solvent mass                       7.8130E+01 g/mol
          :  Hamiltonian                  GFN1-xTB          :
 * total energy  :   -83.5699164 Eh     change       -0.1734151E-09 Eh
 * total energy  :   -83.5861802 Eh     change       -0.1626387E-01 Eh
 * total energy  :   -83.5919542 Eh     change       -0.5773954E-02 Eh
 * total energy  :   -83.5928930 Eh     change       -0.9387832E-03 Eh
 * total energy  :   -83.5934478 Eh     change       -0.5548088E-03 Eh
 * total energy  :   -83.5936938 Eh     change       -0.2460077E-03 Eh
 * total energy  :   -83.5938908 Eh     change       -0.1970635E-03 Eh
 * total energy  :   -83.5940776 Eh     change       -0.1868013E-03 Eh
 * total energy  :   -83.5942632 Eh     change       -0.1855108E-03 Eh
 * total energy  :   -83.5944285 Eh     change       -0.1653928E-03 Eh
 * total energy  :   -83.6001624 Eh     change       -0.7110741E-05 Eh
 * total energy  :   -83.6001698 Eh     change       -0.7462353E-05 Eh
 * total energy  :   -83.6001774 Eh     change       -0.7589513E-05 Eh
 * total energy  :   -83.6001847 Eh     change       -0.7253524E-05 Eh
 * total energy  :   -83.6001914 Eh     change       -0.6687373E-05 Eh
 * total energy  :   -83.6001976 Eh     change       -0.6264774E-05 Eh
 * total energy  :   -83.6002038 Eh     change       -0.6114412E-05 Eh
 * total energy  :   -83.6002102 Eh     change       -0.6453132E-05 Eh
 * total energy  :   -83.6002127 Eh     change       -0.2469545E-05 Eh
   *** GEOMETRY OPTIMIZATION CONVERGED AFTER 122 ITERATIONS ***

 final structure:
================
42
 xtb: 6.5.1 (579679a)
C           -5.71372672947978        0.05612820010014       -1.40640113575599
O           -4.81896888066023        0.56508830780316       -0.42695476529474
C           -3.60551580696824       -0.04503015085575       -0.34313782321301
O           -3.33182132918028       -0.99798038914982       -1.05579224013752
C           -2.62904765007344        0.70555960978224        0.57922553937129
C           -3.36926552429871        1.30382038332478        1.79348625923591
N           -1.60146857351690       -0.20720551604111        1.04281151264064
C           -0.42083874928185       -0.13752791996361        0.47286480354337
C            0.55918888764298       -1.21589386426620        0.97187463342021
C            0.11237708289733       -2.56962336590135        0.39565719140643
C            0.54845100545151       -1.25550523116503        2.50650798942541
N            1.89137958701546       -0.87164262669144        0.48570591030025
C            3.00701360479975       -1.58424215443252        0.73198624095162
O            3.03929172435207       -2.64040286129428        1.38655312890258
C            4.22928097386319       -1.00877504647794        0.16552742729189
N            5.45007179337264       -1.49769428087961        0.25181396449565
N            6.26972800924512       -0.62261650813509       -0.40526796953128
C            5.52256702712119        0.33639785634696       -0.85036235277979
C            5.95697444371062        1.52504794703873       -1.62184316203203
O            4.22227473103751        0.16710077486571       -0.53323914078444
N            0.05228747991651        0.68014982471845       -0.45442072282198
C           -0.79403711978140        1.71076792144114       -0.88572872804295
O           -0.37986029797176        2.60363849915500       -1.69410909182752
C           -2.08130311958779        1.74127934888075       -0.35259047332549
O           -2.94158318108952        2.79786456712961       -0.72462981572157
H           -5.27033399703618        0.10806979946564       -2.40621752250211
H           -5.97210264436770       -0.98552303991543       -1.18929373995341
H           -6.61285544224720        0.66975832627256       -1.36977227797837
H           -2.64469943897894        1.79068370118648        2.44582217825768
H           -4.10633977684066        2.03819122517021        1.47169387285707
H           -3.87061709174397        0.51499731587214        2.35414436878090
H           -0.93151021135519       -2.73709803703412        0.66319645143500
H            0.71695994745083       -3.38568416187826        0.79080731592409
H            0.20003147860642       -2.55890096799441       -0.69140720293534
H           -0.47981581477882       -1.37652386368954        2.84843676670898
H            0.94159420735143       -0.32055031220943        2.90669411146112
H            1.14854687090173       -2.08244413316867        2.88466921588184
H            1.92771650788686       -0.03210222022326       -0.09396791318290
H            7.03350295091436        1.48644754108044       -1.76662483347224
H            5.69786567096013        2.43874915925927       -1.08675283260895
H            5.46339027769827        1.54935012709758       -2.59351407384528
H           -2.41477988297602        3.34387521534435       -1.33431806454495

          :  Hamiltonian                  GFN1-xTB          :
         :: total energy             -83.600212675244 Eh    ::
         :: gradient norm              0.000149080395 Eh/a0 ::
         :: HOMO-LUMO gap              0.090116547231 eV    ::
         :: SCC energy               -84.324271093366 Eh    ::
         :: -> Gsolv                  -0.272090266244 Eh    ::
         :: repulsion energy           0.750229422654 Eh    ::

    * Orbital Energies and Occupations

         #    Occupation            Energy/Eh            Energy/eV
      -------------------------------------------------------------
         1        2.0000           -0.8238918             -22.4192
       ...           ...                  ...                  ...
        56        2.0000           -0.4377103             -11.9107
        57        2.0000           -0.4297044             -11.6929
        58        2.0000           -0.4221038             -11.4860
        59        2.0000           -0.4205298             -11.4432
        60        2.0000           -0.4179328             -11.3725
        61        2.0000           -0.4066226             -11.0648
        62        2.0000           -0.4023218             -10.9477
        63        2.0000           -0.3916645             -10.6577
        64        2.0000           -0.3811518             -10.3717
        65        2.0000           -0.3474138              -9.4536
        66        2.0000           -0.3230632              -8.7910
        67        2.0000           -0.3211814              -8.7398
        68        1.7021           -0.2753532              -7.4927 (HOMO)
        69        0.2979           -0.2720415              -7.4026 (LUMO)
        70                         -0.2254761              -6.1355
        71                         -0.2120997              -5.7715
        72                         -0.1676589              -4.5622
        73                         -0.1531724              -4.1680
        74                         -0.1293688              -3.5203
        75                         -0.1194008              -3.2491
        76                         -0.0937045              -2.5498
        77                         -0.0882214              -2.4006
        78                         -0.0861376              -2.3439
        79                         -0.0780471              -2.1238
       ...                                ...                  ...
       134                          0.7100824              19.3223
      -------------------------------------------------------------
                  HL-Gap            0.0033117 Eh            0.0901 eV

Wiberg/Mayer (AO) data.
largest (>0.10) Wiberg bond orders for each atom

     #   Z sym  total        # sym  WBO       # sym  WBO       # sym  WBO
 ---------------------------------------------------------------------------
     1   6 C    3.901 --    28 H    0.987    27 H    0.981    26 H    0.980
                             2 O    0.923
     2   8 O    2.154 --     3 C    1.043     1 C    0.923     4 O    0.109
     3   6 C    3.768 --     4 O    1.616     2 O    1.043     5 C    0.911
     4   8 O    1.869 --     3 C    1.616     2 O    0.109
     5   6 C    3.973 --     7 N    0.995     6 C    0.973    24 C    0.966
                             3 C    0.911
     6   6 C    3.981 --    31 H    0.989    29 H    0.987    30 H    0.987
                             5 C    0.973
     7   7 N    2.862 --     8 C    1.491     5 C    0.995    21 N    0.173
     8   6 C    3.958 --     7 N    1.491    21 N    1.397     9 C    0.952
     9   6 C    3.926 --    11 C    0.989    10 C    0.983     8 C    0.952
                            12 N    0.927
    10   6 C    3.993 --    34 H    0.987    32 H    0.986    33 H    0.985
                             9 C    0.983
    11   6 C    3.994 --     9 C    0.989    36 H    0.987    37 H    0.985
                            35 H    0.983
    12   7 N    3.314 --    13 C    1.257     9 C    0.927    38 H    0.877
                            14 O    0.161
    13   6 C    3.850 --    14 O    1.474    12 N    1.257    15 C    1.047
    14   8 O    1.760 --    13 C    1.474    12 N    0.161
    15   6 C    3.746 --    16 N    1.512    13 C    1.047    20 O    1.008
    16   7 N    2.848 --    15 C    1.512    17 N    1.188
    17   7 N    2.979 --    18 C    1.624    16 N    1.188
    18   6 C    3.840 --    17 N    1.624    20 O    1.060    19 C    1.027
    19   6 C    3.992 --    18 C    1.027    39 H    0.985    40 H    0.969
                            41 H    0.968
    20   8 O    2.241 --    18 C    1.060    15 C    1.008
    21   7 N    2.894 --     8 C    1.397    22 C    1.084     7 N    0.173
    22   6 C    3.911 --    23 O    1.358    24 C    1.348    21 N    1.084
    23   8 O    1.653 --    22 C    1.358    24 C    0.104
    24   6 C    3.601 --    22 C    1.348     5 C    0.966    25 O    0.953
                            23 O    0.104
    25   8 O    1.895 --    24 C    0.953    42 H    0.852
    26   1 H    1.013 --     1 C    0.980
    27   1 H    1.014 --     1 C    0.981
    28   1 H    1.016 --     1 C    0.987
    29   1 H    1.018 --     6 C    0.987
    30   1 H    1.018 --     6 C    0.987
    31   1 H    1.013 --     6 C    0.989
    32   1 H    1.022 --    10 C    0.986
    33   1 H    1.017 --    10 C    0.985
    34   1 H    1.010 --    10 C    0.987
    35   1 H    1.031 --    11 C    0.983
    36   1 H    1.010 --    11 C    0.987
    37   1 H    1.018 --    11 C    0.985
    38   1 H    0.990 --    12 N    0.877
    39   1 H    1.003 --    19 C    0.985
    40   1 H    0.999 --    19 C    0.969
    41   1 H    0.999 --    19 C    0.968
    42   1 H    0.905 --    25 O    0.852
 ---------------------------------------------------------------------------

           -------------------------------------------------
          | TOTAL ENERGY              -83.600212675244 Eh   |
          | GRADIENT NORM               0.000149080395 Eh/α |
          | HOMO-LUMO GAP               0.090116547231 eV   |
           -------------------------------------------------

 * finished run on 2023/06/20 at 17:37:18.188
