   * xtb version 6.5.1 (579679a) compiled by 'ehlert@majestix' on 2022-07-11
          program call               : /lustre/hpc/kemi/ree/PhD/git/ReactivityQM/dep/xtb-6.5.1/bin/xtb --gfn 1 /lustre/hpc/kemi/ree/PhD/git/ReactivityQM/calculations/R02deprot/reac01prodE04/conf14/R02deprot_reac01prodE04_conf14_gfn1.xyz --opt --vfukui --chrg -2 --uhf 0 --alpb DMSO

   ID    Z sym.   atoms
    1    6 C      1, 3, 5, 6, 8-11, 13, 15, 18, 19, 22, 24
    2    8 O      2, 4, 14, 20, 23, 25
    3    7 N      7, 12, 16, 17, 21
    4    1 H      26-42

      * Solvation model:               ALPB
        Solvent                        DMSO
        Solvent mass                       7.8130E+01 g/mol
          :  Hamiltonian                  GFN1-xTB          :
 * total energy  :   -83.5700446 Eh     change       -0.2054890E-10 Eh
 * total energy  :   -83.5865740 Eh     change       -0.1652938E-01 Eh
 * total energy  :   -83.5924102 Eh     change       -0.5836189E-02 Eh
 * total energy  :   -83.5934474 Eh     change       -0.1037188E-02 Eh
 * total energy  :   -83.5941451 Eh     change       -0.6977270E-03 Eh
 * total energy  :   -83.5945047 Eh     change       -0.3596683E-03 Eh
 * total energy  :   -83.5948000 Eh     change       -0.2952568E-03 Eh
 * total energy  :   -83.5950924 Eh     change       -0.2924350E-03 Eh
 * total energy  :   -83.5953710 Eh     change       -0.2785151E-03 Eh
 * total energy  :   -83.5956081 Eh     change       -0.2371728E-03 Eh
 * total energy  :   -83.6005373 Eh     change       -0.2975876E-04 Eh
 * total energy  :   -83.6005466 Eh     change       -0.9351713E-05 Eh
 * total energy  :   -83.6005569 Eh     change       -0.1031803E-04 Eh
 * total energy  :   -83.6005622 Eh     change       -0.5294360E-05 Eh
 * total energy  :   -83.6005694 Eh     change       -0.7226472E-05 Eh
 * total energy  :   -83.6005781 Eh     change       -0.8693121E-05 Eh
 * total energy  :   -83.6005826 Eh     change       -0.4459218E-05 Eh
 * total energy  :   -83.6005877 Eh     change       -0.5129965E-05 Eh
 * total energy  :   -83.6005923 Eh     change       -0.4623487E-05 Eh
   *** GEOMETRY OPTIMIZATION CONVERGED AFTER 60 ITERATIONS ***

 final structure:
================
42
 xtb: 6.5.1 (579679a)
C           -5.16718403384980        2.14699171870414        0.67498240093396
O           -4.62971399249164        0.85519369270287        0.42964914210974
C           -3.33882845736440        0.81682365938314       -0.01241829933742
O           -2.72111479322222        1.84956181456160       -0.22970405248681
C           -2.75297117585262       -0.60444320661624        0.00011934565951
C           -3.80329897016089       -1.64956688566429       -0.41444532625684
N           -1.61315325071433       -0.67457365175747       -0.89423288421540
C           -0.42811998258552       -0.46715782896541       -0.36725866669456
C            0.70202911141605       -0.43317750427668       -1.41330886574920
C            0.40586930502902        0.67824532026537       -2.43181230384816
C            0.77139993769841       -1.79841226952467       -2.11518592430150
N            1.95128019487369       -0.16138965553720       -0.71198591596373
C            3.15669579199283       -0.04768145427580       -1.29801788153920
O            3.36214293954327       -0.15060732167338       -2.51911113255564
C            4.25451179644734        0.22394065239345       -0.36472418898541
N            5.52712916215473        0.39138488016101       -0.65948833167570
N            6.17604911942532        0.62166039881927        0.52248837060827
C            5.28282297201628        0.58358524138423        1.45900956187791
C            5.50074550328546        0.77257496064346        2.91287072007540
O            4.04571173054458        0.33884691376221        0.98187187415283
N           -0.05248889916669       -0.30996721758868        0.89257580500908
C           -1.03428059985647       -0.48680483838021        1.87691959999291
O           -0.72561993449780       -0.51653394238410        3.11130569348804
C           -2.34178735733012       -0.69161734383547        1.43698547385343
O           -3.35365778771460       -0.92236698579324        2.39350960532965
H           -6.19771442812956        2.01002075575952        1.00164717452107
H           -5.14933869042657        2.75425325974253       -0.23710213743735
H           -4.59834552387624        2.66671921382106        1.45406710481134
H           -4.17273411841618       -1.43252046983823       -1.41666425161144
H           -3.34251522771072       -2.63710192436865       -0.41956415212603
H           -4.64053624645761       -1.65208551250523        0.28204937071037
H            0.44598015670974        1.65317005551071       -1.94443974094822
H           -0.59752653217051        0.52715871491498       -2.83187345064583
H            1.12245692163063        0.66334328746334       -3.25255115789627
H            1.50437284037121       -1.78999602082440       -2.92153769409825
H           -0.21004097493408       -2.03179707513719       -2.52848748693730
H            1.04408943347086       -2.57369547159257       -1.39865860674975
H            1.85626445484177       -0.09069510603625        0.30339835200764
H            6.55892483254152        0.93505380932945        3.10006306016226
H            5.16769468310587       -0.10776028596352        3.46273350192806
H            4.93537040626689        1.63188494272661        3.27398218590422
H           -2.90056831644605       -0.89045931954686        3.25390410893838

          :  Hamiltonian                  GFN1-xTB          :
         :: total energy             -83.600592348389 Eh    ::
         :: gradient norm              0.000950994426 Eh/a0 ::
         :: HOMO-LUMO gap              0.093141279781 eV    ::
         :: SCC energy               -84.323979934829 Eh    ::
         :: -> Gsolv                  -0.272631676211 Eh    ::
         :: repulsion energy           0.749655968995 Eh    ::

    * Orbital Energies and Occupations

         #    Occupation            Energy/Eh            Energy/eV
      -------------------------------------------------------------
         1        2.0000           -0.8246917             -22.4410
       ...           ...                  ...                  ...
        56        2.0000           -0.4366701             -11.8824
        57        2.0000           -0.4299947             -11.7008
        58        2.0000           -0.4225798             -11.4990
        59        2.0000           -0.4212980             -11.4641
        60        2.0000           -0.4168686             -11.3436
        61        2.0000           -0.4073381             -11.0842
        62        2.0000           -0.4019619             -10.9379
        63        2.0000           -0.3918578             -10.6630
        64        2.0000           -0.3818401             -10.3904
        65        2.0000           -0.3482004              -9.4750
        66        2.0000           -0.3234426              -8.8013
        67        2.0000           -0.3208114              -8.7297
        68        1.7166           -0.2757309              -7.5030 (HOMO)
        69        0.2834           -0.2723080              -7.4099 (LUMO)
        70                         -0.2260600              -6.1514
        71                         -0.2088549              -5.6832
        72                         -0.1676848              -4.5629
        73                         -0.1537018              -4.1824
        74                         -0.1295428              -3.5250
        75                         -0.1178632              -3.2072
        76                         -0.0935606              -2.5459
        77                         -0.0887836              -2.4159
        78                         -0.0860783              -2.3423
        79                         -0.0786756              -2.1409
       ...                                ...                  ...
       134                          0.7120159              19.3749
      -------------------------------------------------------------
                  HL-Gap            0.0034229 Eh            0.0931 eV

Wiberg/Mayer (AO) data.
largest (>0.10) Wiberg bond orders for each atom

     #   Z sym  total        # sym  WBO       # sym  WBO       # sym  WBO
 ---------------------------------------------------------------------------
     1   6 C    3.902 --    26 H    0.987    27 H    0.981    28 H    0.981
                             2 O    0.925
     2   8 O    2.145 --     3 C    1.032     1 C    0.925     4 O    0.106
     3   6 C    3.767 --     4 O    1.603     2 O    1.032     5 C    0.910
                            24 C    0.112
     4   8 O    1.861 --     3 C    1.603     2 O    0.106
     5   6 C    3.973 --     7 N    0.995     6 C    0.978    24 C    0.963
                             3 C    0.910
     6   6 C    3.985 --    29 H    0.989    30 H    0.987    31 H    0.986
                             5 C    0.978
     7   7 N    2.862 --     8 C    1.491     5 C    0.995    21 N    0.172
     8   6 C    3.958 --     7 N    1.491    21 N    1.397     9 C    0.952
     9   6 C    3.926 --    10 C    0.987    11 C    0.985     8 C    0.952
                            12 N    0.928
    10   6 C    3.994 --     9 C    0.987    32 H    0.987    34 H    0.985
                            33 H    0.984
    11   6 C    3.993 --    37 H    0.987     9 C    0.985    36 H    0.985
                            35 H    0.985
    12   7 N    3.320 --    13 C    1.261     9 C    0.928    38 H    0.873
                            14 O    0.163
    13   6 C    3.853 --    14 O    1.476    12 N    1.261    15 C    1.044
    14   8 O    1.763 --    13 C    1.476    12 N    0.163
    15   6 C    3.749 --    16 N    1.516    13 C    1.044    20 O    1.009
    16   7 N    2.852 --    15 C    1.516    17 N    1.187
    17   7 N    2.979 --    18 C    1.624    16 N    1.187
    18   6 C    3.841 --    17 N    1.624    20 O    1.061    19 C    1.027
    19   6 C    3.992 --    18 C    1.027    39 H    0.985    40 H    0.969
                            41 H    0.968
    20   8 O    2.244 --    18 C    1.061    15 C    1.009
    21   7 N    2.901 --     8 C    1.397    22 C    1.085     7 N    0.172
    22   6 C    3.912 --    23 O    1.362    24 C    1.342    21 N    1.085
    23   8 O    1.658 --    22 C    1.362    24 C    0.103
    24   6 C    3.612 --    22 C    1.342     5 C    0.963    25 O    0.954
                             3 C    0.112    23 O    0.103
    25   8 O    1.899 --    24 C    0.954    42 H    0.853
    26   1 H    1.016 --     1 C    0.987
    27   1 H    1.016 --     1 C    0.981
    28   1 H    1.013 --     1 C    0.981
    29   1 H    1.013 --     6 C    0.989
    30   1 H    1.017 --     6 C    0.987
    31   1 H    1.018 --     6 C    0.986
    32   1 H    1.010 --    10 C    0.987
    33   1 H    1.028 --    10 C    0.984
    34   1 H    1.018 --    10 C    0.985
    35   1 H    1.017 --    11 C    0.985
    36   1 H    1.024 --    11 C    0.985
    37   1 H    1.009 --    11 C    0.987
    38   1 H    0.991 --    12 N    0.873
    39   1 H    1.003 --    19 C    0.985
    40   1 H    0.999 --    19 C    0.969
    41   1 H    0.999 --    19 C    0.968
    42   1 H    0.905 --    25 O    0.853
 ---------------------------------------------------------------------------

           -------------------------------------------------
          | TOTAL ENERGY              -83.600592348389 Eh   |
          | GRADIENT NORM               0.000950994426 Eh/α |
          | HOMO-LUMO GAP               0.093141279781 eV   |
           -------------------------------------------------

 * finished run on 2023/06/20 at 17:36:57.648
