   * xtb version 6.5.1 (579679a) compiled by 'ehlert@majestix' on 2022-07-11
          program call               : /lustre/hpc/kemi/ree/PhD/git/ReactivityQM/dep/xtb-6.5.1/bin/xtb --gfn 1 /lustre/hpc/kemi/ree/PhD/git/ReactivityQM/calculations/R01/reac01prodE06/conf02/R01_reac01prodE06_conf02_gfn1.xyz --opt --vfukui --chrg -1 --uhf 0 --alpb DMSO

   ID    Z sym.   atoms
    1    6 C      1, 3, 5, 8-10
    2    8 O      2, 4, 11
    3    7 N      6, 7
    4    1 H      12-20

      * Solvation model:               ALPB
        Solvent                        DMSO
        Solvent mass                       7.8130E+01 g/mol
          :  Hamiltonian                  GFN1-xTB          :
 * total energy  :   -38.3453219 Eh     change       -0.2643219E-11 Eh
 * total energy  :   -38.3528175 Eh     change       -0.7495579E-02 Eh
 * total energy  :   -38.3548273 Eh     change       -0.2009742E-02 Eh
 * total energy  :   -38.3550268 Eh     change       -0.1995626E-03 Eh
 * total energy  :   -38.3551390 Eh     change       -0.1121307E-03 Eh
 * total energy  :   -38.3551608 Eh     change       -0.2181357E-04 Eh
 * total energy  :   -38.3551763 Eh     change       -0.1550663E-04 Eh
 * total energy  :   -38.3551817 Eh     change       -0.5415805E-05 Eh
 * total energy  :   -38.3551787 Eh     change        0.2985918E-05 Eh
 * total energy  :   -38.3551830 Eh     change       -0.4258708E-05 Eh
 * total energy  :   -38.3551848 Eh     change       -0.1879702E-05 Eh
   *** GEOMETRY OPTIMIZATION CONVERGED AFTER 11 ITERATIONS ***

 final structure:
================
20
 xtb: 6.5.1 (579679a)
C            4.11685000076001       -0.32557535374986       -0.22450211317788
O            2.81492426515433        0.18526274255156       -0.44907699912144
C            1.78612110883384       -0.56069263139150        0.12566124653598
O            2.04682551478964       -1.58198008103433        0.77581602910695
C            0.52672852465378        0.00202037408402       -0.14240178232964
N            0.27403511481366        1.10445854453865       -0.84595516451829
N           -0.99514077139923        1.34135355106496       -0.90449570159098
C           -1.68684270646130        0.27663663124544       -0.15661460033803
C           -2.62183370742766       -0.49506315306056       -1.10210985353350
C           -2.47410858773928        0.89264479304314        1.01098962279340
O           -0.66546262669714       -0.57814228439538        0.33220107060301
H            4.35797968721957       -0.33527010690715        0.84470977807872
H            4.81362050965339        0.32964494333822       -0.74782416332167
H            4.21312947983531       -1.34588812440975       -0.61331926273997
H           -3.10585532485872       -1.31080548461706       -0.56803531042013
H           -3.38021739251733        0.17656762533527       -1.49885765981954
H           -2.04210456395303       -0.90483579816016       -1.92779931885949
H           -2.96814951226982        0.11108426793452        1.58541546745414
H           -1.78978362794060        1.43444539614545        1.66192671399933
H           -3.22071738444954        1.58413514844429        0.62609900119903

          :  Hamiltonian                  GFN1-xTB          :
         :: total energy             -38.355184838891 Eh    ::
         :: gradient norm              0.000405995710 Eh/a0 ::
         :: HOMO-LUMO gap              2.120111034603 eV    ::
         :: SCC energy               -38.663068326135 Eh    ::
         :: -> Gsolv                  -0.096814855195 Eh    ::
         :: repulsion energy           0.316335310154 Eh    ::

    * Orbital Energies and Occupations

         #    Occupation            Energy/Eh            Energy/eV
      -------------------------------------------------------------
         1        2.0000           -0.7798744             -21.2215
       ...           ...                  ...                  ...
        19        2.0000           -0.5082712             -13.8308
        20        2.0000           -0.4952235             -13.4757
        21        2.0000           -0.4864562             -13.2371
        22        2.0000           -0.4840794             -13.1725
        23        2.0000           -0.4777913             -13.0014
        24        2.0000           -0.4703392             -12.7986
        25        2.0000           -0.4504629             -12.2577
        26        2.0000           -0.4496033             -12.2343
        27        2.0000           -0.4390875             -11.9482
        28        2.0000           -0.4243464             -11.5471
        29        2.0000           -0.4127194             -11.2307
        30        2.0000           -0.3743967             -10.1879
        31        2.0000           -0.3214825              -8.7480 (HOMO)
        32                         -0.2435699              -6.6279 (LUMO)
        33                         -0.1281452              -3.4870
        34                         -0.1158160              -3.1515
        35                         -0.1055859              -2.8731
        36                         -0.0996541              -2.7117
        37                         -0.0588581              -1.6016
        38                         -0.0540295              -1.4702
        39                         -0.0521227              -1.4183
        40                         -0.0472938              -1.2869
        41                         -0.0290800              -0.7913
        42                         -0.0273357              -0.7438
       ...                                ...                  ...
        62                          0.7036074              19.1461
      -------------------------------------------------------------
                  HL-Gap            0.0779126 Eh            2.1201 eV

Wiberg/Mayer (AO) data.
largest (>0.10) Wiberg bond orders for each atom

     #   Z sym  total        # sym  WBO       # sym  WBO       # sym  WBO
 ---------------------------------------------------------------------------
     1   6 C    3.908 --    13 H    0.987    12 H    0.981    14 H    0.981
                             2 O    0.939
     2   8 O    2.085 --     3 C    0.961     1 C    0.939
     3   6 C    3.882 --     4 O    1.489     5 C    1.249     2 O    0.961
                             7 N    0.105
     4   8 O    1.812 --     3 C    1.489
     5   6 C    3.846 --     6 N    1.368     3 C    1.249    11 O    0.931
                             7 N    0.151
     6   7 N    3.024 --     7 N    1.502     5 C    1.368
     7   7 N    2.899 --     6 N    1.502     8 C    0.978     5 C    0.151
                             3 C    0.105
     8   6 C    3.900 --    10 C    0.978     9 C    0.978     7 N    0.978
                            11 O    0.929
     9   6 C    3.995 --    16 H    0.988    15 H    0.986    17 H    0.985
                             8 C    0.978
    10   6 C    3.995 --    20 H    0.988    18 H    0.986    19 H    0.985
                             8 C    0.978
    11   8 O    2.050 --     5 C    0.931     8 C    0.929
    12   1 H    1.016 --     1 C    0.981
    13   1 H    1.018 --     1 C    0.987
    14   1 H    1.017 --     1 C    0.981
    15   1 H    1.008 --     9 C    0.986
    16   1 H    1.010 --     9 C    0.988
    17   1 H    1.014 --     9 C    0.985
    18   1 H    1.008 --    10 C    0.986
    19   1 H    1.014 --    10 C    0.985
    20   1 H    1.010 --    10 C    0.988
 ---------------------------------------------------------------------------

           -------------------------------------------------
          | TOTAL ENERGY              -38.355184838891 Eh   |
          | GRADIENT NORM               0.000405995710 Eh/α |
          | HOMO-LUMO GAP               2.120111034603 eV   |
           -------------------------------------------------

 * finished run on 2023/06/20 at 14:54:21.438
