   * xtb version 6.5.1 (579679a) compiled by 'ehlert@majestix' on 2022-07-11
          program call               : /lustre/hpc/kemi/ree/PhD/git/ReactivityQM/dep/xtb-6.5.1/bin/xtb --gfn 1 /lustre/hpc/kemi/ree/PhD/git/ReactivityQM/calculations/R01/reac02prodN02/conf08/R01_reac02prodN02_conf08_gfn1.xyz --opt --vfukui --chrg 1 --uhf 0 --alpb DMSO

   ID    Z sym.   atoms
    1    6 C      1, 3-6, 8, 9, 12, 13, 15
    2    7 N      2, 7, 17
    3    8 O      10, 11, 14, 16
    4    1 H      18-33

      * Solvation model:               ALPB
        Solvent                        DMSO
        Solvent mass                       7.8130E+01 g/mol
          :  Hamiltonian                  GFN1-xTB          :
 * total energy  :   -57.8597391 Eh     change       -0.5215384E-11 Eh
 * total energy  :   -57.8679918 Eh     change       -0.8252676E-02 Eh
 * total energy  :   -57.8702086 Eh     change       -0.2216787E-02 Eh
 * total energy  :   -57.8705879 Eh     change       -0.3792803E-03 Eh
 * total energy  :   -57.8707908 Eh     change       -0.2029620E-03 Eh
 * total energy  :   -57.8708696 Eh     change       -0.7878907E-04 Eh
 * total energy  :   -57.8709267 Eh     change       -0.5706331E-04 Eh
 * total energy  :   -57.8709613 Eh     change       -0.3459772E-04 Eh
 * total energy  :   -57.8709864 Eh     change       -0.2509736E-04 Eh
 * total energy  :   -57.8709971 Eh     change       -0.1072316E-04 Eh
 * total energy  :   -57.8710043 Eh     change       -0.7193171E-05 Eh
 * total energy  :   -57.8710078 Eh     change       -0.3553243E-05 Eh
   *** GEOMETRY OPTIMIZATION CONVERGED AFTER 12 ITERATIONS ***

 final structure:
================
33
 xtb: 6.5.1 (579679a)
C           -2.31065913589513        1.84929574758533        0.26746169816291
N           -2.73703454990301        0.42790067626913        0.32708608213892
C           -1.71066824391002       -0.58226446512042       -0.14510425632206
C           -1.48833556397270       -0.39766394045723       -1.64287948546569
C           -2.29559533258657       -1.96243714162990        0.15923989990678
C           -0.42512676487275       -0.35524397916409        0.61839048764692
N            0.65729939183028       -0.12106125910303       -0.03256080081555
C            1.84387931268672        0.06068345843970        0.64072105051641
C            3.04704680087363        0.32382416155034       -0.20577345781944
O            4.15376409427232        0.54254361940383        0.22424310035224
O            2.75781430002210        0.28730319293283       -1.50581879373167
C            3.84590878921948        0.52327306680318       -2.40799476025477
C            1.88395221165579       -0.00136864958191        2.00791071328872
O            2.99011806334215        0.16428197604745        2.72882329026588
C            0.66141357254640       -0.26499717941333        2.77005495107791
O            0.62661821937357       -0.32720408701155        3.98515173917631
N           -0.46017389930604       -0.43755913044090        1.98449540273857
H           -1.40628967603726        1.96375510920162        0.85898316685196
H           -3.11720954666401        2.44618072724398        0.68459628136830
H           -2.13376633191871        2.12422612788784       -0.76822203942938
H           -3.57555681746417        0.31407022120421       -0.23755125235034
H           -2.99938930725544        0.21225473881523        1.28509939173725
H           -0.84423697456843       -1.19957721767581       -2.00188448027116
H           -2.43850065540699       -0.44084549112771       -2.17115093405327
H           -0.99852384388614        0.55228335391607       -1.84882863076484
H           -3.21565302491364       -2.10713742647945       -0.40416634596814
H           -2.51293919329821       -2.06413473993123        1.22060919566920
H           -1.57837949501743       -2.73012787649706       -0.12911685854946
H            3.44344923318437        0.41152410385432       -3.41270673854018
H            4.64276323923111       -0.20425198713750       -2.23316901504650
H            4.23721821438260        1.53340597559710       -2.26527752556750
H            2.77624078453546        0.08695326057748        3.67636827322695
H           -1.31944787027916       -0.62788194655859        2.47105265082475

          :  Hamiltonian                  GFN1-xTB          :
         :: total energy             -57.871007832487 Eh    ::
         :: gradient norm              0.000400648011 Eh/a0 ::
         :: HOMO-LUMO gap              3.006064738899 eV    ::
         :: SCC energy               -58.454091055821 Eh    ::
         :: -> Gsolv                  -0.134538152975 Eh    ::
         :: repulsion energy           0.602306945033 Eh    ::

    * Orbital Energies and Occupations

         #    Occupation            Energy/Eh            Energy/eV
      -------------------------------------------------------------
         1        2.0000           -0.8923694             -24.2826
       ...           ...                  ...                  ...
        35        2.0000           -0.5591605             -15.2155
        36        2.0000           -0.5531278             -15.0514
        37        2.0000           -0.5479599             -14.9107
        38        2.0000           -0.5445331             -14.8175
        39        2.0000           -0.5363682             -14.5953
        40        2.0000           -0.5295336             -14.4093
        41        2.0000           -0.5207759             -14.1710
        42        2.0000           -0.5084496             -13.8356
        43        2.0000           -0.5019957             -13.6600
        44        2.0000           -0.4977329             -13.5440
        45        2.0000           -0.4810922             -13.0912
        46        2.0000           -0.4665349             -12.6951
        47        2.0000           -0.4502967             -12.2532 (HOMO)
        48                         -0.3398258              -9.2471 (LUMO)
        49                         -0.3084103              -8.3923
        50                         -0.2536276              -6.9016
        51                         -0.1903285              -5.1791
        52                         -0.1780405              -4.8447
        53                         -0.1755135              -4.7760
        54                         -0.1660247              -4.5178
        55                         -0.1520834              -4.1384
        56                         -0.1427731              -3.8851
        57                         -0.1388843              -3.7792
        58                         -0.1186939              -3.2298
       ...                                ...                  ...
       100                          0.7360650              20.0293
      -------------------------------------------------------------
                  HL-Gap            0.1104708 Eh            3.0061 eV

Wiberg/Mayer (AO) data.
largest (>0.10) Wiberg bond orders for each atom

     #   Z sym  total        # sym  WBO       # sym  WBO       # sym  WBO
 ---------------------------------------------------------------------------
     1   6 C    3.892 --    18 H    0.984    20 H    0.982    19 H    0.980
                             2 N    0.916
     2   7 N    3.593 --     1 C    0.916    22 H    0.892    21 H    0.887
                             3 C    0.870
     3   6 C    3.897 --     4 C    1.003     5 C    0.990     6 C    0.982
                             2 N    0.870
     4   6 C    3.983 --     3 C    1.003    24 H    0.982    25 H    0.978
                            23 H    0.977
     5   6 C    3.981 --     3 C    0.990    26 H    0.979    27 H    0.979
                            28 H    0.977
     6   6 C    3.942 --     7 N    1.612    17 N    1.155     3 C    0.982
     7   7 N    3.034 --     6 C    1.612     8 C    1.168
     8   6 C    3.959 --    13 C    1.504     7 N    1.168     9 C    0.995
     9   6 C    3.856 --    10 O    1.667    11 O    1.116     8 C    0.995
    10   8 O    1.932 --     9 C    1.667    11 O    0.137
    11   8 O    2.201 --     9 C    1.116    12 C    0.893    10 O    0.137
    12   6 C    3.867 --    29 H    0.986    30 H    0.979    31 H    0.979
                            11 O    0.893
    13   6 C    3.921 --     8 C    1.504    14 O    1.128    15 C    1.052
    14   8 O    2.106 --    13 C    1.128    32 H    0.802
    15   6 C    3.906 --    16 O    1.602    17 N    1.121    13 C    1.052
    16   8 O    1.925 --    15 C    1.602    17 N    0.134
    17   7 N    3.454 --     6 C    1.155    15 C    1.121    33 H    0.881
                            16 O    0.134
    18   1 H    0.995 --     1 C    0.984
    19   1 H    0.988 --     1 C    0.980
    20   1 H    0.993 --     1 C    0.982
    21   1 H    0.913 --     2 N    0.887
    22   1 H    0.919 --     2 N    0.892
    23   1 H    1.000 --     4 C    0.977
    24   1 H    0.993 --     4 C    0.982
    25   1 H    1.005 --     4 C    0.978
    26   1 H    0.992 --     5 C    0.979
    27   1 H    0.993 --     5 C    0.979
    28   1 H    0.994 --     5 C    0.977
    29   1 H    1.010 --    12 C    0.986
    30   1 H    1.006 --    12 C    0.979
    31   1 H    1.006 --    12 C    0.979
    32   1 H    0.838 --    14 O    0.802
    33   1 H    0.920 --    17 N    0.881
 ---------------------------------------------------------------------------

           -------------------------------------------------
          | TOTAL ENERGY              -57.871007832487 Eh   |
          | GRADIENT NORM               0.000400648011 Eh/α |
          | HOMO-LUMO GAP               3.006064738899 eV   |
           -------------------------------------------------

 * finished run on 2023/06/20 at 15:03:37.115
