   * xtb version 6.5.1 (579679a) compiled by 'ehlert@majestix' on 2022-07-11
          program call               : /lustre/hpc/kemi/ree/PhD/git/ReactivityQM/dep/xtb-6.5.1/bin/xtb --gfn 1 /lustre/hpc/kemi/ree/PhD/git/ReactivityQM/calculations/RaltegravirCLI/reac02prodN12/conf01/RaltegravirCLI_reac02prodN12_conf01_gfn1.xyz --opt --vfukui --chrg 1 --uhf 0 --alpb DMSO

   ID    Z sym.   atoms
    1    6 C      1, 3, 5, 6, 8, 9, 12-16, 18, 19, 21-24
    2    7 N      2, 11, 20, 25
    3    8 O      4, 7, 10
    4    9 F      17
    5    1 H      26-47

      * Solvation model:               ALPB
        Solvent                        DMSO
        Solvent mass                       7.8130E+01 g/mol
          :  Hamiltonian                  GFN1-xTB          :
 * total energy  :   -79.4694388 Eh     change       -0.2614797E-11 Eh
 * total energy  :   -79.4810583 Eh     change       -0.1161943E-01 Eh
 * total energy  :   -79.4862350 Eh     change       -0.5176776E-02 Eh
 * total energy  :   -79.4873916 Eh     change       -0.1156515E-02 Eh
 * total energy  :   -79.4880754 Eh     change       -0.6838500E-03 Eh
 * total energy  :   -79.4883688 Eh     change       -0.2934266E-03 Eh
 * total energy  :   -79.4886143 Eh     change       -0.2454928E-03 Eh
 * total energy  :   -79.4888288 Eh     change       -0.2144427E-03 Eh
 * total energy  :   -79.4889989 Eh     change       -0.1700935E-03 Eh
 * total energy  :   -79.4891314 Eh     change       -0.1325764E-03 Eh
 * total energy  :   -79.4916425 Eh     change       -0.6899408E-05 Eh
 * total energy  :   -79.4916509 Eh     change       -0.8383490E-05 Eh
 * total energy  :   -79.4916625 Eh     change       -0.1158075E-04 Eh
 * total energy  :   -79.4916783 Eh     change       -0.1587145E-04 Eh
 * total energy  :   -79.4916961 Eh     change       -0.1780161E-04 Eh
 * total energy  :   -79.4917092 Eh     change       -0.1304799E-04 Eh
 * total energy  :   -79.4917222 Eh     change       -0.1301271E-04 Eh
 * total energy  :   -79.4917305 Eh     change       -0.8265079E-05 Eh
 * total energy  :   -79.4917351 Eh     change       -0.4679025E-05 Eh
   *** GEOMETRY OPTIMIZATION CONVERGED AFTER 66 ITERATIONS ***

 final structure:
================
47
 xtb: 6.5.1 (579679a)
C           -3.69890578694932        0.13972757259782       -1.97127633934802
N           -2.51969298380840       -0.07014550839094       -1.12600290161750
C           -1.53138535322451       -0.90907340201931       -1.72393798956117
O           -1.65265850230662       -1.29143886273237       -2.84924666167372
C           -0.44276419410965       -1.40145749613328       -0.77884300367159
C           -1.06369781714809       -2.62311346890348       -0.04297840647108
O            0.69343845815072       -1.77314713917041       -1.49075025568346
C           -0.13837101079358       -0.33160147855396        0.21826496562107
C            1.21949141932601       -0.04187143380585        0.82602341726524
O            1.41452398726700        1.01103892922730        1.40644859527640
N            2.11874403183805       -1.02633700265166        0.71546496853990
C            3.46125944287877       -0.85802084534964        1.27170598384680
C            4.30359136040444       -0.04073177383038        0.31615951147679
C            4.91210873983562       -0.65489551040924       -0.77570771823006
C            5.66178343797257        0.09092266056945       -1.67424714220656
C            5.78129555674366        1.45212221329511       -1.45672713783648
F            6.50210373225132        2.18078863148778       -2.32124240289725
C            5.18438084982202        2.09293843296954       -0.38544782838571
C            4.43710675574189        1.33283364526572        0.50275616685639
N           -1.10773825939723        0.40861612183378        0.63828374978185
C           -2.34637433723189        0.40949935129004        0.10050420086809
C           -3.43993526343971        1.00659434814275        0.95533019877212
C           -2.84495706575008        1.60852219671676        2.23499895759037
C           -4.39398462868788       -0.14861291334790        1.31076104232762
N           -4.17221902008828        2.01151089371563        0.20242436546747
H           -4.25326135530775       -0.79585021947975       -2.02479770235065
H           -4.30973976759580        0.92928926522203       -1.54155466361152
H           -3.35290919651245        0.41368148122989       -2.96734358285078
H           -0.30914428690307       -3.04130353308469        0.61890096799746
H           -1.93374324230161       -2.31937398332869        0.53363051131689
H           -1.34988262172260       -3.36835527703274       -0.78198518012178
H            0.45895335121120       -2.30789918865811       -2.26377322780987
H            1.93976316746569       -1.83847890930946        0.14901093173549
H            3.36664625362680       -0.35057923921155        2.23567065998239
H            3.88171128406959       -1.85373249776947        1.41816316828113
H            4.80049607519001       -1.72141719190510       -0.92639190333942
H            6.13983828078161       -0.37261071624496       -2.52717342141984
H            5.30006163440569        3.16096344267434       -0.25320104902107
H            3.94875359006462        1.81088888620150        1.34371698936398
H           -2.32974541194214        0.84006642882794        2.80897196821596
H           -2.13868722386382        2.39848758537592        1.98518483099801
H           -3.64870953800959        2.02723358109708        2.83692005128539
H           -3.85012196765807       -0.94457729790543        1.81656063442239
H           -5.16854686396793        0.22962105382808        1.97538883703382
H           -4.86124725217224       -0.54896900537051        0.41396883475843
H           -3.62803165925773        2.86028794167294        0.13441610304684
H           -5.03959579889709        2.21795823135076        0.67613990597867

          :  Hamiltonian                  GFN1-xTB          :
         :: total energy             -79.491735146113 Eh    ::
         :: gradient norm              0.000655491908 Eh/a0 ::
         :: HOMO-LUMO gap              0.713667286789 eV    ::
         :: SCC energy               -80.384852659666 Eh    ::
         :: -> Gsolv                  -0.109458795677 Eh    ::
         :: repulsion energy           0.924364726900 Eh    ::

    * Orbital Energies and Occupations

         #    Occupation            Energy/Eh            Energy/eV
      -------------------------------------------------------------
         1        2.0000           -0.8867791             -24.1305
       ...           ...                  ...                  ...
        55        2.0000           -0.5211667             -14.1817
        56        2.0000           -0.5196926             -14.1416
        57        2.0000           -0.5180694             -14.0974
        58        2.0000           -0.5142318             -13.9930
        59        2.0000           -0.5116146             -13.9217
        60        2.0000           -0.5037158             -13.7068
        61        2.0000           -0.4979101             -13.5488
        62        2.0000           -0.4813167             -13.0973
        63        2.0000           -0.4776070             -12.9963
        64        2.0000           -0.4668740             -12.7043
        65        2.0000           -0.4588418             -12.4857
        66        2.0000           -0.4458657             -12.1326
        67        2.0000           -0.4420778             -12.0295 (HOMO)
        68        0.0000           -0.4158510             -11.3159 (LUMO)
        69                         -0.3426596              -9.3242
        70                         -0.3012164              -8.1965
        71                         -0.2808274              -7.6417
        72                         -0.2756207              -7.5000
        73                         -0.2448076              -6.6616
        74                         -0.1634729              -4.4483
        75                         -0.1582170              -4.3053
        76                         -0.1541673              -4.1951
        77                         -0.1433387              -3.9004
        78                         -0.1358107              -3.6956
       ...                                ...                  ...
       144                          0.6887660              18.7423
      -------------------------------------------------------------
                  HL-Gap            0.0262268 Eh            0.7137 eV

Wiberg/Mayer (AO) data.
largest (>0.10) Wiberg bond orders for each atom

     #   Z sym  total        # sym  WBO       # sym  WBO       # sym  WBO
 ---------------------------------------------------------------------------
     1   6 C    3.880 --    28 H    0.969    26 H    0.966    27 H    0.959
                             2 N    0.901
     2   7 N    3.555 --    21 C    1.385     3 C    1.000     1 C    0.901
     3   6 C    3.858 --     4 O    1.780     2 N    1.000     5 C    0.932
     4   8 O    2.040 --     3 C    1.780
     5   6 C    3.934 --     8 C    1.000     7 O    0.988     3 C    0.932
                             6 C    0.895
     6   6 C    3.969 --    30 H    0.984    31 H    0.977    29 H    0.976
                             5 C    0.895
     7   8 O    1.926 --     5 C    0.988    32 H    0.814
     8   6 C    3.899 --    20 N    1.636     5 C    1.000     9 C    0.959
     9   6 C    3.922 --    10 O    1.590    11 N    1.297     8 C    0.959
    10   8 O    1.914 --     9 C    1.590    11 N    0.202
    11   7 N    3.417 --     9 C    1.297    12 C    0.927    33 H    0.880
                            10 O    0.202
    12   6 C    3.929 --    13 C    0.986    35 H    0.974    34 H    0.970
                            11 N    0.927
    13   6 C    3.981 --    19 C    1.418    14 C    1.418    12 C    0.986
    14   6 C    3.993 --    15 C    1.445    13 C    1.418    36 H    0.971
                            18 C    0.110
    15   6 C    3.990 --    14 C    1.445    16 C    1.399    37 H    0.968
                            19 C    0.110
    16   6 C    3.860 --    18 C    1.399    15 C    1.399    17 F    0.930
    17   9 F    1.059 --    16 C    0.930
    18   6 C    3.991 --    19 C    1.444    16 C    1.399    38 H    0.969
                            14 C    0.110
    19   6 C    3.991 --    18 C    1.444    13 C    1.418    39 H    0.969
                            15 C    0.110
    20   7 N    3.126 --     8 C    1.636    21 C    1.246
    21   6 C    3.868 --     2 N    1.385    20 N    1.246    22 C    0.989
    22   6 C    3.955 --    21 C    0.989    23 C    0.987    25 N    0.984
                            24 C    0.951
    23   6 C    3.988 --    22 C    0.987    42 H    0.983    41 H    0.982
                            40 H    0.981
    24   6 C    3.985 --    43 H    0.984    45 H    0.983    44 H    0.974
                            22 C    0.951
    25   7 N    3.007 --    22 C    0.984    46 H    0.928    47 H    0.924
    26   1 H    0.994 --     1 C    0.966
    27   1 H    1.020 --     1 C    0.959
    28   1 H    0.997 --     1 C    0.969
    29   1 H    0.995 --     6 C    0.976
    30   1 H    0.997 --     6 C    0.984
    31   1 H    0.992 --     6 C    0.977
    32   1 H    0.835 --     7 O    0.814
    33   1 H    0.938 --    11 N    0.880
    34   1 H    1.002 --    12 C    0.970
    35   1 H    1.000 --    12 C    0.974
    36   1 H    0.997 --    14 C    0.971
    37   1 H    0.997 --    15 C    0.968
    38   1 H    0.997 --    18 C    0.969
    39   1 H    1.008 --    19 C    0.969
    40   1 H    1.004 --    23 C    0.981
    41   1 H    1.004 --    23 C    0.982
    42   1 H    0.999 --    23 C    0.983
    43   1 H    0.999 --    24 C    0.984
    44   1 H    0.994 --    24 C    0.974
    45   1 H    0.998 --    24 C    0.983
    46   1 H    0.944 --    25 N    0.928
    47   1 H    0.940 --    25 N    0.924
 ---------------------------------------------------------------------------

           -------------------------------------------------
          | TOTAL ENERGY              -79.491735146113 Eh   |
          | GRADIENT NORM               0.000655491908 Eh/α |
          | HOMO-LUMO GAP               0.713667286789 eV   |
           -------------------------------------------------

 * finished run on 2023/06/20 at 15:33:28.181
