   * xtb version 6.5.1 (579679a) compiled by 'ehlert@majestix' on 2022-07-11
          program call               : /lustre/hpc/kemi/ree/PhD/git/ReactivityQM/dep/xtb-6.5.1/bin/xtb --gfn 1 /lustre/hpc/kemi/ree/PhD/git/ReactivityQM/calculations/RaltegravirCLI/reac02prodN08/conf03/RaltegravirCLI_reac02prodN08_conf03_gfn1.xyz --opt --vfukui --chrg 1 --uhf 0 --alpb DMSO

   ID    Z sym.   atoms
    1    6 C      1, 3-6, 9, 10, 13-18, 20-22, 24
    2    7 N      2, 7, 8, 12
    3    8 O      11, 23, 25
    4    9 F      19
    5    1 H      26-47

      * Solvation model:               ALPB
        Solvent                        DMSO
        Solvent mass                       7.8130E+01 g/mol
          :  Hamiltonian                  GFN1-xTB          :
 * total energy  :   -79.4623427 Eh     change       -0.2374520E-08 Eh
 * total energy  :   -79.4718620 Eh     change       -0.9519357E-02 Eh
 * total energy  :   -79.4743257 Eh     change       -0.2463679E-02 Eh
 * total energy  :   -79.4746077 Eh     change       -0.2820175E-03 Eh
 * total energy  :   -79.4748148 Eh     change       -0.2070523E-03 Eh
 * total energy  :   -79.4748733 Eh     change       -0.5852992E-04 Eh
 * total energy  :   -79.4749125 Eh     change       -0.3920881E-04 Eh
 * total energy  :   -79.4749353 Eh     change       -0.2274995E-04 Eh
 * total energy  :   -79.4749625 Eh     change       -0.2723840E-04 Eh
 * total energy  :   -79.4749623 Eh     change        0.1558168E-06 Eh
 * total energy  :   -79.4749771 Eh     change       -0.1473761E-04 Eh
 * total energy  :   -79.4749946 Eh     change       -0.1750156E-04 Eh
 * total energy  :   -79.4750036 Eh     change       -0.9051177E-05 Eh
 * total energy  :   -79.4750102 Eh     change       -0.6603795E-05 Eh
 * total energy  :   -79.4750143 Eh     change       -0.4036973E-05 Eh
   *** GEOMETRY OPTIMIZATION CONVERGED AFTER 15 ITERATIONS ***

 final structure:
================
47
 xtb: 6.5.1 (579679a)
C           -3.90737107235658        2.39912491699617       -1.01021925202714
N           -2.80177356343150        1.49997930208760       -0.66809423983420
C           -2.94993526470107        0.19648478882360       -0.26738152341404
C           -4.31741578661453       -0.46650305138099       -0.14024566579902
C           -4.12824809918146       -1.97945400118683        0.06679978456131
C           -5.06505839177767        0.12361627975076        1.06301395081120
N           -5.09806141258099       -0.24583567891600       -1.34983329437235
N           -1.93125280334795       -0.53189743828733        0.06638535360506
C           -0.65218476347248       -0.05615717721136        0.02821192231087
C            0.37632503923152       -1.05011799049731        0.46506475258728
O            0.08641551812279       -2.15844960757886        0.88570629622622
N            1.66821483895070       -0.64244761614873        0.37780799307521
C            2.70598115816107       -1.58972950549820        0.74949502449273
C            4.10064548723897       -0.96718917895441        0.49788751510386
C            5.14803833626070       -2.04627863673584        0.93600711253903
C            4.31570776226043       -0.71479822657631       -0.94397434767908
C            4.76571151359916        0.47866548755823       -1.41944818913300
C            4.99146741607162        1.52330353591252       -0.51018578549820
F            5.42942982237448        2.66226251659216       -0.97110034893951
C            4.75922128456240        1.40709262988380        0.86862409468436
C            4.31123634152715        0.21825063618512        1.35740098964901
C           -0.43586237889227        1.22771393694895       -0.37882389057108
O            0.77397506984638        1.82137386448809       -0.46543965804298
C           -1.55140840218849        2.08085160122180       -0.74181686704585
O           -1.38166316914768        3.24863936600033       -1.08534046078252
H           -4.76630168826273        1.82050739800720       -1.33864842469524
H           -3.57290465443856        3.05613304466680       -1.81304110043710
H           -4.16417811816018        3.00148044061763       -0.13839439067545
H           -5.10299890406903       -2.46301954255390        0.09476734702225
H           -3.60526826209334       -2.16861928229546        1.00322682731465
H           -3.54603056581903       -2.39951093023957       -0.75156839803200
H           -4.45798231642359        0.02440794004199        1.96209722169782
H           -6.00133138162812       -0.41318742843243        1.20924535981965
H           -5.29000443384759        1.17607038486840        0.90444441688196
H           -4.69440934647356       -0.73057867876738       -2.13746926639958
H           -6.05014008546727       -0.55213343784813       -1.21829848992129
H            1.92562620197877        0.24060563638430       -0.02637844002921
H            2.60478176775673       -1.84651586860731        1.80897236341051
H            2.59797581575315       -2.50562534438186        0.15865229781257
H            5.00312116555391       -2.27657910526960        1.98914357258247
H            5.00349770811097       -2.94496494598225        0.34057861970877
H            6.15404822982578       -1.66381725186642        0.78122973333881
H            4.12761340063241       -1.53933533939525       -1.62203720063825
H            4.94491197252650        0.64676197815128       -2.47447969758655
H            4.93279463908332        2.26338564706034        1.50913920575949
H            4.11991272295620        0.09866865958943        2.41771385672290
H            0.62513165199053        2.73736227277403       -0.77997368016450

          :  Hamiltonian                  GFN1-xTB          :
         :: total energy             -79.475014279483 Eh    ::
         :: gradient norm              0.000527400387 Eh/a0 ::
         :: HOMO-LUMO gap              0.144971670479 eV    ::
         :: SCC energy               -80.357196157722 Eh    ::
         :: -> Gsolv                  -0.106738930366 Eh    ::
         :: repulsion energy           0.912909869214 Eh    ::

    * Orbital Energies and Occupations

         #    Occupation            Energy/Eh            Energy/eV
      -------------------------------------------------------------
         1        2.0000           -0.9431652             -25.6648
       ...           ...                  ...                  ...
        55        2.0000           -0.5210061             -14.1773
        56        2.0000           -0.5182860             -14.1033
        57        2.0000           -0.5171934             -14.0735
        58        2.0000           -0.5103501             -13.8873
        59        2.0000           -0.5024960             -13.6736
        60        2.0000           -0.4940823             -13.4447
        61        2.0000           -0.4778235             -13.0022
        62        2.0000           -0.4750056             -12.9256
        63        2.0000           -0.4579017             -12.4601
        64        2.0000           -0.4562626             -12.4155
        65        2.0000           -0.4455371             -12.1237
        66        1.9999           -0.4313250             -11.7370
        67        1.8858           -0.4241672             -11.5422 (HOMO)
        68        0.1143           -0.4188396             -11.3972 (LUMO)
        69                         -0.3319718              -9.0334
        70                         -0.3220802              -8.7642
        71                         -0.2835636              -7.7162
        72                         -0.2481511              -6.7525
        73                         -0.2382358              -6.4827
        74                         -0.1595203              -4.3408
        75                         -0.1578417              -4.2951
        76                         -0.1530954              -4.1659
        77                         -0.1411694              -3.8414
        78                         -0.1403186              -3.8183
       ...                                ...                  ...
       144                          0.7107921              19.3416
      -------------------------------------------------------------
                  HL-Gap            0.0053276 Eh            0.1450 eV

Wiberg/Mayer (AO) data.
largest (>0.10) Wiberg bond orders for each atom

     #   Z sym  total        # sym  WBO       # sym  WBO       # sym  WBO
 ---------------------------------------------------------------------------
     1   6 C    3.909 --    27 H    0.976    28 H    0.975    26 H    0.965
                             2 N    0.925
     2   7 N    3.517 --     3 C    1.176    24 C    1.137     1 C    0.925
                            25 O    0.132
     3   6 C    3.920 --     8 N    1.562     2 N    1.176     4 C    0.973
     4   6 C    3.952 --     6 C    0.984     5 C    0.981     7 N    0.980
                             3 C    0.973
     5   6 C    3.975 --    29 H    0.985    31 H    0.984     4 C    0.981
                            30 H    0.981
     6   6 C    3.991 --    32 H    0.985     4 C    0.984    33 H    0.982
                            34 H    0.982
     7   7 N    2.956 --     4 C    0.980    35 H    0.930    36 H    0.928
     8   7 N    3.028 --     3 C    1.562     9 C    1.198
     9   6 C    3.964 --    22 C    1.504     8 N    1.198    10 C    0.996
    10   6 C    3.900 --    11 O    1.601    12 N    1.222     9 C    0.996
    11   8 O    1.890 --    10 C    1.601    12 N    0.165
    12   7 N    3.306 --    10 C    1.222    13 C    0.959    37 H    0.886
                            11 O    0.165
    13   6 C    3.933 --    38 H    0.968    39 H    0.967    12 N    0.959
                            14 C    0.916
    14   6 C    3.984 --    21 C    1.072    16 C    1.072    13 C    0.916
                            15 C    0.870
    15   6 C    3.950 --    42 H    0.984    41 H    0.979    40 H    0.979
                            14 C    0.870
    16   6 C    3.895 --    17 C    1.614    14 C    1.072    43 H    0.963
    17   6 C    3.983 --    16 C    1.614    18 C    1.283    44 H    0.956
    18   6 C    3.775 --    20 C    1.283    17 C    1.283    19 F    1.036
    19   9 F    1.189 --    18 C    1.036
    20   6 C    3.983 --    21 C    1.613    18 C    1.283    45 H    0.956
    21   6 C    3.895 --    20 C    1.613    14 C    1.072    46 H    0.964
    22   6 C    3.911 --     9 C    1.504    24 C    1.089    23 O    1.071
    23   8 O    2.062 --    22 C    1.071    47 H    0.796
    24   6 C    3.916 --    25 O    1.542     2 N    1.137    22 C    1.089
    25   8 O    1.890 --    24 C    1.542     2 N    0.132
    26   1 H    1.021 --     1 C    0.965
    27   1 H    1.006 --     1 C    0.976
    28   1 H    1.001 --     1 C    0.975
    29   1 H    1.002 --     5 C    0.985
    30   1 H    1.009 --     5 C    0.981
    31   1 H    1.008 --     5 C    0.984
    32   1 H    1.002 --     6 C    0.985
    33   1 H    0.998 --     6 C    0.982
    34   1 H    1.002 --     6 C    0.982
    35   1 H    0.946 --     7 N    0.930
    36   1 H    0.943 --     7 N    0.928
    37   1 H    0.944 --    12 N    0.886
    38   1 H    1.002 --    13 C    0.968
    39   1 H    1.002 --    13 C    0.967
    40   1 H    0.993 --    15 C    0.979
    41   1 H    0.993 --    15 C    0.979
    42   1 H    0.994 --    15 C    0.984
    43   1 H    0.989 --    16 C    0.963
    44   1 H    0.985 --    17 C    0.956
    45   1 H    0.985 --    20 C    0.956
    46   1 H    0.989 --    21 C    0.964
    47   1 H    0.844 --    23 O    0.796
 ---------------------------------------------------------------------------

           -------------------------------------------------
          | TOTAL ENERGY              -79.475014279483 Eh   |
          | GRADIENT NORM               0.000527400387 Eh/α |
          | HOMO-LUMO GAP               0.144971670479 eV   |
           -------------------------------------------------

 * finished run on 2023/06/20 at 15:26:58.774
