   * xtb version 6.5.1 (579679a) compiled by 'ehlert@majestix' on 2022-07-11
          program call               : /lustre/hpc/kemi/ree/PhD/git/ReactivityQM/dep/xtb-6.5.1/bin/xtb --gfn 1 /lustre/hpc/kemi/ree/PhD/git/ReactivityQM/calculations/R03/reac01prodN05/conf10/R03_reac01prodN05_conf10_gfn1.xyz --opt --vfukui --chrg 1 --uhf 0 --alpb DMSO

   ID    Z sym.   atoms
    1    6 C      1, 2, 4-7, 9, 10
    2    9 F      3
    3    7 N      8
    4    1 H      11-21

      * Solvation model:               ALPB
        Solvent                        DMSO
        Solvent mass                       7.8130E+01 g/mol
          :  Hamiltonian                  GFN1-xTB          :
 * total energy  :   -30.7502310 Eh     change       -0.4465761E-11 Eh
 * total energy  :   -30.7541586 Eh     change       -0.3927684E-02 Eh
 * total energy  :   -30.7561302 Eh     change       -0.1971538E-02 Eh
 * total energy  :   -30.7571082 Eh     change       -0.9780212E-03 Eh
 * total energy  :   -30.7581361 Eh     change       -0.1027859E-02 Eh
 * total energy  :   -30.7589731 Eh     change       -0.8370187E-03 Eh
 * total energy  :   -30.7596385 Eh     change       -0.6654194E-03 Eh
 * total energy  :   -30.7601834 Eh     change       -0.5449422E-03 Eh
 * total energy  :   -30.7607413 Eh     change       -0.5578645E-03 Eh
 * total energy  :   -30.7612486 Eh     change       -0.5073362E-03 Eh
 * total energy  :   -30.7620991 Eh     change       -0.5568709E-05 Eh
 * total energy  :   -30.7621057 Eh     change       -0.6597170E-05 Eh
 * total energy  :   -30.7621142 Eh     change       -0.8518751E-05 Eh
 * total energy  :   -30.7621236 Eh     change       -0.9355754E-05 Eh
 * total energy  :   -30.7621321 Eh     change       -0.8520256E-05 Eh
 * total energy  :   -30.7621396 Eh     change       -0.7530903E-05 Eh
 * total energy  :   -30.7621467 Eh     change       -0.7070230E-05 Eh
 * total energy  :   -30.7621529 Eh     change       -0.6252188E-05 Eh
 * total energy  :   -30.7621578 Eh     change       -0.4822672E-05 Eh
   *** GEOMETRY OPTIMIZATION CONVERGED AFTER 27 ITERATIONS ***

 final structure:
================
21
 xtb: 6.5.1 (579679a)
C            2.62166014197411       -0.36632961107030       -0.73641339133821
C            1.80707125404437       -0.31947515357619        0.59499094437302
F            2.72894135654983       -0.42784506033769        1.59913515388221
C            1.13241605743095        0.99827302728445        0.60742351566130
C           -0.16843818300455        1.10718953284536        0.24084006192661
C           -0.95809600554530       -0.04562543411545       -0.00734233718664
C           -2.37948764718259        0.07743733995033       -0.38515925882575
N           -2.90588775941814        1.40746574843017       -0.23605197620419
C           -0.39511040097020       -1.33655670566902        0.17635269299951
C            0.89726885234942       -1.48540406607829        0.55990990591320
H            1.96027621161380       -0.29151495059385       -1.59455151495179
H            3.32532265486309        0.46294198232313       -0.73293586985791
H            3.16404092734493       -1.30863268969766       -0.76430051438223
H            1.74184542065691        1.86608973510313        0.83081553002056
H           -0.64470584468823        2.07800645778273        0.16195601460753
H           -2.46678559707614       -0.22835890262103       -1.43674779597924
H           -2.96974455331987       -0.66062945821024        0.18045230394390
H           -3.82949137706960        1.45821255656586       -0.63790112033393
H           -2.94677063327083        1.67537394239159        0.73569291214504
H           -1.03901398492458       -2.20238219542882        0.07169654158055
H            1.32469110964270       -2.45823509527812        0.77214020200614

          :  Hamiltonian                  GFN1-xTB          :
         :: total energy             -30.762157769975 Eh    ::
         :: gradient norm              0.000221772927 Eh/a0 ::
         :: HOMO-LUMO gap              0.719934499547 eV    ::
         :: SCC energy               -31.154037398104 Eh    ::
         :: -> Gsolv                  -0.085234671788 Eh    ::
         :: repulsion energy           0.401918657541 Eh    ::

    * Orbital Energies and Occupations

         #    Occupation            Energy/Eh            Energy/eV
      -------------------------------------------------------------
         1        2.0000           -0.8941560             -24.3312
       ...           ...                  ...                  ...
        15        2.0000           -0.5978449             -16.2682
        16        2.0000           -0.5924611             -16.1217
        17        2.0000           -0.5779756             -15.7275
        18        2.0000           -0.5697574             -15.5039
        19        2.0000           -0.5647107             -15.3666
        20        2.0000           -0.5628638             -15.3163
        21        2.0000           -0.5544327             -15.0869
        22        2.0000           -0.5507958             -14.9879
        23        2.0000           -0.5318938             -14.4736
        24        2.0000           -0.5217421             -14.1973
        25        2.0000           -0.5189679             -14.1218
        26        2.0000           -0.5091547             -13.8548
        27        2.0000           -0.4462155             -12.1421 (HOMO)
        28        0.0000           -0.4197584             -11.4222 (LUMO)
        29                         -0.3250273              -8.8444
        30                         -0.2515127              -6.8440
        31                         -0.1592940              -4.3346
        32                         -0.1558721              -4.2415
        33                         -0.1423438              -3.8734
        34                         -0.1359234              -3.6987
        35                         -0.1278255              -3.4783
        36                         -0.1183797              -3.2213
        37                         -0.1097349              -2.9860
        38                         -0.0980315              -2.6676
       ...                                ...                  ...
        62                          0.5466435              14.8749
      -------------------------------------------------------------
                  HL-Gap            0.0264571 Eh            0.7199 eV

Wiberg/Mayer (AO) data.
largest (>0.10) Wiberg bond orders for each atom

     #   Z sym  total        # sym  WBO       # sym  WBO       # sym  WBO
 ---------------------------------------------------------------------------
     1   6 C    3.948 --    11 H    0.982    12 H    0.975    13 H    0.974
                             2 C    0.860
     2   6 C    3.887 --    10 C    1.038     4 C    1.035     3 F    0.898
                             1 C    0.860
     3   9 F    1.007 --     2 C    0.898
     4   6 C    3.954 --     5 C    1.657     2 C    1.035    14 H    0.961
     5   6 C    3.985 --     4 C    1.657     6 C    1.265    15 H    0.956
     6   6 C    3.926 --     5 C    1.265     9 C    1.264     7 C    1.080
     7   6 C    3.981 --     6 C    1.080     8 N    1.023    17 H    0.905
                            16 H    0.900
     8   7 N    3.040 --     7 C    1.023    19 H    0.923    18 H    0.920
     9   6 C    3.987 --    10 C    1.659     6 C    1.264    20 H    0.960
    10   6 C    3.956 --     9 C    1.659     2 C    1.038    21 H    0.961
    11   1 H    0.995 --     1 C    0.982
    12   1 H    0.993 --     1 C    0.975
    13   1 H    0.993 --     1 C    0.974
    14   1 H    0.989 --     4 C    0.961
    15   1 H    1.001 --     5 C    0.956
    16   1 H    0.991 --     7 C    0.900
    17   1 H    0.983 --     7 C    0.905
    18   1 H    0.936 --     8 N    0.920
    19   1 H    0.941 --     8 N    0.923
    20   1 H    0.989 --     9 C    0.960
    21   1 H    0.988 --    10 C    0.961
 ---------------------------------------------------------------------------

           -------------------------------------------------
          | TOTAL ENERGY              -30.762157769975 Eh   |
          | GRADIENT NORM               0.000221772927 Eh/α |
          | HOMO-LUMO GAP               0.719934499547 eV   |
           -------------------------------------------------

 * finished run on 2023/06/20 at 15:14:35.890
