   * xtb version 6.5.1 (579679a) compiled by 'ehlert@majestix' on 2022-07-11
          program call               : /lustre/hpc/kemi/ree/PhD/git/ReactivityQM/dep/xtb-6.5.1/bin/xtb --gfn 1 /lustre/hpc/kemi/ree/PhD/git/ReactivityQM/calculations/RaltegravirCLI/reac01prodN02/conf06/RaltegravirCLI_reac01prodN02_conf06_gfn1.xyz --opt --vfukui --chrg 1 --uhf 0 --alpb DMSO

   ID    Z sym.   atoms
    1    6 C      1, 2, 4, 5, 10
    2    8 O      3, 6
    3   17 Cl     7
    4    7 N      8, 9
    5    1 H      11-16

      * Solvation model:               ALPB
        Solvent                        DMSO
        Solvent mass                       7.8130E+01 g/mol
          :  Hamiltonian                  GFN1-xTB          :
 * total energy  :   -33.4328146 Eh     change       -0.1392664E-11 Eh
 * total energy  :   -33.4385070 Eh     change       -0.5692415E-02 Eh
 * total energy  :   -33.4401419 Eh     change       -0.1634858E-02 Eh
 * total energy  :   -33.4402767 Eh     change       -0.1348253E-03 Eh
 * total energy  :   -33.4403605 Eh     change       -0.8378249E-04 Eh
 * total energy  :   -33.4403680 Eh     change       -0.7504080E-05 Eh
 * total energy  :   -33.4403702 Eh     change       -0.2238332E-05 Eh
 * total energy  :   -33.4403738 Eh     change       -0.3596698E-05 Eh
   *** GEOMETRY OPTIMIZATION CONVERGED AFTER 8 ITERATIONS ***

 final structure:
================
16
 xtb: 6.5.1 (579679a)
C           -1.87451602609248       -1.07284848730450        0.43215404824818
C           -0.52945265023478       -0.52946288814811        0.20039935531842
O            0.56273978067948       -1.25105041787469        0.31883284206590
C            1.58948795414445       -0.43454508843570        0.01517615460362
C            2.99415518508093       -0.94376665883633        0.04312949607350
O            3.26043350097555       -2.06656311896043        0.33570376396221
Cl           4.14278260019478        0.24041740869327       -0.38260424795754
N            1.16313445682822        0.75679770801700       -0.28268246381083
N           -0.17056399181930        0.68897524886201       -0.16296134320322
C           -0.98222857186017        1.85822094773718       -0.43734363063160
H           -2.56272173677100       -0.28138963288940        0.72109510626110
H           -2.24009393738538       -1.53198672225166       -0.49029409387471
H           -1.82966273077278       -1.84430691477052        1.20088246012636
H           -0.31133368653314        2.70140580147768       -0.58060159207728
H           -1.64566874424143        2.03290681221201        0.40735655837876
H           -1.56649140219294        1.67719500247220       -1.33824441348293

          :  Hamiltonian                  GFN1-xTB          :
         :: total energy             -33.440373816660 Eh    ::
         :: gradient norm              0.000720549218 Eh/a0 ::
         :: HOMO-LUMO gap              3.236774955735 eV    ::
         :: SCC energy               -33.735972642343 Eh    ::
         :: -> Gsolv                  -0.089520850509 Eh    ::
         :: repulsion energy           0.302770460558 Eh    ::

    * Orbital Energies and Occupations

         #    Occupation            Energy/Eh            Energy/eV
      -------------------------------------------------------------
         1        2.0000           -0.9822621             -26.7287
       ...           ...                  ...                  ...
        15        2.0000           -0.6354491             -17.2915
        16        2.0000           -0.6321506             -17.2017
        17        2.0000           -0.6197781             -16.8650
        18        2.0000           -0.6153403             -16.7443
        19        2.0000           -0.5961342             -16.2216
        20        2.0000           -0.5833867             -15.8748
        21        2.0000           -0.5759234             -15.6717
        22        2.0000           -0.5713217             -15.5465
        23        2.0000           -0.5588936             -15.2083
        24        2.0000           -0.5322250             -14.4826
        25        2.0000           -0.5221486             -14.2084
        26        2.0000           -0.5181416             -14.0993
        27        2.0000           -0.5085581             -13.8386 (HOMO)
        28                         -0.3896088             -10.6018 (LUMO)
        29                         -0.3537758              -9.6267
        30                         -0.2837289              -7.7207
        31                         -0.2394050              -6.5145
        32                         -0.1879398              -5.1141
        33                         -0.1762505              -4.7960
        34                         -0.1258377              -3.4242
        35                         -0.1152696              -3.1366
        36                         -0.1089498              -2.9647
        37                         -0.1078189              -2.9339
        38                         -0.1074918              -2.9250
       ...                                ...                  ...
        57                          0.7209131              19.6170
      -------------------------------------------------------------
                  HL-Gap            0.1189493 Eh            3.2368 eV

Wiberg/Mayer (AO) data.
largest (>0.10) Wiberg bond orders for each atom

     #   Z sym  total        # sym  WBO       # sym  WBO       # sym  WBO
 ---------------------------------------------------------------------------
     1   6 C    3.957 --     2 C    1.046    11 H    0.967    13 H    0.958
                            12 H    0.927
     2   6 C    3.837 --     9 N    1.405     3 O    1.162     1 C    1.046
     3   8 O    2.396 --     2 C    1.162     4 C    1.062
     4   6 C    3.859 --     8 N    1.603     3 O    1.062     5 C    0.982
     5   6 C    3.901 --     6 O    1.795     7 Cl   1.083     4 C    0.982
     6   8 O    2.067 --     5 C    1.795     7 Cl   0.174
     7  17 Cl   1.313 --     5 C    1.083     6 O    0.174
     8   7 N    2.994 --     4 C    1.603     9 N    1.170
     9   7 N    3.632 --     2 C    1.405     8 N    1.170    10 C    0.905
    10   6 C    3.877 --    14 H    0.977    15 H    0.969    16 H    0.965
                             9 N    0.905
    11   1 H    0.986 --     1 C    0.967
    12   1 H    0.981 --     1 C    0.927
    13   1 H    0.984 --     1 C    0.958
    14   1 H    0.991 --    10 C    0.977
    15   1 H    0.988 --    10 C    0.969
    16   1 H    0.988 --    10 C    0.965
 ---------------------------------------------------------------------------

           -------------------------------------------------
          | TOTAL ENERGY              -33.440373816660 Eh   |
          | GRADIENT NORM               0.000720549218 Eh/α |
          | HOMO-LUMO GAP               3.236774955735 eV   |
           -------------------------------------------------

 * finished run on 2023/06/20 at 14:54:30.577
