   * xtb version 6.5.1 (579679a) compiled by 'ehlert@majestix' on 2022-07-11
          program call               : /lustre/hpc/kemi/ree/PhD/git/ReactivityQM/dep/xtb-6.5.1/bin/xtb --gfn 1 /lustre/hpc/kemi/ree/PhD/git/ReactivityQM/calculations/R03/reac02prodN05/conf06/R03_reac02prodN05_conf06_gfn1.xyz --opt --vfukui --chrg 1 --uhf 0 --alpb DMSO

   ID    Z sym.   atoms
    1    6 C      1, 3, 5, 6, 8, 11-15, 17, 19, 22, 23, 26
    2    8 O      2, 4, 7, 9, 18, 24
    3    7 N      10, 16, 20, 21, 25
    4    1 H      27-46

      * Solvation model:               ALPB
        Solvent                        DMSO
        Solvent mass                       7.8130E+01 g/mol
          :  Hamiltonian                  GFN1-xTB          :
 * total energy  :   -86.2981460 Eh     change       -0.3493028E-10 Eh
 * total energy  :   -86.3187577 Eh     change       -0.2061170E-01 Eh
 * total energy  :   -86.3269192 Eh     change       -0.8161530E-02 Eh
 * total energy  :   -86.3292385 Eh     change       -0.2319300E-02 Eh
 * total energy  :   -86.3306264 Eh     change       -0.1387867E-02 Eh
 * total energy  :   -86.3313062 Eh     change       -0.6798014E-03 Eh
 * total energy  :   -86.3317611 Eh     change       -0.4549451E-03 Eh
 * total energy  :   -86.3320290 Eh     change       -0.2678423E-03 Eh
 * total energy  :   -86.3322108 Eh     change       -0.1818103E-03 Eh
 * total energy  :   -86.3323805 Eh     change       -0.1697326E-03 Eh
 * total energy  :   -86.3342093 Eh     change       -0.1548622E-04 Eh
 * total energy  :   -86.3342237 Eh     change       -0.1441443E-04 Eh
 * total energy  :   -86.3342313 Eh     change       -0.7586174E-05 Eh
 * total energy  :   -86.3342444 Eh     change       -0.1310518E-04 Eh
 * total energy  :   -86.3342537 Eh     change       -0.9257925E-05 Eh
 * total energy  :   -86.3342643 Eh     change       -0.1066773E-04 Eh
 * total energy  :   -86.3342723 Eh     change       -0.7946099E-05 Eh
 * total energy  :   -86.3342789 Eh     change       -0.6600691E-05 Eh
 * total energy  :   -86.3342822 Eh     change       -0.3337802E-05 Eh
   *** GEOMETRY OPTIMIZATION CONVERGED AFTER 41 ITERATIONS ***

 final structure:
================
46
 xtb: 6.5.1 (579679a)
C           -5.64242551693270        1.07668771338573       -2.53707378705451
O           -4.70274358031885        1.13951986670442       -1.45003754890720
C           -3.77101920614462        0.21403789360473       -1.41466964761784
O           -3.64644846352139       -0.66850368547757       -2.22584601924239
C           -2.88317291860517        0.36420237388454       -0.19944896511712
C           -3.37221069715711        0.75717612728755        1.00911038038279
O           -4.63759156364435        1.08632808423505        1.21703854885000
C           -2.47354025148026        0.89993496994015        2.14577703510970
O           -2.82277049624317        1.38855030742635        3.19786892433653
N           -1.15883981054801        0.46515323585508        1.92779011793052
C           -0.24893302421645        0.90006160147046        2.99944211332772
C           -0.75587124530276       -0.13958967882489        0.78971638238343
C            0.48102509217754       -1.05942175271382        0.72764721772145
C            1.05720806605790       -1.47431371822007        2.09100142729695
C            0.05876951925005       -2.36535449948042        0.01054355781249
N            1.52063004285712       -0.35440778225853       -0.02544104032553
C            2.66974190626287       -0.99400132599353       -0.40660035497593
O            2.84305019612008       -2.19244180255277       -0.36442699459976
C            3.65511772281997       -0.01919694211059       -0.91779823661322
N            3.50418225838512        1.27218082103461       -0.95604771702924
N            4.64319953534170        1.78352203086369       -1.49170316034451
C            5.42136483983764        0.77178726173555       -1.74638485752598
C            6.77788877561028        0.80105054822939       -2.33466688263149
O            4.85125186568429       -0.39154372112773       -1.40438742360120
N           -1.55682246694452       -0.05406449241816       -0.27810076038066
C           -1.02729572179446       -0.24062508743013       -1.64172901233353
H           -6.17788059476473        0.12547852011826       -2.50652489217586
H           -5.11094790460344        1.16904456825212       -3.48626908916796
H           -6.32692530276862        1.91070674908382       -2.39590869806646
H           -4.76946479030064        1.37493575768362        2.13965277249293
H           -0.64209542208920        1.84405335397093        3.37685115080593
H            0.74051442453136        1.06200851233595        2.58977147051424
H           -0.23706904451317        0.17490215674444        3.80974753338526
H            1.63780959153557       -0.68200675288998        2.55194083689199
H            1.73720209204032       -2.30942816862489        1.92321744766417
H            0.26443855155925       -1.80343575575518        2.75846911527944
H            0.63715823715427       -3.19943981265406        0.40243762258365
H            0.24496637285592       -2.31775901032378       -1.05767010990572
H           -0.99551193141732       -2.56718266796420        0.18838467786083
H            1.57712074972941        0.64615810278412        0.09351612309770
H            6.82984661616582        0.11699080957519       -3.18166074192074
H            7.51058329070112        0.47800384482078       -1.59372521529725
H            7.01390031983050        1.81164668405685       -2.66041608494331
H           -1.36806952032703       -1.18710635833004       -2.05477797478519
H            0.05549017258021       -0.19320979386663       -1.61400343077335
H           -1.40481176544709        0.57891291393243       -2.24973681038191

          :  Hamiltonian                  GFN1-xTB          :
         :: total energy             -86.334282216733 Eh    ::
         :: gradient norm              0.000724523672 Eh/a0 ::
         :: HOMO-LUMO gap              2.512758409736 eV    ::
         :: SCC energy               -87.167980750929 Eh    ::
         :: -> Gsolv                  -0.108209317776 Eh    ::
         :: repulsion energy           0.863836307846 Eh    ::

    * Orbital Energies and Occupations

         #    Occupation            Energy/Eh            Energy/eV
      -------------------------------------------------------------
         1        2.0000           -0.8922642             -24.2797
       ...           ...                  ...                  ...
        58        2.0000           -0.5344252             -14.5425
        59        2.0000           -0.5240897             -14.2612
        60        2.0000           -0.5220162             -14.2048
        61        2.0000           -0.5189471             -14.1213
        62        2.0000           -0.5158896             -14.0381
        63        2.0000           -0.5151973             -14.0192
        64        2.0000           -0.5009644             -13.6319
        65        2.0000           -0.4939060             -13.4399
        66        2.0000           -0.4828152             -13.1381
        67        2.0000           -0.4790429             -13.0354
        68        2.0000           -0.4764203             -12.9641
        69        2.0000           -0.4632215             -12.6049
        70        2.0000           -0.4616113             -12.5611 (HOMO)
        71                         -0.3692691             -10.0483 (LUMO)
        72                         -0.3641465              -9.9089
        73                         -0.3273704              -8.9082
        74                         -0.2873395              -7.8189
        75                         -0.2652965              -7.2191
        76                         -0.2219243              -6.0389
        77                         -0.2139636              -5.8222
        78                         -0.1664977              -4.5306
        79                         -0.1590666              -4.3284
        80                         -0.1513708              -4.1190
        81                         -0.1454822              -3.9588
       ...                                ...                  ...
       144                          0.7183498              19.5473
      -------------------------------------------------------------
                  HL-Gap            0.0923422 Eh            2.5128 eV

Wiberg/Mayer (AO) data.
largest (>0.10) Wiberg bond orders for each atom

     #   Z sym  total        # sym  WBO       # sym  WBO       # sym  WBO
 ---------------------------------------------------------------------------
     1   6 C    3.847 --    29 H    0.984    28 H    0.978    27 H    0.978
                             2 O    0.873
     2   8 O    2.237 --     3 C    1.167     1 C    0.873     4 O    0.147
     3   6 C    3.865 --     4 O    1.666     2 O    1.167     5 C    0.961
     4   8 O    1.959 --     3 C    1.666     2 O    0.147
     5   6 C    3.921 --     6 C    1.519    25 N    1.095     3 C    0.961
     6   6 C    3.929 --     5 C    1.519     7 O    1.145     8 C    1.050
     7   8 O    2.115 --     6 C    1.145    30 H    0.789
     8   6 C    3.906 --     9 O    1.640    10 N    1.069     6 C    1.050
     9   8 O    1.968 --     8 C    1.640    10 N    0.120
    10   7 N    3.527 --    12 C    1.284     8 C    1.069    11 C    0.903
                             9 O    0.120
    11   6 C    3.888 --    32 H    0.980    33 H    0.971    31 H    0.965
                            10 N    0.903
    12   6 C    3.893 --    25 N    1.372    10 N    1.284    13 C    0.964
    13   6 C    3.926 --    14 C    0.990    15 C    0.975    12 C    0.964
                            16 N    0.934
    14   6 C    3.983 --    13 C    0.990    36 H    0.982    34 H    0.977
                            35 H    0.971
    15   6 C    3.980 --    39 H    0.985    38 H    0.978    13 C    0.975
                            37 H    0.973
    16   7 N    3.295 --    17 C    1.181    13 C    0.934    40 H    0.892
                            18 O    0.159
    17   6 C    3.907 --    18 O    1.634    16 N    1.181    19 C    1.001
    18   8 O    1.942 --    17 C    1.634    16 N    0.159
    19   6 C    3.880 --    20 N    1.597    24 O    1.066    17 C    1.001
    20   7 N    3.022 --    19 C    1.597    21 N    1.213
    21   7 N    2.982 --    22 C    1.591    20 N    1.213
    22   6 C    3.867 --    21 N    1.591    24 O    1.087    23 C    1.033
    23   6 C    3.984 --    22 C    1.033    43 H    0.982    41 H    0.965
                            42 H    0.958
    24   8 O    2.337 --    22 C    1.087    19 C    1.066
    25   7 N    3.571 --    12 C    1.372     5 C    1.095    26 C    0.900
    26   6 C    3.885 --    45 H    0.973    46 H    0.971    44 H    0.967
                            25 N    0.900
    27   1 H    1.002 --     1 C    0.978
    28   1 H    1.003 --     1 C    0.978
    29   1 H    1.007 --     1 C    0.984
    30   1 H    0.822 --     7 O    0.789
    31   1 H    0.997 --    11 C    0.965
    32   1 H    0.999 --    11 C    0.980
    33   1 H    0.996 --    11 C    0.971
    34   1 H    1.001 --    14 C    0.977
    35   1 H    1.002 --    14 C    0.971
    36   1 H    0.995 --    14 C    0.982
    37   1 H    1.007 --    15 C    0.973
    38   1 H    1.001 --    15 C    0.978
    39   1 H    0.997 --    15 C    0.985
    40   1 H    0.948 --    16 N    0.892
    41   1 H    0.995 --    23 C    0.965
    42   1 H    0.995 --    23 C    0.958
    43   1 H    0.998 --    23 C    0.982
    44   1 H    1.006 --    26 C    0.967
    45   1 H    1.005 --    26 C    0.973
    46   1 H    0.995 --    26 C    0.971
 ---------------------------------------------------------------------------

           -------------------------------------------------
          | TOTAL ENERGY              -86.334282216733 Eh   |
          | GRADIENT NORM               0.000724523672 Eh/α |
          | HOMO-LUMO GAP               2.512758409736 eV   |
           -------------------------------------------------

 * finished run on 2023/06/20 at 15:40:13.396
