   * xtb version 6.5.1 (579679a) compiled by 'ehlert@majestix' on 2022-07-11
          program call               : /lustre/hpc/kemi/ree/PhD/git/ReactivityQM/dep/xtb-6.5.1/bin/xtb --gfn 1 /lustre/hpc/kemi/ree/PhD/git/ReactivityQM/calculations/R01/reac02prodN06/conf14/R01_reac02prodN06_conf14_gfn1.xyz --opt --vfukui --chrg 1 --uhf 0 --alpb DMSO

   ID    Z sym.   atoms
    1    6 C      1, 3, 5, 6, 8-11, 14, 16
    2    8 O      2, 4, 15, 17
    3    7 N      7, 12, 13
    4    1 H      18-33

      * Solvation model:               ALPB
        Solvent                        DMSO
        Solvent mass                       7.8130E+01 g/mol
          :  Hamiltonian                  GFN1-xTB          :
 * total energy  :   -57.7946706 Eh     change       -0.7994245E-09 Eh
 * total energy  :   -57.8107221 Eh     change       -0.1605149E-01 Eh
 * total energy  :   -57.8168867 Eh     change       -0.6164595E-02 Eh
 * total energy  :   -57.8184058 Eh     change       -0.1519104E-02 Eh
 * total energy  :   -57.8196092 Eh     change       -0.1203451E-02 Eh
 * total energy  :   -57.8200049 Eh     change       -0.3956951E-03 Eh
 * total energy  :   -57.8202956 Eh     change       -0.2906439E-03 Eh
 * total energy  :   -57.8204346 Eh     change       -0.1390233E-03 Eh
 * total energy  :   -57.8205174 Eh     change       -0.8284697E-04 Eh
 * total energy  :   -57.8205923 Eh     change       -0.7482362E-04 Eh
 * total energy  :   -57.8210785 Eh     change       -0.1362099E-04 Eh
 * total energy  :   -57.8210926 Eh     change       -0.1404016E-04 Eh
 * total energy  :   -57.8211097 Eh     change       -0.1715961E-04 Eh
 * total energy  :   -57.8211292 Eh     change       -0.1947877E-04 Eh
 * total energy  :   -57.8211470 Eh     change       -0.1775288E-04 Eh
 * total energy  :   -57.8211624 Eh     change       -0.1546310E-04 Eh
 * total energy  :   -57.8211776 Eh     change       -0.1512089E-04 Eh
 * total energy  :   -57.8211891 Eh     change       -0.1158257E-04 Eh
 * total energy  :   -57.8211935 Eh     change       -0.4396546E-05 Eh
   *** GEOMETRY OPTIMIZATION CONVERGED AFTER 34 ITERATIONS ***

 final structure:
================
33
 xtb: 6.5.1 (579679a)
C            4.04832570912113        1.48157979602206       -0.42577034699452
O            3.11849745156493        0.39747085382682       -0.67211708210279
C            1.92447825031704        0.50763088977732       -0.20057475523493
O            1.43974981622529        1.37096157798062        0.45528697320398
C            1.03749203209306       -0.79922679697526       -0.64875286830001
C            1.57990306560342       -1.35948502544345       -1.96087904159093
N           -0.27434752328580       -0.26855459903910       -0.79321495450398
C           -1.06372624407539       -0.22132221934455        0.21161080751162
C           -2.40320562956073        0.47521607324842        0.12600407888353
C           -3.06538184324882        0.18271629035653       -1.22536560938039
C           -2.13064575726207        1.97764419188160        0.29306655546749
N           -3.21405459276221        0.00916067308329        1.24247590717407
N           -0.75759288344999       -0.74021068440716        1.45338559648113
C            0.33638029786654       -1.48522286096263        1.71751478191883
O            0.59954021222065       -2.04922586901244        2.75720364934292
C            1.25665330209046       -1.59617994910454        0.54317251862812
O            2.28485181856007       -2.34342877891355        0.67330634522938
H            4.05846569412073        1.71200859862488        0.63949691504219
H            5.01697941703674        1.11975387754839       -0.76081265653320
H            3.73720275953690        2.35498454756805       -0.99901898552515
H            1.59245103763082       -0.57619206980203       -2.71491449920036
H            0.91978039238212       -2.16049203874282       -2.28814463443518
H            2.58393166381468       -1.75098246245927       -1.81761081695067
H           -2.41198627112917        0.50588509186203       -2.03472619974800
H           -4.01246850849289        0.71465244552691       -1.29119059003071
H           -3.25084937659637       -0.88523257531949       -1.32636911405792
H           -1.44608363299991        2.31858736446883       -0.48252211050279
H           -3.06589888584256        2.52892793675001        0.21324167398719
H           -1.68568568221888        2.16841879410518        1.26870874194163
H           -3.65704454395676       -0.86689161953181        1.00339865766735
H           -3.94016100110426        0.68032682243978        1.45056960530829
H           -1.50103883330088       -0.64820168211204        2.14904134466552
H            2.34548828910295       -2.75507559390463        1.56614611264226

          :  Hamiltonian                  GFN1-xTB          :
         :: total energy             -57.821193533525 Eh    ::
         :: gradient norm              0.000475438170 Eh/a0 ::
         :: HOMO-LUMO gap              0.390471574461 eV    ::
         :: SCC energy               -58.400933414775 Eh    ::
         :: -> Gsolv                  -0.092904404382 Eh    ::
         :: repulsion energy           0.599446800138 Eh    ::

    * Orbital Energies and Occupations

         #    Occupation            Energy/Eh            Energy/eV
      -------------------------------------------------------------
         1        2.0000           -0.9139072             -24.8687
       ...           ...                  ...                  ...
        35        2.0000           -0.5528130             -15.0428
        36        2.0000           -0.5470601             -14.8863
        37        2.0000           -0.5408125             -14.7163
        38        2.0000           -0.5319223             -14.4743
        39        2.0000           -0.5276743             -14.3587
        40        2.0000           -0.5260270             -14.3139
        41        2.0000           -0.5218861             -14.2012
        42        2.0000           -0.5165092             -14.0549
        43        2.0000           -0.5044711             -13.7274
        44        2.0000           -0.5018769             -13.6568
        45        2.0000           -0.4888201             -13.3015
        46        2.0000           -0.4855843             -13.2134
        47        1.9990           -0.4352598             -11.8440 (HOMO)
        48        0.0010           -0.4209103             -11.4536 (LUMO)
        49                         -0.3303469              -8.9892
        50                         -0.3041522              -8.2764
        51                         -0.2604239              -7.0865
        52                         -0.1656754              -4.5083
        53                         -0.1535987              -4.1796
        54                         -0.1499353              -4.0799
        55                         -0.1338240              -3.6415
        56                         -0.1320292              -3.5927
        57                         -0.1183192              -3.2196
        58                         -0.1074914              -2.9250
       ...                                ...                  ...
       100                          0.7440888              20.2477
      -------------------------------------------------------------
                  HL-Gap            0.0143496 Eh            0.3905 eV

Wiberg/Mayer (AO) data.
largest (>0.10) Wiberg bond orders for each atom

     #   Z sym  total        # sym  WBO       # sym  WBO       # sym  WBO
 ---------------------------------------------------------------------------
     1   6 C    3.814 --    19 H    0.980    18 H    0.979    20 H    0.977
                             2 O    0.834
     2   8 O    2.268 --     3 C    1.225     1 C    0.834     4 O    0.149
     3   6 C    3.857 --     4 O    1.746     2 O    1.225     5 C    0.686
     4   8 O    2.070 --     3 C    1.746     2 O    0.149
     5   6 C    3.956 --    16 C    1.103     7 N    1.026     6 C    0.964
                             3 C    0.686
     6   6 C    3.970 --    23 H    0.981    21 H    0.981    22 H    0.974
                             5 C    0.964
     7   7 N    3.021 --     8 C    1.675     5 C    1.026
     8   6 C    3.901 --     7 N    1.675    13 N    1.107     9 C    0.977
     9   6 C    3.960 --    12 N    0.991    10 C    0.983     8 C    0.977
                            11 C    0.970
    10   6 C    3.991 --    26 H    0.984    25 H    0.984     9 C    0.983
                            24 H    0.982
    11   6 C    3.990 --    29 H    0.985    27 H    0.985    28 H    0.981
                             9 C    0.970
    12   7 N    2.997 --     9 C    0.991    30 H    0.934    31 H    0.928
    13   7 N    3.493 --    14 C    1.213     8 C    1.107    32 H    0.838
                            15 O    0.169
    14   6 C    3.924 --    15 O    1.625    13 N    1.213    16 C    0.973
    15   8 O    1.964 --    14 C    1.625    13 N    0.169
    16   6 C    3.805 --    17 O    1.350     5 C    1.103    14 C    0.973
    17   8 O    2.273 --    16 C    1.350    33 H    0.745
    18   1 H    0.998 --     1 C    0.979
    19   1 H    1.001 --     1 C    0.980
    20   1 H    0.997 --     1 C    0.977
    21   1 H    0.997 --     6 C    0.981
    22   1 H    0.995 --     6 C    0.974
    23   1 H    1.000 --     6 C    0.981
    24   1 H    1.006 --    10 C    0.982
    25   1 H    1.000 --    10 C    0.984
    26   1 H    1.001 --    10 C    0.984
    27   1 H    1.003 --    11 C    0.985
    28   1 H    0.997 --    11 C    0.981
    29   1 H    1.001 --    11 C    0.985
    30   1 H    0.947 --    12 N    0.934
    31   1 H    0.943 --    12 N    0.928
    32   1 H    0.931 --    13 N    0.838
    33   1 H    0.790 --    17 O    0.745
 ---------------------------------------------------------------------------

           -------------------------------------------------
          | TOTAL ENERGY              -57.821193533525 Eh   |
          | GRADIENT NORM               0.000475438170 Eh/α |
          | HOMO-LUMO GAP               0.390471574461 eV   |
           -------------------------------------------------

 * finished run on 2023/06/20 at 15:07:02.370
