   * xtb version 6.5.1 (579679a) compiled by 'ehlert@majestix' on 2022-07-11
          program call               : /lustre/hpc/kemi/ree/PhD/git/ReactivityQM/dep/xtb-6.5.1/bin/xtb --gfn 1 /lustre/hpc/kemi/ree/PhD/git/ReactivityQM/calculations/R01/reac01prodE04/conf07/R01_reac01prodE04_conf07_gfn1.xyz --opt --vfukui --chrg -1 --uhf 0 --alpb DMSO

   ID    Z sym.   atoms
    1    6 C      1, 3, 5, 7, 8, 11
    2    8 O      2, 4, 6
    3    7 N      9, 10
    4    1 H      12-20

      * Solvation model:               ALPB
        Solvent                        DMSO
        Solvent mass                       7.8130E+01 g/mol
          :  Hamiltonian                  GFN1-xTB          :
 * total energy  :   -38.2928166 Eh     change       -0.6252776E-11 Eh
 * total energy  :   -38.3055956 Eh     change       -0.1277895E-01 Eh
 * total energy  :   -38.3075924 Eh     change       -0.1996836E-02 Eh
 * total energy  :   -38.3078221 Eh     change       -0.2297536E-03 Eh
 * total energy  :   -38.3080397 Eh     change       -0.2175266E-03 Eh
 * total energy  :   -38.3082939 Eh     change       -0.2542353E-03 Eh
 * total energy  :   -38.3093331 Eh     change       -0.1039175E-02 Eh
 * total energy  :   -38.3088128 Eh     change        0.5203356E-03 Eh
 * total energy  :   -38.3102245 Eh     change       -0.1411702E-02 Eh
 * total energy  :   -38.3107583 Eh     change       -0.5338466E-03 Eh
 * total energy  :   -38.3246804 Eh     change       -0.9650425E-04 Eh
 * total energy  :   -38.3247513 Eh     change       -0.7085839E-04 Eh
 * total energy  :   -38.3247896 Eh     change       -0.3837502E-04 Eh
 * total energy  :   -38.3248126 Eh     change       -0.2293206E-04 Eh
 * total energy  :   -38.3248298 Eh     change       -0.1723431E-04 Eh
 * total energy  :   -38.3248381 Eh     change       -0.8278174E-05 Eh
 * total energy  :   -38.3248463 Eh     change       -0.8216037E-05 Eh
 * total energy  :   -38.3248500 Eh     change       -0.3735433E-05 Eh
 * total energy  :   -38.3248527 Eh     change       -0.2649880E-05 Eh
   *** GEOMETRY OPTIMIZATION CONVERGED AFTER 38 ITERATIONS ***

 final structure:
================
20
 xtb: 6.5.1 (579679a)
C            3.54853070425087        0.97983597183719       -0.05852786652595
O            2.13951436688686        1.03446601182350       -0.01404400647751
C            1.51548971483224       -0.19528033771738        0.34578913000120
O            2.24133438655126       -1.17606652269087        0.66314317373881
C            0.16534778809507       -0.21974381929870        0.10878499742499
O           -0.63083426455364        0.95439440070084       -0.07219118111212
C           -1.84431372069108        0.60786669930529        0.36686238202718
C           -2.92619420268594        1.63292974260230        0.33370368025243
N           -1.99781741239659       -0.58780102798756        0.79208543674754
N           -0.72002568130518       -1.24592468793632        0.66760333140569
C           -0.89685241371485       -2.38403575528492       -0.24891268767735
H            3.90631258965908        1.98073669739599       -0.30996596448348
H            3.97366450534408        0.68160849849961        0.90981298648505
H            3.90133331600196        0.27198377432610       -0.82132659051156
H           -3.86146617536934        1.19247112447149        0.67039542733493
H           -2.66911276853650        2.47283090425543        0.97913862401231
H           -3.04817006893244        2.01188205269079       -0.68037354283336
H           -1.23737465428141       -2.05845895717827       -1.23678153225683
H           -1.62617125116463       -3.06964821783215        0.18193329659567
H            0.06680524201020       -2.88404655198232       -0.34073409414755

          :  Hamiltonian                  GFN1-xTB          :
         :: total energy             -38.324852684786 Eh    ::
         :: gradient norm              0.000913906806 Eh/a0 ::
         :: HOMO-LUMO gap              2.402345574034 eV    ::
         :: SCC energy               -38.639127584895 Eh    ::
         :: -> Gsolv                  -0.102870158963 Eh    ::
         :: repulsion energy           0.322573081319 Eh    ::

    * Orbital Energies and Occupations

         #    Occupation            Energy/Eh            Energy/eV
      -------------------------------------------------------------
         1        2.0000           -0.7808333             -21.2476
       ...           ...                  ...                  ...
        19        2.0000           -0.5088557             -13.8467
        20        2.0000           -0.5051878             -13.7469
        21        2.0000           -0.4875820             -13.2678
        22        2.0000           -0.4826433             -13.1334
        23        2.0000           -0.4754848             -12.9386
        24        2.0000           -0.4630957             -12.6015
        25        2.0000           -0.4525920             -12.3157
        26        2.0000           -0.4240488             -11.5390
        27        2.0000           -0.4221945             -11.4885
        28        2.0000           -0.4151337             -11.2964
        29        2.0000           -0.3878546             -10.5541
        30        2.0000           -0.3851440             -10.4803
        31        2.0000           -0.2972261              -8.0879 (HOMO)
        32                         -0.2089415              -5.6856 (LUMO)
        33                         -0.1392845              -3.7901
        34                         -0.1236730              -3.3653
        35                         -0.1050970              -2.8598
        36                         -0.0931465              -2.5346
        37                         -0.0571450              -1.5550
        38                         -0.0564717              -1.5367
        39                         -0.0442929              -1.2053
        40                         -0.0419569              -1.1417
        41                         -0.0412565              -1.1226
        42                         -0.0381106              -1.0370
       ...                                ...                  ...
        62                          0.6791219              18.4798
      -------------------------------------------------------------
                  HL-Gap            0.0882846 Eh            2.4023 eV

Wiberg/Mayer (AO) data.
largest (>0.10) Wiberg bond orders for each atom

     #   Z sym  total        # sym  WBO       # sym  WBO       # sym  WBO
 ---------------------------------------------------------------------------
     1   6 C    3.923 --    12 H    0.987    14 H    0.981    13 H    0.980
                             2 O    0.957
     2   8 O    2.035 --     1 C    0.957     3 C    0.900
     3   6 C    3.882 --     5 C    1.491     4 O    1.374     2 O    0.900
     4   8 O    1.705 --     3 C    1.374     5 C    0.174
     5   6 C    3.636 --     3 C    1.491    10 N    0.949     6 O    0.875
                             4 O    0.174
     6   8 O    2.185 --     7 C    1.093     5 C    0.875     9 N    0.135
     7   6 C    3.908 --     9 N    1.709     6 O    1.093     8 C    1.014
     8   6 C    3.995 --     7 C    1.014    15 H    0.987    17 H    0.973
                            16 H    0.972
     9   7 N    2.946 --     7 C    1.709    10 N    0.985     6 O    0.135
    10   7 N    3.059 --     9 N    0.985    11 C    0.970     5 C    0.949
    11   6 C    3.981 --    19 H    0.989    20 H    0.987    18 H    0.984
                            10 N    0.970
    12   1 H    1.021 --     1 C    0.987
    13   1 H    1.025 --     1 C    0.980
    14   1 H    1.021 --     1 C    0.981
    15   1 H    1.006 --     8 C    0.987
    16   1 H    1.004 --     8 C    0.972
    17   1 H    1.003 --     8 C    0.973
    18   1 H    1.021 --    11 C    0.984
    19   1 H    1.025 --    11 C    0.989
    20   1 H    1.030 --    11 C    0.987
 ---------------------------------------------------------------------------

           -------------------------------------------------
          | TOTAL ENERGY              -38.324852684786 Eh   |
          | GRADIENT NORM               0.000913906806 Eh/α |
          | HOMO-LUMO GAP               2.402345574034 eV   |
           -------------------------------------------------

 * finished run on 2023/06/20 at 14:53:41.096
