   * xtb version 6.5.1 (579679a) compiled by 'ehlert@majestix' on 2022-07-11
          program call               : /lustre/hpc/kemi/ree/PhD/git/ReactivityQM/dep/xtb-6.5.1/bin/xtb --gfn 1 /lustre/hpc/kemi/ree/PhD/git/ReactivityQM/calculations/R02deprot/reac01/conf20/R02deprot_reac01_conf20_gfn1.xyz --opt --vfukui --chrg -1 --uhf 0 --alpb DMSO

   ID    Z sym.   atoms
    1    6 C      1, 3, 5, 7-10, 12, 14, 17, 18, 21, 23
    2    8 O      2, 4, 13, 19, 22, 24
    3    7 N      6, 11, 15, 16, 20
    4    1 H      25-38

      * Solvation model:               ALPB
        Solvent                        DMSO
        Solvent mass                       7.8130E+01 g/mol
          :  Hamiltonian                  GFN1-xTB          :
 * total energy  :   -79.5989091 Eh     change       -0.2064837E-10 Eh
 * total energy  :   -79.6094611 Eh     change       -0.1055200E-01 Eh
 * total energy  :   -79.6129960 Eh     change       -0.3534979E-02 Eh
 * total energy  :   -79.6135372 Eh     change       -0.5411237E-03 Eh
 * total energy  :   -79.6139663 Eh     change       -0.4291288E-03 Eh
 * total energy  :   -79.6142311 Eh     change       -0.2648584E-03 Eh
 * total energy  :   -79.6145119 Eh     change       -0.2807137E-03 Eh
 * total energy  :   -79.6147865 Eh     change       -0.2746035E-03 Eh
 * total energy  :   -79.6150035 Eh     change       -0.2170618E-03 Eh
 * total energy  :   -79.6151671 Eh     change       -0.1635942E-03 Eh
 * total energy  :   -79.6171512 Eh     change       -0.1559265E-04 Eh
 * total energy  :   -79.6171611 Eh     change       -0.9912517E-05 Eh
 * total energy  :   -79.6171756 Eh     change       -0.1452218E-04 Eh
 * total energy  :   -79.6171926 Eh     change       -0.1701244E-04 Eh
 * total energy  :   -79.6172004 Eh     change       -0.7814183E-05 Eh
 * total energy  :   -79.6172138 Eh     change       -0.1337330E-04 Eh
 * total energy  :   -79.6172250 Eh     change       -0.1120793E-04 Eh
 * total energy  :   -79.6172317 Eh     change       -0.6625448E-05 Eh
 * total energy  :   -79.6172354 Eh     change       -0.3701178E-05 Eh
   *** GEOMETRY OPTIMIZATION CONVERGED AFTER 68 ITERATIONS ***

 final structure:
================
38
 xtb: 6.5.1 (579679a)
C           -6.50850846631475        0.72949202984025        0.09393314225528
O           -5.14532901942634        1.01808875521766       -0.20159978131450
C           -4.26020058713723        0.04161372501543        0.06375617849744
O           -4.60991490834621       -1.03326288607883        0.51277448188149
C           -2.85852150414748        0.41152997021346       -0.23298792397555
N           -1.93967237651644       -0.56033813234804        0.07029390653613
C           -0.67262805380435       -0.28850330502207       -0.14293975386932
C            0.30368713156732       -1.40633258076828        0.20935712463790
C            0.09196422753632       -1.82817547480447        1.66946653067310
C            0.06508688118703       -2.58991575394965       -0.73904277389313
N            1.65510477995235       -0.87777051871655        0.03315582690234
C            2.77641426724138       -1.56963854902994        0.24434082624910
O            2.84319373813915       -2.74611791688907        0.58297822821531
C            4.01103458571857       -0.75889230831878        0.03396110691769
N            5.24181822451934       -1.16144214262466        0.12003369201732
N            6.03062684847026       -0.07474109121933       -0.12811385266693
C            5.23142975090959        0.92216801700763       -0.34745159265676
C            5.59608323315017        2.32250512354362       -0.65615021445545
O            3.94209329819810        0.55727375485516       -0.26133385774443
N           -0.15442334649014        0.83536438078392       -0.63727380573813
C           -0.99804741206339        1.83897233997084       -0.97625573270709
O           -0.63739273641008        2.93214770661437       -1.45364148691717
C           -2.42830095988339        1.60363785007813       -0.75427228276099
O           -3.22822067343957        2.63723454170428       -1.09971387908066
H           -6.84999669911233       -0.13662641254250       -0.47964143612788
H           -7.08542310403552        1.61048770149247       -0.18155631721038
H           -6.63050649806718        0.52077146390730        1.16050663348144
H            0.33012409584152       -0.99919091177370        2.33503219457498
H            0.72344891431288       -2.67889644221317        1.92061340281126
H           -0.95308876530878       -2.10355885575616        1.80867924531206
H            0.28944591202149       -2.29790446826846       -1.76434586800670
H           -0.98226948236010       -2.88423009425302       -0.67632853555779
H            0.69157091863510       -3.43732528151834       -0.46486158472929
H            1.69807877267989        0.09248034311747       -0.27206999416552
H            5.19844881052051        2.60755612888448       -1.63006142172705
H            6.67817761870573        2.42411673501604       -0.66176536342612
H            5.17113608349888        2.99213730331407        0.09129356709461
H           -2.62652449994251        3.33528825551776       -1.43672762933412

          :  Hamiltonian                  GFN1-xTB          :
         :: total energy             -79.617235354927 Eh    ::
         :: gradient norm              0.000292628068 Eh/a0 ::
         :: HOMO-LUMO gap              2.039799110714 eV    ::
         :: SCC energy               -80.336629143648 Eh    ::
         :: -> Gsolv                  -0.104888475385 Eh    ::
         :: repulsion energy           0.741989058700 Eh    ::

    * Orbital Energies and Occupations

         #    Occupation            Energy/Eh            Energy/eV
      -------------------------------------------------------------
         1        2.0000           -0.8562959             -23.3010
       ...           ...                  ...                  ...
        52        2.0000           -0.4742950             -12.9062
        53        2.0000           -0.4714041             -12.8276
        54        2.0000           -0.4689926             -12.7619
        55        2.0000           -0.4530367             -12.3278
        56        2.0000           -0.4500713             -12.2471
        57        2.0000           -0.4491396             -12.2217
        58        2.0000           -0.4405550             -11.9881
        59        2.0000           -0.4371210             -11.8947
        60        2.0000           -0.4301737             -11.7056
        61        2.0000           -0.4193015             -11.4098
        62        2.0000           -0.4023912             -10.9496
        63        2.0000           -0.3753572             -10.2140
        64        2.0000           -0.3713736             -10.1056 (HOMO)
        65                         -0.2964123              -8.0658 (LUMO)
        66                         -0.2766372              -7.5277
        67                         -0.2493424              -6.7850
        68                         -0.2281775              -6.2090
        69                         -0.1902680              -5.1775
        70                         -0.1849200              -5.0319
        71                         -0.1387348              -3.7752
        72                         -0.1274047              -3.4669
        73                         -0.1084891              -2.9521
        74                         -0.1049513              -2.8559
        75                         -0.1023688              -2.7856
       ...                                ...                  ...
       124                          0.7427723              20.2119
      -------------------------------------------------------------
                  HL-Gap            0.0749612 Eh            2.0398 eV

Wiberg/Mayer (AO) data.
largest (>0.10) Wiberg bond orders for each atom

     #   Z sym  total        # sym  WBO       # sym  WBO       # sym  WBO
 ---------------------------------------------------------------------------
     1   6 C    3.888 --    26 H    0.987    27 H    0.980    25 H    0.980
                             2 O    0.913
     2   8 O    2.183 --     3 C    1.082     1 C    0.913     4 O    0.123
     3   6 C    3.837 --     4 O    1.632     2 O    1.082     5 C    1.028
     4   8 O    1.894 --     3 C    1.632     2 O    0.123
     5   6 C    3.963 --    23 C    1.480     6 N    1.198     3 C    1.028
     6   7 N    2.997 --     7 C    1.472     5 C    1.198
     7   6 C    3.958 --     6 N    1.472    20 N    1.359     8 C    0.970
     8   6 C    3.929 --     9 C    0.985    10 C    0.983     7 C    0.970
                            11 N    0.923
     9   6 C    3.993 --    28 H    0.987     8 C    0.985    29 H    0.984
                            30 H    0.984
    10   6 C    3.993 --    31 H    0.986    32 H    0.985    33 H    0.983
                             8 C    0.983
    11   7 N    3.392 --    12 C    1.310     8 C    0.923    34 H    0.870
                            13 O    0.187
    12   6 C    3.925 --    13 O    1.552    11 N    1.310    14 C    0.982
    13   8 O    1.873 --    12 C    1.552    11 N    0.187
    14   6 C    3.867 --    15 N    1.627    19 O    1.050    12 C    0.982
    15   7 N    2.994 --    14 C    1.627    16 N    1.191
    16   7 N    2.979 --    17 C    1.617    15 N    1.191
    17   6 C    3.872 --    16 N    1.617    19 O    1.074    18 C    1.030
    18   6 C    3.988 --    17 C    1.030    36 H    0.983    37 H    0.965
                            35 H    0.964
    19   8 O    2.317 --    17 C    1.074    14 C    1.050
    20   7 N    3.014 --     7 C    1.359    21 C    1.247    22 O    0.125
    21   6 C    3.930 --    22 O    1.473    20 N    1.247    23 C    1.072
    22   8 O    1.810 --    21 C    1.473    20 N    0.125
    23   6 C    3.906 --     5 C    1.480    21 C    1.072    24 O    1.072
    24   8 O    2.048 --    23 C    1.072    38 H    0.814
    25   1 H    1.011 --     1 C    0.980
    26   1 H    1.013 --     1 C    0.987
    27   1 H    1.011 --     1 C    0.980
    28   1 H    1.006 --     9 C    0.987
    29   1 H    1.012 --     9 C    0.984
    30   1 H    1.017 --     9 C    0.984
    31   1 H    1.005 --    10 C    0.986
    32   1 H    1.013 --    10 C    0.985
    33   1 H    1.012 --    10 C    0.983
    34   1 H    0.971 --    11 N    0.870
    35   1 H    0.997 --    18 C    0.964
    36   1 H    1.000 --    18 C    0.983
    37   1 H    0.998 --    18 C    0.965
    38   1 H    0.875 --    24 O    0.814
 ---------------------------------------------------------------------------

           -------------------------------------------------
          | TOTAL ENERGY              -79.617235354927 Eh   |
          | GRADIENT NORM               0.000292628068 Eh/α |
          | HOMO-LUMO GAP               2.039799110714 eV   |
           -------------------------------------------------

 * finished run on 2023/06/20 at 17:32:25.166
