                         Program Version 5.0.1 -  RELEASE  -
|  1> # ORCA input file
|  2> ! SP r2SCAN-3c CPCM
|  3>
|  4> %maxcore 1875.0
|  5> %pal nprocs 4 end
|  6> %cpcm smd true SMDsolvent "DMSO" end
|  7>
|  8> *xyz -1 1
|  9> C      -4.599691   -0.642127    0.878819
| 10> N      -3.177620   -0.907243    0.662569
| 11> C      -2.421651   -0.278397   -0.309043
| 12> C      -2.968460    0.855388   -1.170540
| 13> C      -1.904216    1.253306   -2.208100
| 14> C      -3.292712    2.082533   -0.305149
| 15> N      -4.187097    0.431637   -1.869262
| 16> N      -1.179140   -0.601170   -0.488003
| 17> C      -0.570979   -1.554660    0.270817
| 18> C       0.881940   -1.850648   -0.097892
| 19> C       0.978954   -2.114103   -1.613498
| 20> O       1.369832   -2.960206    0.599783
| 21> N       1.667541   -0.627251    0.227627
| 22> C       3.121318   -0.858495    0.183979
| 23> C       3.841972    0.405823    0.578388
| 24> C       3.788617    0.865508    1.894167
| 25> C       4.429508    2.039132    2.265026
| 26> C       5.126481    2.739058    1.296890
| 27> F       5.752491    3.879423    1.646759
| 28> C       5.208681    2.313203   -0.015381
| 29> C       4.555537    1.139269   -0.367359
| 30> C      -1.218009   -2.211465    1.312407
| 31> O      -0.668294   -3.087513    2.070620
| 32> C      -2.639668   -1.855690    1.523837
| 33> O      -3.364344   -2.355911    2.397380
| 34> H      -5.103483   -1.589841    1.081816
| 35> H      -4.731221    0.012281    1.743035
| 36> H      -5.041773   -0.188241   -0.003019
| 37> H      -1.631234    0.392487   -2.817296
| 38> H      -1.008313    1.625136   -1.711106
| 39> H      -2.300631    2.032689   -2.856938
| 40> H      -3.581119    2.916879   -0.943250
| 41> H      -4.112436    1.880581    0.381225
| 42> H      -2.415191    2.372749    0.272084
| 43> H      -3.952307   -0.261127   -2.568255
| 44> H      -4.579164    1.226454   -2.352894
| 45> H       1.993127   -2.395051   -1.892033
| 46> H       0.685000   -1.219494   -2.160034
| 47> H       0.309079   -2.932303   -1.874778
| 48> H       1.436874   -0.379860    1.190876
| 49> H       3.406901   -1.675264    0.864312
| 50> H       3.409844   -1.139707   -0.832932
| 51> H       3.243486    0.300742    2.642455
| 52> H       4.393050    2.405358    3.282764
| 53> H       5.768505    2.887187   -0.741915
| 54> H       4.610514    0.791649   -1.393147
| 55> H       0.669503   -3.162707    1.324186
| 56> **                         ****END OF INPUT****

CARTESIAN COORDINATES (ANGSTROEM)
---------------------------------
  C     -4.599691   -0.642127    0.878819
  N     -3.177620   -0.907243    0.662569
  C     -2.421651   -0.278397   -0.309043
  C     -2.968460    0.855388   -1.170540
  C     -1.904216    1.253306   -2.208100
  C     -3.292712    2.082533   -0.305149
  N     -4.187097    0.431637   -1.869262
  N     -1.179140   -0.601170   -0.488003
  C     -0.570979   -1.554660    0.270817
  C      0.881940   -1.850648   -0.097892
  C      0.978954   -2.114103   -1.613498
  O      1.369832   -2.960206    0.599783
  N      1.667541   -0.627251    0.227627
  C      3.121318   -0.858495    0.183979
  C      3.841972    0.405823    0.578388
  C      3.788617    0.865508    1.894167
  C      4.429508    2.039132    2.265026
  C      5.126481    2.739058    1.296890
  F      5.752491    3.879423    1.646759
  C      5.208681    2.313203   -0.015381
  C      4.555537    1.139269   -0.367359
  C     -1.218009   -2.211465    1.312407
  O     -0.668294   -3.087513    2.070620
  C     -2.639668   -1.855690    1.523837
  O     -3.364344   -2.355911    2.397380
  H     -5.103483   -1.589841    1.081816
  H     -4.731221    0.012281    1.743035
  H     -5.041773   -0.188241   -0.003019
  H     -1.631234    0.392487   -2.817296
  H     -1.008313    1.625136   -1.711106
  H     -2.300631    2.032689   -2.856938
  H     -3.581119    2.916879   -0.943250
  H     -4.112436    1.880581    0.381225
  H     -2.415191    2.372749    0.272084
  H     -3.952307   -0.261127   -2.568255
  H     -4.579164    1.226454   -2.352894
  H      1.993127   -2.395051   -1.892033
  H      0.685000   -1.219494   -2.160034
  H      0.309079   -2.932303   -1.874778
  H      1.436874   -0.379860    1.190876
  H      3.406901   -1.675264    0.864312
  H      3.409844   -1.139707   -0.832932
  H      3.243486    0.300742    2.642455
  H      4.393050    2.405358    3.282764
  H      5.768505    2.887187   -0.741915
  H      4.610514    0.791649   -1.393147
  H      0.669503   -3.162707    1.324186

 Total Charge           Charge          ....   -1
 Multiplicity           Mult            ....    1
 Number of Electrons    NEL             ....  186
 Basis Dimension        Dim             ....  625

ORBITAL ENERGIES
----------------

  NO   OCC          E(Eh)            E(eV)
   0   2.0000     -24.499275      -666.6592
   1   2.0000     -18.898207      -514.2464
   2   2.0000     -18.890862      -514.0465
   3   2.0000     -18.875111      -513.6179
   4   2.0000     -14.202851      -386.4792
   5   2.0000     -14.129350      -384.4792
   6   2.0000     -14.128402      -384.4534
   7   2.0000     -14.127574      -384.4308
   8   2.0000     -10.114891      -275.2402
   9   2.0000     -10.099118      -274.8110
  10   2.0000     -10.089931      -274.5610
  11   2.0000     -10.079735      -274.2835
  12   2.0000     -10.068600      -273.9805
  13   2.0000     -10.057723      -273.6846
  14   2.0000     -10.040705      -273.2215
  15   2.0000     -10.038807      -273.1698
  16   2.0000     -10.038337      -273.1570
  17   2.0000     -10.037579      -273.1364
  18   2.0000     -10.037495      -273.1341
  19   2.0000     -10.036862      -273.1169
  20   2.0000     -10.036641      -273.1109
  21   2.0000     -10.027064      -272.8503
  22   2.0000     -10.010940      -272.4115
  23   2.0000     -10.002537      -272.1829
  24   2.0000      -9.998607      -272.0759
  25   2.0000      -1.189266       -32.3616
  26   2.0000      -0.985737       -26.8233
  27   2.0000      -0.960702       -26.1420
  28   2.0000      -0.924333       -25.1524
  29   2.0000      -0.918752       -25.0005
  30   2.0000      -0.852156       -23.1883
  31   2.0000      -0.851234       -23.1633
  32   2.0000      -0.842178       -22.9168
  33   2.0000      -0.822185       -22.3728
  34   2.0000      -0.733789       -19.9674
  35   2.0000      -0.723582       -19.6897
  36   2.0000      -0.721564       -19.6348
  37   2.0000      -0.691390       -18.8137
  38   2.0000      -0.677092       -18.4246
  39   2.0000      -0.659585       -17.9482
  40   2.0000      -0.644117       -17.5273
  41   2.0000      -0.627829       -17.0841
  42   2.0000      -0.593456       -16.1488
  43   2.0000      -0.590160       -16.0591
  44   2.0000      -0.574884       -15.6434
  45   2.0000      -0.553852       -15.0711
  46   2.0000      -0.531084       -14.4515
  47   2.0000      -0.517573       -14.0839
  48   2.0000      -0.511652       -13.9228
  49   2.0000      -0.487524       -13.2662
  50   2.0000      -0.462865       -12.5952
  51   2.0000      -0.459050       -12.4914
  52   2.0000      -0.450398       -12.2560
  53   2.0000      -0.441036       -12.0012
  54   2.0000      -0.436753       -11.8846
  55   2.0000      -0.432295       -11.7633
  56   2.0000      -0.424140       -11.5414
  57   2.0000      -0.420343       -11.4381
  58   2.0000      -0.413052       -11.2397
  59   2.0000      -0.410035       -11.1576
  60   2.0000      -0.401705       -10.9309
  61   2.0000      -0.394491       -10.7346
  62   2.0000      -0.394324       -10.7301
  63   2.0000      -0.375116       -10.2074
  64   2.0000      -0.371178       -10.1003
  65   2.0000      -0.360761        -9.8168
  66   2.0000      -0.357784        -9.7358
  67   2.0000      -0.354552        -9.6478
  68   2.0000      -0.348324        -9.4784
  69   2.0000      -0.344855        -9.3840
  70   2.0000      -0.342566        -9.3217
  71   2.0000      -0.340645        -9.2694
  72   2.0000      -0.335476        -9.1288
  73   2.0000      -0.332162        -9.0386
  74   2.0000      -0.330280        -8.9874
  75   2.0000      -0.322847        -8.7851
  76   2.0000      -0.318234        -8.6596
  77   2.0000      -0.311940        -8.4883
  78   2.0000      -0.309805        -8.4302
  79   2.0000      -0.306942        -8.3523
  80   2.0000      -0.301111        -8.1936
  81   2.0000      -0.288064        -7.8386
  82   2.0000      -0.275404        -7.4941
  83   2.0000      -0.244370        -6.6496
  84   2.0000      -0.235183        -6.3997
  85   2.0000      -0.232170        -6.3177
  86   2.0000      -0.227010        -6.1773
  87   2.0000      -0.213210        -5.8017
  88   2.0000      -0.206006        -5.6057
  89   2.0000      -0.200905        -5.4669
  90   2.0000      -0.187865        -5.1121
  91   2.0000      -0.170641        -4.6434
  92   2.0000      -0.144349        -3.9279
  93   0.0000      -0.039639        -1.0786
  94   0.0000      -0.026872        -0.7312
  95   0.0000      -0.019748        -0.5374
  96   0.0000       0.000753         0.0205
  97   0.0000       0.060400         1.6436

MULLIKEN ATOMIC CHARGES
-----------------------
   0 C :   -0.503183
   1 N :    0.239378
   2 C :   -0.002644
   3 C :    0.263582
   4 C :   -0.622058
   5 C :   -0.538907
   6 N :   -0.681700
   7 N :   -0.139925
   8 C :    0.014493
   9 C :   -0.168653
  10 C :   -0.610407
  11 O :   -0.428174
  12 N :   -0.323193
  13 C :   -0.227186
  14 C :    0.054695
  15 C :   -0.185007
  16 C :   -0.306234
  17 C :    0.359155
  18 F :   -0.241382
  19 C :   -0.303584
  20 C :   -0.192633
  21 C :   -0.008293
  22 O :   -0.516579
  23 C :    0.049850
  24 O :   -0.451936
  25 H :    0.178861
  26 H :    0.182628
  27 H :    0.217028
  28 H :    0.172758
  29 H :    0.177652
  30 H :    0.163492
  31 H :    0.173894
  32 H :    0.174578
  33 H :    0.179857
  34 H :    0.280596
  35 H :    0.286265
  36 H :    0.162771
  37 H :    0.176830
  38 H :    0.172420
  39 H :    0.291117
  40 H :    0.174624
  41 H :    0.151742
  42 H :    0.187366
  43 H :    0.194721
  44 H :    0.194364
  45 H :    0.185847
  46 H :    0.391114
Sum of atomic charges:   -1.0000000

LOEWDIN ATOMIC CHARGES
----------------------
   0 C :   -0.113082
   1 N :   -0.661838
   2 C :    0.325969
   3 C :    0.061823
   4 C :   -0.371381
   5 C :   -0.363221
   6 N :   -0.718092
   7 N :   -0.633024
   8 C :    0.151766
   9 C :    0.247248
  10 C :   -0.358125
  11 O :   -0.597118
  12 N :   -0.754509
  13 C :   -0.035904
  14 C :   -0.080346
  15 C :   -0.148615
  16 C :   -0.161726
  17 C :    0.194988
  18 F :   -0.301773
  19 C :   -0.163907
  20 C :   -0.151597
  21 C :    0.208793
  22 O :   -0.679958
  23 C :    0.361080
  24 O :   -0.525209
  25 H :    0.196572
  26 H :    0.181122
  27 H :    0.207537
  28 H :    0.167691
  29 H :    0.165945
  30 H :    0.156983
  31 H :    0.165306
  32 H :    0.168716
  33 H :    0.169128
  34 H :    0.251303
  35 H :    0.251477
  36 H :    0.161159
  37 H :    0.168815
  38 H :    0.164730
  39 H :    0.263740
  40 H :    0.181181
  41 H :    0.186711
  42 H :    0.186179
  43 H :    0.193073
  44 H :    0.192851
  45 H :    0.185116
  46 H :    0.302421

  Mayer bond orders larger than 0.100000
B(  0-C ,  1-N ) :   0.8364 B(  0-C , 25-H ) :   0.9453 B(  0-C , 26-H ) :   0.9496
B(  0-C , 27-H ) :   0.9306 B(  1-N ,  2-C ) :   1.2244 B(  1-N , 23-C ) :   1.0796
B(  2-C ,  3-C ) :   0.9033 B(  2-C ,  7-N ) :   1.7577 B(  3-C ,  4-C ) :   0.9636
B(  3-C ,  5-C ) :   0.9307 B(  3-C ,  6-N ) :   0.7619 B(  3-C ,  7-N ) :  -0.1347
B(  4-C , 28-H ) :   0.9670 B(  4-C , 29-H ) :   0.9845 B(  4-C , 30-H ) :   0.9698
B(  5-C , 31-H ) :   0.9665 B(  5-C , 32-H ) :   0.9514 B(  5-C , 33-H ) :   0.9791
B(  6-N , 34-H ) :   0.9090 B(  6-N , 35-H ) :   0.9145 B(  7-N ,  8-C ) :   0.9354
B(  8-C ,  9-C ) :   0.9769 B(  8-C , 21-C ) :   1.1990 B(  9-C , 10-C ) :   0.9061
B(  9-C , 11-O ) :   1.0626 B(  9-C , 12-N ) :   1.0917 B( 10-C , 36-H ) :   0.9609
B( 10-C , 37-H ) :   0.9921 B( 10-C , 38-H ) :   0.9772 B( 11-O , 12-N ) :  -0.1067
B( 11-O , 46-H ) :   0.6645 B( 12-N , 13-C ) :   0.9233 B( 12-N , 39-H ) :   0.8738
B( 13-C , 14-C ) :   0.8965 B( 13-C , 40-H ) :   0.9649 B( 13-C , 41-H ) :   0.9650
B( 14-C , 15-C ) :   1.3959 B( 14-C , 20-C ) :   1.4062 B( 15-C , 16-C ) :   1.3823
B( 15-C , 42-H ) :   0.9431 B( 16-C , 17-C ) :   1.3964 B( 16-C , 43-H ) :   0.9379
B( 17-C , 18-F ) :   0.8794 B( 17-C , 19-C ) :   1.4062 B( 19-C , 20-C ) :   1.3653
B( 19-C , 44-H ) :   0.9379 B( 20-C , 45-H ) :   0.9461 B( 21-C , 22-O ) :   1.5982
B( 21-C , 23-C ) :   1.0146 B( 22-O , 46-H ) :   0.1983 B( 23-C , 24-O ) :   1.8763

Dispersion correction           -0.021632289
FINAL SINGLE POINT ENERGY     -1205.517160946993

DIPOLE MOMENT
-------------
                                X             Y             Z
Electronic contribution:     20.48588       1.63026      14.87851
Nuclear contribution   :    -19.62196       2.91643     -17.70802
                        -----------------------------------------
Total Dipole Moment    :      0.86392       4.54669      -2.82951
                        -----------------------------------------
Magnitude (a.u.)       :      5.42446
Magnitude (Debye)      :     13.78789

Rotational constants in cm-1:     0.011049     0.003575     0.003193
Rotational constants in MHz :   331.239390   107.175212    95.726108

                             ****ORCA TERMINATED NORMALLY****
TOTAL RUN TIME: 0 days 0 hours 2 minutes 45 seconds 657 msec
