   * xtb version 6.5.1 (579679a) compiled by 'ehlert@majestix' on 2022-07-11
          program call               : /lustre/hpc/kemi/ree/PhD/git/ReactivityQM/dep/xtb-6.5.1/bin/xtb --gfn 1 /lustre/hpc/kemi/ree/PhD/git/ReactivityQM/calculations/RaltegravirCLI/reac02prodE01/conf15/RaltegravirCLI_reac02prodE01_conf15_gfn1.xyz --opt --vfukui --chrg -1 --uhf 0 --alpb DMSO

   ID    Z sym.   atoms
    1    6 C      1, 3-6, 9-11, 14-18, 20-22, 24
    2    7 N      2, 7, 8, 13
    3    8 O      12, 23, 25
    4    9 F      19
    5    1 H      26-47

      * Solvation model:               ALPB
        Solvent                        DMSO
        Solvent mass                       7.8130E+01 g/mol
          :  Hamiltonian                  GFN1-xTB          :
 * total energy  :   -80.1944144 Eh     change       -0.1031708E-10 Eh
 * total energy  :   -80.2042742 Eh     change       -0.9859747E-02 Eh
 * total energy  :   -80.2072789 Eh     change       -0.3004701E-02 Eh
 * total energy  :   -80.2095890 Eh     change       -0.2310172E-02 Eh
 * total energy  :   -80.2122199 Eh     change       -0.2630833E-02 Eh
 * total energy  :   -80.2147232 Eh     change       -0.2503286E-02 Eh
 * total energy  :   -80.2189618 Eh     change       -0.4238676E-02 Eh
 * total energy  :   -80.2222488 Eh     change       -0.3286952E-02 Eh
 * total energy  :   -80.2222108 Eh     change        0.3797097E-04 Eh
 * total energy  :   -80.2247503 Eh     change       -0.2539498E-02 Eh
 * total energy  :   -80.2298399 Eh     change       -0.1844304E-04 Eh
 * total energy  :   -80.2298613 Eh     change       -0.2142112E-04 Eh
 * total energy  :   -80.2298829 Eh     change       -0.2152973E-04 Eh
 * total energy  :   -80.2298984 Eh     change       -0.1556259E-04 Eh
 * total energy  :   -80.2299194 Eh     change       -0.2093090E-04 Eh
 * total energy  :   -80.2299095 Eh     change        0.9844631E-05 Eh
 * total energy  :   -80.2299241 Eh     change       -0.1453237E-04 Eh
 * total energy  :   -80.2299323 Eh     change       -0.8220817E-05 Eh
 * total energy  :   -80.2299370 Eh     change       -0.4717111E-05 Eh
   *** GEOMETRY OPTIMIZATION CONVERGED AFTER 75 ITERATIONS ***

 final structure:
================
47
 xtb: 6.5.1 (579679a)
C           -4.59969053330332       -0.64212728320156        0.87881876300317
N           -3.17761964915280       -0.90724259446009        0.66256850403146
C           -2.42165145313363       -0.27839695522679       -0.30904344827621
C           -2.96846031650470        0.85538789269902       -1.17053972424941
C           -1.90421598876675        1.25330614381132       -2.20809955635701
C           -3.29271204708162        2.08253301599719       -0.30514931112968
N           -4.18709749915766        0.43163732003881       -1.86926184044845
N           -1.17913984493528       -0.60117024421996       -0.48800284644717
C           -0.57097943186786       -1.55465968021960        0.27081650844119
C            0.88194000747767       -1.85064835127859       -0.09789238823023
C            0.97895401308288       -2.11410289981245       -1.61349833906074
O            1.36983202726030       -2.96020556765074        0.59978295372606
N            1.66754142275857       -0.62725085442278        0.22762737220724
C            3.12131769511942       -0.85849450117968        0.18397856034163
C            3.84197163619893        0.40582349262810        0.57838798076614
C            3.78861693396820        0.86550847562307        1.89416718451797
C            4.42950770530053        2.03913204261363        2.26502628978345
C            5.12648125568406        2.73905778744863        1.29689032200490
F            5.75249098989207        3.87942286045888        1.64675861835212
C            5.20868140707454        2.31320329153274       -0.01538123256720
C            4.55553728856591        1.13926891331387       -0.36735896572181
C           -1.21800878936231       -2.21146514918366        1.31240731777107
O           -0.66829416148279       -3.08751343580012        2.07062021752699
C           -2.63966846506376       -1.85569008102136        1.52383666426862
O           -3.36434407147729       -2.35591101829726        2.39737963701006
H           -5.10348275605344       -1.58984116571966        1.08181599176215
H           -4.73122141157948        0.01228068548619        1.74303527655907
H           -5.04177340917549       -0.18824104311356       -0.00301917211247
H           -1.63123414182253        0.39248680835837       -2.81729550444941
H           -1.00831263502243        1.62513590000907       -1.71110596406267
H           -2.30063139839236        2.03268908767494       -2.85693779501482
H           -3.58111944914356        2.91687933812732       -0.94325045506284
H           -4.11243628804508        1.88058113555817        0.38122451430226
H           -2.41519108130446        2.37274902413955        0.27208355180449
H           -3.95230688044566       -0.26112669150886       -2.56825457096939
H           -4.57916361236104        1.22645372588925       -2.35289394983338
H            1.99312687899559       -2.39505146531096       -1.89203251829330
H            0.68500045839656       -1.21949429446649       -2.16003364170575
H            0.30907913955913       -2.93230295794860       -1.87477802377417
H            1.43687446787842       -0.37985984630344        1.19087595572775
H            3.40690106534168       -1.67526415623312        0.86431248125845
H            3.40984410412002       -1.13970735751321       -0.83293229463708
H            3.24348558968197        0.30074154552623        2.64245502770455
H            4.39305003158545        2.40535848846571        3.28276447007248
H            5.76850509602938        2.88718653060098       -0.74191451395260
H            4.61051397204312        0.79164947556984       -1.39314717098649
H            0.66950312862060       -3.16270738747499        1.32418606437816

          :  Hamiltonian                  GFN1-xTB          :
         :: total energy             -80.229936997085 Eh    ::
         :: gradient norm              0.000396327334 Eh/a0 ::
         :: HOMO-LUMO gap              2.130676089634 eV    ::
         :: SCC energy               -81.075018235483 Eh    ::
         :: -> Gsolv                  -0.105331468566 Eh    ::
         :: repulsion energy           0.875469809522 Eh    ::

    * Orbital Energies and Occupations

         #    Occupation            Energy/Eh            Energy/eV
      -------------------------------------------------------------
         1        2.0000           -0.8556994             -23.2848
       ...           ...                  ...                  ...
        56        2.0000           -0.4631488             -12.6029
        57        2.0000           -0.4622247             -12.5778
        58        2.0000           -0.4436927             -12.0735
        59        2.0000           -0.4416412             -12.0177
        60        2.0000           -0.4301061             -11.7038
        61        2.0000           -0.4273910             -11.6299
        62        2.0000           -0.4205328             -11.4433
        63        2.0000           -0.4097343             -11.1494
        64        2.0000           -0.4053103             -11.0291
        65        2.0000           -0.3943712             -10.7314
        66        2.0000           -0.3813771             -10.3778
        67        2.0000           -0.3585172              -9.7557
        68        2.0000           -0.3420380              -9.3073 (HOMO)
        69                         -0.2637371              -7.1767 (LUMO)
        70                         -0.2545437              -6.9265
        71                         -0.2368197              -6.4442
        72                         -0.2210388              -6.0148
        73                         -0.1348904              -3.6706
        74                         -0.1202037              -3.2709
        75                         -0.1138916              -3.0991
        76                         -0.1109427              -3.0189
        77                         -0.1061331              -2.8880
        78                         -0.1038476              -2.8258
        79                         -0.0970815              -2.6417
       ...                                ...                  ...
       144                          0.7242039              19.7066
      -------------------------------------------------------------
                  HL-Gap            0.0783009 Eh            2.1307 eV

Wiberg/Mayer (AO) data.
largest (>0.10) Wiberg bond orders for each atom

     #   Z sym  total        # sym  WBO       # sym  WBO       # sym  WBO
 ---------------------------------------------------------------------------
     1   6 C    3.946 --    27 H    0.981    26 H    0.978    28 H    0.973
                             2 N    0.945
     2   7 N    3.474 --    24 C    1.135     3 C    1.123     1 C    0.945
                            25 O    0.131
     3   6 C    3.927 --     8 N    1.551     2 N    1.123     4 C    0.977
     4   6 C    3.965 --     5 C    0.992     6 C    0.989     3 C    0.977
                             7 N    0.974
     5   6 C    3.996 --     4 C    0.992    31 H    0.987    29 H    0.984
                            30 H    0.984
     6   6 C    3.994 --     4 C    0.989    34 H    0.986    32 H    0.985
                            33 H    0.982
     7   7 N    2.991 --     4 C    0.974    36 H    0.946    35 H    0.945
     8   7 N    3.037 --     3 C    1.551     9 C    1.224
     9   6 C    3.940 --    22 C    1.386     8 N    1.224    10 C    0.969
                            23 O    0.134
    10   6 C    3.908 --    12 O    0.984    11 C    0.979     9 C    0.969
                            13 N    0.928
    11   6 C    3.995 --    38 H    0.987    39 H    0.987    37 H    0.983
                            10 C    0.979
    12   8 O    1.875 --    10 C    0.984    47 H    0.719
    13   7 N    2.978 --    14 C    0.973    40 H    0.951    10 C    0.928
    14   6 C    3.980 --    15 C    1.007    42 H    0.977    13 N    0.973
                            41 H    0.964
    15   6 C    3.986 --    21 C    1.418    16 C    1.411    14 C    1.007
    16   6 C    3.994 --    17 C    1.446    15 C    1.411    43 H    0.972
                            20 C    0.111
    17   6 C    3.992 --    16 C    1.446    18 C    1.400    44 H    0.970
                            21 C    0.109
    18   6 C    3.857 --    20 C    1.405    17 C    1.400    19 F    0.916
    19   9 F    1.041 --    18 C    0.916
    20   6 C    3.992 --    21 C    1.440    18 C    1.405    45 H    0.970
                            16 C    0.111
    21   6 C    3.993 --    20 C    1.440    15 C    1.418    46 H    0.972
                            17 C    0.109
    22   6 C    3.957 --     9 C    1.386    23 O    1.336    24 C    1.040
    23   8 O    1.820 --    22 C    1.336    47 H    0.159     9 C    0.134
    24   6 C    3.894 --    25 O    1.515     2 N    1.135    22 C    1.040
    25   8 O    1.826 --    24 C    1.515     2 N    0.131
    26   1 H    1.018 --     1 C    0.978
    27   1 H    1.010 --     1 C    0.981
    28   1 H    1.032 --     1 C    0.973
    29   1 H    1.017 --     5 C    0.984
    30   1 H    1.017 --     5 C    0.984
    31   1 H    1.006 --     5 C    0.987
    32   1 H    1.002 --     6 C    0.985
    33   1 H    1.007 --     6 C    0.982
    34   1 H    1.006 --     6 C    0.986
    35   1 H    0.962 --     7 N    0.945
    36   1 H    0.960 --     7 N    0.946
    37   1 H    1.010 --    11 C    0.983
    38   1 H    1.022 --    11 C    0.987
    39   1 H    1.013 --    11 C    0.987
    40   1 H    0.986 --    13 N    0.951
    41   1 H    1.018 --    14 C    0.964
    42   1 H    1.018 --    14 C    0.977
    43   1 H    1.000 --    16 C    0.972
    44   1 H    0.999 --    17 C    0.970
    45   1 H    0.999 --    20 C    0.970
    46   1 H    1.002 --    21 C    0.972
    47   1 H    0.889 --    12 O    0.719    23 O    0.159
 ---------------------------------------------------------------------------

           -------------------------------------------------
          | TOTAL ENERGY              -80.229936997085 Eh   |
          | GRADIENT NORM               0.000396327334 Eh/α |
          | HOMO-LUMO GAP               2.130676089634 eV   |
           -------------------------------------------------

 * finished run on 2023/06/20 at 14:56:23.476
