   * xtb version 6.5.1 (579679a) compiled by 'ehlert@majestix' on 2022-07-11
          program call               : /lustre/hpc/kemi/ree/PhD/git/ReactivityQM/dep/xtb-6.5.1/bin/xtb --gfn 1 /lustre/hpc/kemi/ree/PhD/git/ReactivityQM/calculations/R01/reac02prodN02/conf13/R01_reac02prodN02_conf13_gfn1.xyz --opt --vfukui --chrg 1 --uhf 0 --alpb DMSO

   ID    Z sym.   atoms
    1    6 C      1, 3-6, 8, 9, 12, 13, 15
    2    7 N      2, 7, 17
    3    8 O      10, 11, 14, 16
    4    1 H      18-33

      * Solvation model:               ALPB
        Solvent                        DMSO
        Solvent mass                       7.8130E+01 g/mol
          :  Hamiltonian                  GFN1-xTB          :
 * total energy  :   -57.8595477 Eh     change       -0.5321965E-11 Eh
 * total energy  :   -57.8676131 Eh     change       -0.8065308E-02 Eh
 * total energy  :   -57.8697707 Eh     change       -0.2157640E-02 Eh
 * total energy  :   -57.8701636 Eh     change       -0.3928741E-03 Eh
 * total energy  :   -57.8704030 Eh     change       -0.2394339E-03 Eh
 * total energy  :   -57.8705040 Eh     change       -0.1009964E-03 Eh
 * total energy  :   -57.8705954 Eh     change       -0.9137582E-04 Eh
 * total energy  :   -57.8706552 Eh     change       -0.5984017E-04 Eh
 * total energy  :   -57.8706931 Eh     change       -0.3791991E-04 Eh
 * total energy  :   -57.8707217 Eh     change       -0.2853837E-04 Eh
 * total energy  :   -57.8707715 Eh     change       -0.1074748E-04 Eh
 * total energy  :   -57.8707832 Eh     change       -0.1165893E-04 Eh
 * total energy  :   -57.8707944 Eh     change       -0.1122052E-04 Eh
 * total energy  :   -57.8708044 Eh     change       -0.9992650E-05 Eh
 * total energy  :   -57.8708134 Eh     change       -0.9018581E-05 Eh
 * total energy  :   -57.8708226 Eh     change       -0.9143201E-05 Eh
 * total energy  :   -57.8708317 Eh     change       -0.9154318E-05 Eh
 * total energy  :   -57.8708404 Eh     change       -0.8683537E-05 Eh
 * total energy  :   -57.8708453 Eh     change       -0.4930410E-05 Eh
   *** GEOMETRY OPTIMIZATION CONVERGED AFTER 22 ITERATIONS ***

 final structure:
================
33
 xtb: 6.5.1 (579679a)
C           -2.58903796772779       -0.60789882386854        1.59152569673380
N           -2.75010053345199       -0.66988284334542        0.11607979329918
C           -1.46958116820862       -0.78360406327555       -0.68310838157096
C           -1.86550153958768       -0.63313228658945       -2.15403550155251
C           -0.84127383271948       -2.14789703781416       -0.41607095919986
C           -0.52461819781806        0.32548803497758       -0.28150851009534
N            0.70501528051480        0.03743330628018       -0.04721568268987
C            1.60043793603406        1.03345409524451        0.27061157282840
C            3.01319485171453        0.60098273866248        0.49587582992217
O            3.90925865408172        1.33444300770431        0.83758341804768
O            3.17647682897214       -0.70124456398143        0.26695540996142
C            4.50180960599569       -1.21741641523225        0.43852049938013
C            1.18838197319152        2.33598749870540        0.35988527087150
O            1.98911530002948        3.35174568590315        0.67342021271253
C           -0.20718489205720        2.68741896207803        0.09076319359395
O           -0.63689055968999        3.82488942210322        0.14625780280193
N           -1.00175452053567        1.60840444104891       -0.24075970572380
H           -3.58111701843582       -0.48620506099021        2.01813312759368
H           -1.96239321473913        0.24506533672312        1.83740556601003
H           -2.13873119930098       -1.53312801077993        1.93903293338440
H           -3.33508444332088       -1.47046367366445       -0.11253318377204
H           -3.26140032310211        0.15481906068521       -0.18574480414101
H           -2.34010917151863        0.33130499973110       -2.32459479325371
H           -0.97303658774941       -0.70201595244658       -2.77500151413460
H           -2.55588196067470       -1.42529534128830       -2.43770347720069
H            0.01609825311750       -2.27256277456959       -1.07650063974305
H           -1.56219241248900       -2.93830325173040       -0.61378078714674
H           -0.49424935812960       -2.22001333572576        0.61305092608560
H            5.18779546242727       -0.72413047683331       -0.25473725052546
H            4.44837032133535       -2.28278989801330        0.22494403521312
H            4.83904664077635       -1.05075810301170        1.46445023204159
H            1.47694407861910        4.18086300959461        0.67453967484640
H           -1.96180728555360        1.81444131371981       -0.45574200457757

          :  Hamiltonian                  GFN1-xTB          :
         :: total energy             -57.870845340585 Eh    ::
         :: gradient norm              0.000231398157 Eh/a0 ::
         :: HOMO-LUMO gap              3.001785220981 eV    ::
         :: SCC energy               -58.454104576222 Eh    ::
         :: -> Gsolv                  -0.135251610997 Eh    ::
         :: repulsion energy           0.602457463149 Eh    ::

    * Orbital Energies and Occupations

         #    Occupation            Energy/Eh            Energy/eV
      -------------------------------------------------------------
         1        2.0000           -0.8927755             -24.2937
       ...           ...                  ...                  ...
        35        2.0000           -0.5590959             -15.2138
        36        2.0000           -0.5522684             -15.0280
        37        2.0000           -0.5478312             -14.9072
        38        2.0000           -0.5448451             -14.8260
        39        2.0000           -0.5364348             -14.5971
        40        2.0000           -0.5296651             -14.4129
        41        2.0000           -0.5207184             -14.1695
        42        2.0000           -0.5083490             -13.8329
        43        2.0000           -0.5018666             -13.6565
        44        2.0000           -0.4977390             -13.5442
        45        2.0000           -0.4808778             -13.0854
        46        2.0000           -0.4664621             -12.6931
        47        2.0000           -0.4499898             -12.2448 (HOMO)
        48                         -0.3396763              -9.2431 (LUMO)
        49                         -0.3076249              -8.3709
        50                         -0.2536069              -6.9010
        51                         -0.1907232              -5.1898
        52                         -0.1785369              -4.8582
        53                         -0.1751736              -4.7667
        54                         -0.1668107              -4.5391
        55                         -0.1514028              -4.1199
        56                         -0.1426904              -3.8828
        57                         -0.1397948              -3.8040
        58                         -0.1167977              -3.1782
       ...                                ...                  ...
       100                          0.7360789              20.0297
      -------------------------------------------------------------
                  HL-Gap            0.1103136 Eh            3.0018 eV

Wiberg/Mayer (AO) data.
largest (>0.10) Wiberg bond orders for each atom

     #   Z sym  total        # sym  WBO       # sym  WBO       # sym  WBO
 ---------------------------------------------------------------------------
     1   6 C    3.891 --    19 H    0.984    20 H    0.982    18 H    0.979
                             2 N    0.915
     2   7 N    3.593 --     1 C    0.915    22 H    0.892    21 H    0.887
                             3 C    0.872
     3   6 C    3.897 --     5 C    1.002     4 C    0.986     6 C    0.984
                             2 N    0.872
     4   6 C    3.981 --     3 C    0.986    23 H    0.980    25 H    0.979
                            24 H    0.977
     5   6 C    3.983 --     3 C    1.002    27 H    0.982    28 H    0.979
                            26 H    0.976
     6   6 C    3.941 --     7 N    1.612    17 N    1.153     3 C    0.984
     7   7 N    3.034 --     6 C    1.612     8 C    1.167
     8   6 C    3.960 --    13 C    1.504     7 N    1.167     9 C    0.995
     9   6 C    3.856 --    10 O    1.666    11 O    1.116     8 C    0.995
    10   8 O    1.932 --     9 C    1.666    11 O    0.137
    11   8 O    2.201 --     9 C    1.116    12 C    0.893    10 O    0.137
    12   6 C    3.867 --    30 H    0.986    31 H    0.979    29 H    0.979
                            11 O    0.893
    13   6 C    3.921 --     8 C    1.504    14 O    1.127    15 C    1.053
    14   8 O    2.106 --    13 C    1.127    32 H    0.802
    15   6 C    3.905 --    16 O    1.602    17 N    1.120    13 C    1.053
    16   8 O    1.925 --    15 C    1.602    17 N    0.134
    17   7 N    3.453 --     6 C    1.153    15 C    1.120    33 H    0.882
                            16 O    0.134
    18   1 H    0.987 --     1 C    0.979
    19   1 H    0.996 --     1 C    0.984
    20   1 H    0.993 --     1 C    0.982
    21   1 H    0.914 --     2 N    0.887
    22   1 H    0.919 --     2 N    0.892
    23   1 H    0.993 --     4 C    0.980
    24   1 H    0.994 --     4 C    0.977
    25   1 H    0.992 --     4 C    0.979
    26   1 H    1.003 --     5 C    0.976
    27   1 H    0.993 --     5 C    0.982
    28   1 H    1.003 --     5 C    0.979
    29   1 H    1.006 --    12 C    0.979
    30   1 H    1.010 --    12 C    0.986
    31   1 H    1.006 --    12 C    0.979
    32   1 H    0.838 --    14 O    0.802
    33   1 H    0.919 --    17 N    0.882
 ---------------------------------------------------------------------------

           -------------------------------------------------
          | TOTAL ENERGY              -57.870845340585 Eh   |
          | GRADIENT NORM               0.000231398157 Eh/α |
          | HOMO-LUMO GAP               3.001785220981 eV   |
           -------------------------------------------------

 * finished run on 2023/06/20 at 15:03:37.956
