   * xtb version 6.5.1 (579679a) compiled by 'ehlert@majestix' on 2022-07-11
          program call               : /lustre/hpc/kemi/ree/PhD/git/ReactivityQM/dep/xtb-6.5.1/bin/xtb --gfn 1 /lustre/hpc/kemi/ree/PhD/git/ReactivityQM/calculations/R02oxygendeprot/reac01prodN17/conf07/R02oxygendeprot_reac01prodN17_conf07_gfn1.xyz --opt --vfukui --chrg 0 --uhf 0 --alpb DMSO

   ID    Z sym.   atoms
    1    6 C      1, 3, 5, 7-10, 12, 13, 15, 18, 19, 22, 24
    2    8 O      2, 4, 14, 20, 23, 25
    3    7 N      6, 11, 16, 17, 21
    4    1 H      26-42

      * Solvation model:               ALPB
        Solvent                        DMSO
        Solvent mass                       7.8130E+01 g/mol
          :  Hamiltonian                  GFN1-xTB          :
 * total energy  :   -82.9300643 Eh     change       -0.1469857E-08 Eh
 * total energy  :   -82.9439727 Eh     change       -0.1390842E-01 Eh
 * total energy  :   -82.9488598 Eh     change       -0.4887014E-02 Eh
 * total energy  :   -82.9497694 Eh     change       -0.9096001E-03 Eh
 * total energy  :   -82.9503422 Eh     change       -0.5728605E-03 Eh
 * total energy  :   -82.9506649 Eh     change       -0.3226962E-03 Eh
 * total energy  :   -82.9509143 Eh     change       -0.2494066E-03 Eh
 * total energy  :   -82.9511170 Eh     change       -0.2026534E-03 Eh
 * total energy  :   -82.9512708 Eh     change       -0.1538719E-03 Eh
 * total energy  :   -82.9513907 Eh     change       -0.1198025E-03 Eh
 * total energy  :   -82.9868131 Eh     change       -0.1302189E-04 Eh
 * total energy  :   -82.9868326 Eh     change       -0.1945896E-04 Eh
 * total energy  :   -82.9868436 Eh     change       -0.1108537E-04 Eh
 * total energy  :   -82.9868547 Eh     change       -0.1104949E-04 Eh
 * total energy  :   -82.9868662 Eh     change       -0.1152961E-04 Eh
 * total energy  :   -82.9868770 Eh     change       -0.1078227E-04 Eh
 * total energy  :   -82.9868855 Eh     change       -0.8491799E-05 Eh
 * total energy  :   -82.9868930 Eh     change       -0.7533781E-05 Eh
 * total energy  :   -82.9868975 Eh     change       -0.4471124E-05 Eh
   *** GEOMETRY OPTIMIZATION CONVERGED AFTER 193 ITERATIONS ***

 final structure:
================
42
 xtb: 6.5.1 (579679a)
C            2.53676671055306        3.67652460988985       -2.34554993828509
O            2.69340879819853        2.42799525954493       -1.67349922409341
C            1.56219509688363        1.77642641356879       -1.37078296504549
O            0.46992493868167        2.23607812108190       -1.65428374161223
C            1.79003273691121        0.49773806725129       -0.69551590314409
N            0.68059895203028       -0.30116380465561       -0.40893402159763
C            0.77549368065200       -1.49386766483827        0.10376070069866
C           -0.50666456620339       -2.26337133219047        0.25881282978428
C           -0.67685578516133       -3.20843247035093       -0.93312035645905
C           -0.59337589674658       -3.00614759510687        1.59068688412628
N           -1.49240570458439       -1.16463756561843        0.24462231275359
C           -2.85318007291318       -1.46922261164872       -0.21222310053434
C           -0.80100661497054        0.04599286267654       -0.83436788009982
O           -1.09309922483027       -0.20471254464022       -1.99065967181887
C           -1.26915561039891        1.26537822768532       -0.08693740745836
N           -2.20154681027074        2.09321713295017       -0.42213482819146
N           -2.37643278596911        2.93411794471355        0.64562468771092
C           -1.55852619535115        2.54637216914036        1.56721370248447
C           -1.37161147795618        3.12073836634409        2.91767675769732
O           -0.82910495416826        1.47829154123474        1.17355095763898
N            1.97156349114871       -2.01517160515660        0.43226785241627
C            3.17946948529170       -1.34259907236818        0.28762255398320
O            4.20849529996535       -1.87751800936040        0.64157962214461
C            3.09297313849546        0.03318215123353       -0.34397823267274
O            4.14565659189356        0.64815690251542       -0.51496681359931
H            1.98688221796217        3.54019798980162       -3.28072414138284
H            1.99550992789719        4.38370239871534       -1.71190641675072
H            3.53870859083715        4.04940350605409       -2.55062996527245
H           -1.58858230171791       -3.79104554018049       -0.82567928755991
H           -0.70973511261435       -2.64369043239031       -1.86439137258553
H            0.17036208021571       -3.89130149874198       -0.95964573543448
H           -1.59468979189629       -3.41241623971115        1.71736559241340
H            0.11793606025183       -3.82942665330031        1.60564369265995
H           -0.37576085302117       -2.33270538897113        2.41787650986590
H           -1.53080869113742       -0.76094471987203        1.17779343179644
H           -2.83781273595619       -1.64669237932590       -1.28650579033055
H           -3.47280386522036       -0.60226997817147        0.01015256904650
H           -3.22791990758528       -2.34175973709396        0.31561039437326
H           -0.33339862845797        3.41979217390579        3.06075015277744
H           -2.02227564775963        3.98339012732552        3.03954400503009
H           -1.61337591757926        2.37504713346846        3.67422171927799
H            2.01415435459750       -2.93264825539414        0.84445086522427

          :  Hamiltonian                  GFN1-xTB          :
         :: total energy             -82.986897496307 Eh    ::
         :: gradient norm              0.000488964199 Eh/a0 ::
         :: HOMO-LUMO gap              2.589484915609 eV    ::
         :: SCC energy               -83.753335592205 Eh    ::
         :: -> Gsolv                  -0.088487891190 Eh    ::
         :: repulsion energy           0.796118310224 Eh    ::

    * Orbital Energies and Occupations

         #    Occupation            Energy/Eh            Energy/eV
      -------------------------------------------------------------
         1        2.0000           -0.8650594             -23.5395
       ...           ...                  ...                  ...
        55        2.0000           -0.5086413             -13.8408
        56        2.0000           -0.5026449             -13.6777
        57        2.0000           -0.5008138             -13.6278
        58        2.0000           -0.4942628             -13.4496
        59        2.0000           -0.4877613             -13.2727
        60        2.0000           -0.4783412             -13.0163
        61        2.0000           -0.4760626             -12.9543
        62        2.0000           -0.4739766             -12.8976
        63        2.0000           -0.4615960             -12.5607
        64        2.0000           -0.4508351             -12.2678
        65        2.0000           -0.4482651             -12.1979
        66        2.0000           -0.4242080             -11.5433
        67        2.0000           -0.4132260             -11.2445 (HOMO)
        68                         -0.3180642              -8.6550 (LUMO)
        69                         -0.3022237              -8.2239
        70                         -0.2845578              -7.7432
        71                         -0.2536282              -6.9016
        72                         -0.2342010              -6.3729
        73                         -0.1810913              -4.9277
        74                         -0.1586877              -4.3181
        75                         -0.1537096              -4.1827
        76                         -0.1469906              -3.9998
        77                         -0.1430987              -3.8939
        78                         -0.1414041              -3.8478
       ...                                ...                  ...
       134                          0.7514308              20.4475
      -------------------------------------------------------------
                  HL-Gap            0.0951618 Eh            2.5895 eV

Wiberg/Mayer (AO) data.
largest (>0.10) Wiberg bond orders for each atom

     #   Z sym  total        # sym  WBO       # sym  WBO       # sym  WBO
 ---------------------------------------------------------------------------
     1   6 C    3.881 --    28 H    0.986    27 H    0.980    26 H    0.980
                             2 O    0.907
     2   8 O    2.192 --     3 C    1.092     1 C    0.907     4 O    0.119
     3   6 C    3.867 --     4 O    1.588     2 O    1.092     5 C    1.090
     4   8 O    1.895 --     3 C    1.588     2 O    0.119
     5   6 C    3.855 --    24 C    1.249     3 C    1.090     6 N    1.064
                            25 O    0.134
     6   7 N    3.555 --     7 C    1.454     5 C    1.064    13 C    0.738
     7   6 C    3.924 --     6 N    1.454    21 N    1.208     8 C    0.981
     8   6 C    3.931 --    10 C    0.989     7 C    0.981     9 C    0.980
                            11 N    0.924
     9   6 C    3.980 --    31 H    0.981    29 H    0.980     8 C    0.980
                            30 H    0.978
    10   6 C    3.984 --     8 C    0.989    34 H    0.982    32 H    0.979
                            33 H    0.978
    11   7 N    3.508 --    12 C    0.938     8 C    0.924    35 H    0.903
                            13 C    0.540    14 O    0.125
    12   6 C    3.918 --    37 H    0.983    38 H    0.981    36 H    0.978
                            11 N    0.938
    13   6 C    3.888 --    14 O    1.538    15 C    0.951     6 N    0.738
                            11 N    0.540
    14   8 O    1.868 --    13 C    1.538    11 N    0.125
    15   6 C    3.877 --    16 N    1.653    20 O    1.047    13 C    0.951
    16   7 N    2.996 --    15 C    1.653    17 N    1.169
    17   7 N    2.983 --    18 C    1.644    16 N    1.169
    18   6 C    3.868 --    17 N    1.644    20 O    1.049    19 C    1.031
    19   6 C    3.987 --    18 C    1.031    40 H    0.982    39 H    0.965
                            41 H    0.963
    20   8 O    2.293 --    18 C    1.049    15 C    1.047
    21   7 N    3.452 --     7 C    1.208    22 C    1.086    42 H    0.878
                            23 O    0.118
    22   6 C    3.865 --    23 O    1.665    21 N    1.086    24 C    0.950
    23   8 O    1.935 --    22 C    1.665    21 N    0.118
    24   6 C    3.942 --    25 O    1.578     5 C    1.249    22 C    0.950
    25   8 O    1.887 --    24 C    1.578     5 C    0.134
    26   1 H    1.010 --     1 C    0.980
    27   1 H    1.009 --     1 C    0.980
    28   1 H    1.012 --     1 C    0.986
    29   1 H    0.996 --     9 C    0.980
    30   1 H    1.008 --     9 C    0.978
    31   1 H    0.998 --     9 C    0.981
    32   1 H    0.994 --    10 C    0.979
    33   1 H    0.995 --    10 C    0.978
    34   1 H    0.995 --    10 C    0.982
    35   1 H    0.944 --    11 N    0.903
    36   1 H    1.005 --    12 C    0.978
    37   1 H    0.998 --    12 C    0.983
    38   1 H    0.995 --    12 C    0.981
    39   1 H    0.997 --    19 C    0.965
    40   1 H    0.999 --    19 C    0.982
    41   1 H    0.998 --    19 C    0.963
    42   1 H    0.923 --    21 N    0.878
 ---------------------------------------------------------------------------

           -------------------------------------------------
          | TOTAL ENERGY              -82.986897496307 Eh   |
          | GRADIENT NORM               0.000488964199 Eh/α |
          | HOMO-LUMO GAP               2.589484915609 eV   |
           -------------------------------------------------

 * finished run on 2023/06/21 at 17:37:39.566
