   * xtb version 6.5.1 (579679a) compiled by 'ehlert@majestix' on 2022-07-11
          program call               : /lustre/hpc/kemi/ree/PhD/git/ReactivityQM/dep/xtb-6.5.1/bin/xtb --gfn 1 /lustre/hpc/kemi/ree/PhD/git/ReactivityQM/calculations/RaltegravirCLI/reac01prodN04/conf06/RaltegravirCLI_reac01prodN04_conf06_gfn1.xyz --opt --vfukui --chrg 1 --uhf 0 --alpb DMSO

   ID    Z sym.   atoms
    1    6 C      1-3, 6, 7
    2    7 N      4, 5
    3    8 O      8, 10
    4   17 Cl     9
    5    1 H      11-16

      * Solvation model:               ALPB
        Solvent                        DMSO
        Solvent mass                       7.8130E+01 g/mol
          :  Hamiltonian                  GFN1-xTB          :
 * total energy  :   -33.3590495 Eh     change       -0.6110668E-12 Eh
 * total energy  :   -33.3656425 Eh     change       -0.6592982E-02 Eh
 * total energy  :   -33.3675286 Eh     change       -0.1886154E-02 Eh
 * total energy  :   -33.3677133 Eh     change       -0.1847140E-03 Eh
 * total energy  :   -33.3677875 Eh     change       -0.7413322E-04 Eh
 * total energy  :   -33.3677926 Eh     change       -0.5168025E-05 Eh
 * total energy  :   -33.3677965 Eh     change       -0.3901597E-05 Eh
   *** GEOMETRY OPTIMIZATION CONVERGED AFTER 7 ITERATIONS ***

 final structure:
================
16
 xtb: 6.5.1 (579679a)
C           -1.49288011214987        1.13537302943306       -0.48132841950526
C           -0.64185412222397       -0.07837617652539       -0.06836448412339
C           -1.38288099847876       -0.98311791973486        0.93136885188066
N           -0.21828288915430       -0.81257334681788       -1.20327243034230
N            1.03948667043413       -0.80345552737901       -1.28892523380131
C            1.51525985075782       -0.07106477263400       -0.22707831678426
C            2.98224559033690        0.21262616585556        0.08085195017301
O            3.29066250687454        0.88560548739499        1.01029258011508
Cl           4.04355822432574       -0.52100110012716       -1.01027071132655
O            0.58000268102068        0.36681751621813        0.50378594679943
H           -2.39833934070836        0.77460651685306       -0.96295461504600
H           -1.74088719889983        1.70377278712357        0.41188936494718
H           -0.92085022208528        1.75244243801367       -1.17073882816179
H           -0.73469077144000       -1.81156655288781        1.20882991926073
H           -2.28655132593387       -1.35606021095100        0.45571940385363
H           -1.63399854267558       -0.39402933383486        1.81019402206118

          :  Hamiltonian                  GFN1-xTB          :
         :: total energy             -33.367796533893 Eh    ::
         :: gradient norm              0.000445893536 Eh/a0 ::
         :: HOMO-LUMO gap              1.507892400829 eV    ::
         :: SCC energy               -33.642547287300 Eh    ::
         :: -> Gsolv                  -0.084555869720 Eh    ::
         :: repulsion energy           0.282297832958 Eh    ::

    * Orbital Energies and Occupations

         #    Occupation            Energy/Eh            Energy/eV
      -------------------------------------------------------------
         1        2.0000           -1.0038689             -27.3167
       ...           ...                  ...                  ...
        15        2.0000           -0.6379233             -17.3588
        16        2.0000           -0.6238959             -16.9771
        17        2.0000           -0.6146830             -16.7264
        18        2.0000           -0.5899572             -16.0536
        19        2.0000           -0.5887002             -16.0193
        20        2.0000           -0.5801255             -15.7860
        21        2.0000           -0.5763926             -15.6844
        22        2.0000           -0.5694762             -15.4962
        23        2.0000           -0.5567744             -15.1506
        24        2.0000           -0.5429536             -14.7745
        25        2.0000           -0.5341601             -14.5352
        26        2.0000           -0.5290243             -14.3955
        27        2.0000           -0.5198803             -14.1467 (HOMO)
        28                         -0.4644662             -12.6388 (LUMO)
        29                         -0.3900782             -10.6146
        30                         -0.3080829              -8.3834
        31                         -0.2557402              -6.9590
        32                         -0.1706004              -4.6423
        33                         -0.1648061              -4.4846
        34                         -0.1349616              -3.6725
        35                         -0.1290237              -3.5109
        36                         -0.1285174              -3.4971
        37                         -0.1207105              -3.2847
        38                         -0.1125739              -3.0633
       ...                                ...                  ...
        57                          0.7121411              19.3783
      -------------------------------------------------------------
                  HL-Gap            0.0554140 Eh            1.5079 eV

Wiberg/Mayer (AO) data.
largest (>0.10) Wiberg bond orders for each atom

     #   Z sym  total        # sym  WBO       # sym  WBO       # sym  WBO
 ---------------------------------------------------------------------------
     1   6 C    3.938 --    13 H    0.977    11 H    0.975    12 H    0.974
                             2 C    0.878
     2   6 C    3.814 --     4 N    1.079     3 C    0.879     1 C    0.878
                            10 O    0.872
     3   6 C    3.938 --    14 H    0.977    15 H    0.975    16 H    0.974
                             2 C    0.879
     4   7 N    2.996 --     5 N    1.668     2 C    1.079
     5   7 N    3.021 --     4 N    1.668     6 C    1.205
     6   6 C    3.801 --    10 O    1.384     5 N    1.205     7 C    0.928
     7   6 C    3.905 --     8 O    1.806     9 Cl   1.131     6 C    0.928
     8   8 O    2.092 --     7 C    1.806     9 Cl   0.200
     9  17 Cl   1.405 --     7 C    1.131     8 O    0.200
    10   8 O    2.444 --     6 C    1.384     2 C    0.872
    11   1 H    0.989 --     1 C    0.975
    12   1 H    0.989 --     1 C    0.974
    13   1 H    0.988 --     1 C    0.977
    14   1 H    0.988 --     3 C    0.977
    15   1 H    0.989 --     3 C    0.975
    16   1 H    0.989 --     3 C    0.974
 ---------------------------------------------------------------------------

           -------------------------------------------------
          | TOTAL ENERGY              -33.367796533893 Eh   |
          | GRADIENT NORM               0.000445893536 Eh/α |
          | HOMO-LUMO GAP               1.507892400829 eV   |
           -------------------------------------------------

 * finished run on 2023/06/20 at 14:54:55.779
