   * xtb version 6.5.1 (579679a) compiled by 'ehlert@majestix' on 2022-07-11
          program call               : /lustre/hpc/kemi/ree/PhD/git/ReactivityQM/dep/xtb-6.5.1/bin/xtb --gfn 1 /lustre/hpc/kemi/ree/PhD/git/ReactivityQM/calculations/R02methylcation/reac01prodE10/conf05/R02methylcation_reac01prodE10_conf05_gfn1.xyz --opt --vfukui --chrg -2 --uhf 0 --alpb DMSO

   ID    Z sym.   atoms
    1    6 C      1, 3, 5, 7-10, 12, 14, 17-19, 22, 24
    2    8 O      2, 4, 13, 20, 23, 25
    3    7 N      6, 11, 15, 16, 21
    4    1 H      26-42

      * Solvation model:               ALPB
        Solvent                        DMSO
        Solvent mass                       7.8130E+01 g/mol
          :  Hamiltonian                  GFN1-xTB          :
 * total energy  :   -83.5618681 Eh     change       -0.3596767E-10 Eh
 * total energy  :   -83.5790726 Eh     change       -0.1720450E-01 Eh
 * total energy  :   -83.5863077 Eh     change       -0.7235066E-02 Eh
 * total energy  :   -83.5874903 Eh     change       -0.1182603E-02 Eh
 * total energy  :   -83.5882133 Eh     change       -0.7230137E-03 Eh
 * total energy  :   -83.5884044 Eh     change       -0.1911167E-03 Eh
 * total energy  :   -83.5885247 Eh     change       -0.1202588E-03 Eh
 * total energy  :   -83.5885837 Eh     change       -0.5897866E-04 Eh
 * total energy  :   -83.5886187 Eh     change       -0.3508602E-04 Eh
 * total energy  :   -83.5886423 Eh     change       -0.2354484E-04 Eh
 * total energy  :   -83.5886945 Eh     change       -0.1812206E-04 Eh
 * total energy  :   -83.5887005 Eh     change       -0.6022102E-05 Eh
 * total energy  :   -83.5887151 Eh     change       -0.1452388E-04 Eh
 * total energy  :   -83.5887259 Eh     change       -0.1085392E-04 Eh
 * total energy  :   -83.5887420 Eh     change       -0.1608866E-04 Eh
 * total energy  :   -83.5887674 Eh     change       -0.2535863E-04 Eh
 * total energy  :   -83.5887803 Eh     change       -0.1298133E-04 Eh
 * total energy  :   -83.5887903 Eh     change       -0.9987180E-05 Eh
 * total energy  :   -83.5887949 Eh     change       -0.4626545E-05 Eh
   *** GEOMETRY OPTIMIZATION CONVERGED AFTER 22 ITERATIONS ***

 final structure:
================
42
 xtb: 6.5.1 (579679a)
C           -6.89389997226084        0.58888900645380       -1.76419566765235
O           -5.69878454853901       -0.17050205105206       -1.74240619271095
C           -4.76119535386213        0.22924222366758       -0.82666726262196
O           -4.99571752466433        1.19300286564928       -0.09487997358742
C           -3.54935963356509       -0.55774865717609       -0.81012454880067
N           -2.63902733681441       -0.12382397955939        0.14650991043491
C           -1.51661311125364       -0.72538102825005        0.29565914537597
C           -0.53293785967005       -0.31905322369285        1.38165786758088
C           -0.85048520380421       -1.18799107198654        2.61336690459585
C           -0.72214678042413        1.17153327003895        1.71105351040988
N            0.81086120800760       -0.61642502508556        0.87939047424467
C            1.93895817702145       -0.11817947576803        1.68726396258756
O            1.85144400204299       -0.07468325045584        2.96274596654060
C            3.01638201869496        0.18182714251268        0.90801981032756
N            3.08998377721112        0.16319589796392       -0.50566232913235
N            4.31118924550649        0.61854582474765       -0.75713341124649
C            4.74309551131754        0.75047360553493       -2.12793817320120
C            5.01641091874146        0.91907572053018        0.31112753230484
C            6.41126708036573        1.42424398989325        0.36877379618590
O            4.29198501843247        0.66640186027593        1.43878369048228
N           -1.17760735041840       -1.82434326115689       -0.46372963353569
C           -1.96901407377073       -2.34908564085271       -1.45259603747576
O           -1.57120107955884       -3.32942885047560       -2.09694024454858
C           -3.29095456014897       -1.66925450373382       -1.66291269709483
O           -4.06107441126383       -2.11034082125708       -2.54815218446229
H           -7.39415726742887        0.56354370855700       -0.78970723572501
H           -7.54410495336251        0.14608521876366       -2.51855229380065
H           -6.69092843982356        1.63361537335671       -2.02442352484548
H           -0.66765199796900       -2.23711238844930        2.37981082406843
H           -0.22638192230331       -0.90348206472397        3.45903096929407
H           -1.89824118379940       -1.06460925578118        2.88945150486944
H           -1.76920435177634        1.36518282350852        1.94649384426222
H           -0.43888888575470        1.78315173208645        0.85389707072946
H           -0.10734125801850        1.45100223694609        2.56574445034194
H            0.90971475951612       -0.22412339604196       -0.05711391075360
H            3.95428424341370        0.36495849681169       -2.77031444477819
H            4.92809302099445        1.79931780688555       -2.35803025874044
H            5.66024927801164        0.18389519181609       -2.28315150246603
H            7.12602056133212        0.66229824704185        0.04805059852735
H            6.64418622190984        1.70902809683611        1.39306128647164
H            6.53986351081696        2.29280865877740       -0.27865701806061
H           -0.27707249306579       -2.25575205316189       -0.30660257439231

          :  Hamiltonian                  GFN1-xTB          :
         :: total energy             -83.588794948349 Eh    ::
         :: gradient norm              0.000688453387 Eh/a0 ::
         :: HOMO-LUMO gap              0.138492684392 eV    ::
         :: SCC energy               -84.325664307837 Eh    ::
         :: -> Gsolv                  -0.284302058516 Eh    ::
         :: repulsion energy           0.761993108111 Eh    ::

    * Orbital Energies and Occupations

         #    Occupation            Energy/Eh            Energy/eV
      -------------------------------------------------------------
         1        2.0000           -0.8039155             -21.8757
       ...           ...                  ...                  ...
        56        2.0000           -0.4468836             -12.1603
        57        2.0000           -0.4429064             -12.0521
        58        2.0000           -0.4331837             -11.7875
        59        2.0000           -0.4193003             -11.4097
        60        2.0000           -0.4161802             -11.3248
        61        2.0000           -0.4059600             -11.0467
        62        2.0000           -0.3929318             -10.6922
        63        2.0000           -0.3748851             -10.2011
        64        2.0000           -0.3714599             -10.1079
        65        2.0000           -0.3595015              -9.7825
        66        2.0000           -0.3491283              -9.5003
        67        2.0000           -0.3449630              -9.3869
        68        1.8715           -0.2588006              -7.0423 (HOMO)
        69        0.1285           -0.2537111              -6.9038 (LUMO)
        70                         -0.2259169              -6.1475
        71                         -0.2135840              -5.8119
        72                         -0.1785162              -4.8577
        73                         -0.1396437              -3.7999
        74                         -0.1242896              -3.3821
        75                         -0.1154398              -3.1413
        76                         -0.1056230              -2.8741
        77                         -0.0917857              -2.4976
        78                         -0.0878141              -2.3895
        79                         -0.0867686              -2.3611
       ...                                ...                  ...
       134                          0.7510280              20.4365
      -------------------------------------------------------------
                  HL-Gap            0.0050895 Eh            0.1385 eV

Wiberg/Mayer (AO) data.
largest (>0.10) Wiberg bond orders for each atom

     #   Z sym  total        # sym  WBO       # sym  WBO       # sym  WBO
 ---------------------------------------------------------------------------
     1   6 C    3.908 --    27 H    0.987    28 H    0.980    26 H    0.980
                             2 O    0.936
     2   8 O    2.133 --     3 C    1.017     1 C    0.936     4 O    0.101
     3   6 C    3.814 --     4 O    1.541     5 C    1.151     2 O    1.017
     4   8 O    1.808 --     3 C    1.541     2 O    0.101
     5   6 C    3.901 --    24 C    1.258     3 C    1.151     6 N    1.136
                            25 O    0.123
     6   7 N    3.009 --     7 C    1.633     5 C    1.136
     7   6 C    3.927 --     6 N    1.633    21 N    1.100     8 C    0.975
     8   6 C    3.967 --    10 C    0.987     9 C    0.980     7 C    0.975
                            11 N    0.970
     9   6 C    3.993 --    31 H    0.989    29 H    0.987     8 C    0.980
                            30 H    0.976
    10   6 C    3.996 --     8 C    0.987    33 H    0.987    32 H    0.985
                            34 H    0.984
    11   7 N    3.051 --     8 C    0.970    35 H    0.942    12 C    0.923
    12   6 C    3.891 --    14 C    1.499    13 O    1.313    11 N    0.923
    13   8 O    1.644 --    12 C    1.313    14 C    0.144
    14   6 C    3.665 --    12 C    1.499    15 N    1.078    20 O    0.840
                            13 O    0.144
    15   7 N    2.745 --    16 N    1.176    14 C    1.078    18 C    0.298
    16   7 N    3.636 --    18 C    1.382    15 N    1.176    17 C    0.950
    17   6 C    3.953 --    36 H    0.985    38 H    0.982    37 H    0.980
                            16 N    0.950
    18   6 C    3.846 --    16 N    1.382    20 O    1.043    19 C    1.025
                            15 N    0.298
    19   6 C    3.993 --    18 C    1.025    40 H    0.983    41 H    0.975
                            39 H    0.969
    20   8 O    2.090 --    18 C    1.043    14 C    0.840
    21   7 N    3.414 --    22 C    1.155     7 C    1.100    42 H    0.895
                            23 O    0.127
    22   6 C    3.840 --    23 O    1.529    21 N    1.155    24 C    0.996
    23   8 O    1.793 --    22 C    1.529    21 N    0.127
    24   6 C    3.914 --    25 O    1.483     5 C    1.258    22 C    0.996
    25   8 O    1.770 --    24 C    1.483     5 C    0.123
    26   1 H    1.017 --     1 C    0.980
    27   1 H    1.017 --     1 C    0.987
    28   1 H    1.016 --     1 C    0.980
    29   1 H    1.013 --     9 C    0.987
    30   1 H    1.034 --     9 C    0.976
    31   1 H    1.010 --     9 C    0.989
    32   1 H    1.021 --    10 C    0.985
    33   1 H    1.009 --    10 C    0.987
    34   1 H    1.021 --    10 C    0.984
    35   1 H    0.993 --    11 N    0.942
    36   1 H    1.012 --    17 C    0.985
    37   1 H    1.003 --    17 C    0.980
    38   1 H    1.002 --    17 C    0.982
    39   1 H    1.002 --    19 C    0.969
    40   1 H    1.002 --    19 C    0.983
    41   1 H    1.003 --    19 C    0.975
    42   1 H    0.968 --    21 N    0.895
 ---------------------------------------------------------------------------

           -------------------------------------------------
          | TOTAL ENERGY              -83.588794948349 Eh   |
          | GRADIENT NORM               0.000688453387 Eh/α |
          | HOMO-LUMO GAP               0.138492684392 eV   |
           -------------------------------------------------

 * finished run on 2023/06/21 at 17:22:21.003
