                         Program Version 5.0.1 -  RELEASE  -
|  1> # ORCA input file
|  2> ! SP r2SCAN-3c CPCM
|  3>
|  4> %maxcore 1875.0
|  5> %pal nprocs 4 end
|  6> %cpcm smd true SMDsolvent "DMSO" end
|  7>
|  8> *xyz -1 1
|  9> C       2.865717    0.829715    0.497971
| 10> O       1.475100    0.539164    0.465637
| 11> C       1.145340   -0.763943    0.263778
| 12> O       2.006771   -1.632522    0.150765
| 13> C      -0.329943   -0.975420   -0.063815
| 14> C      -0.832942   -2.357972    0.357981
| 15> N      -0.200872   -0.804093   -1.510636
| 16> N      -0.857945    0.367159   -1.790114
| 17> C      -1.393383    0.839783   -0.729851
| 18> C      -2.220502    2.069579   -0.594733
| 19> O      -1.165709    0.063000    0.416241
| 20> H       2.966796    1.893502    0.708447
| 21> H       3.362318    0.250739    1.282951
| 22> H       3.336665    0.596019   -0.462485
| 23> H      -0.124659   -3.114619    0.025278
| 24> H      -0.934220   -2.406595    1.440917
| 25> H      -1.801619   -2.543540   -0.101041
| 26> H      -1.744830    2.792303    0.071979
| 27> H      -2.348886    2.525186   -1.575300
| 28> H      -3.203198    1.832556   -0.181229
| 29> **                         ****END OF INPUT****

CARTESIAN COORDINATES (ANGSTROEM)
---------------------------------
  C      2.865717    0.829715    0.497971
  O      1.475100    0.539164    0.465637
  C      1.145340   -0.763943    0.263778
  O      2.006771   -1.632522    0.150765
  C     -0.329943   -0.975420   -0.063815
  C     -0.832942   -2.357972    0.357981
  N     -0.200872   -0.804093   -1.510636
  N     -0.857945    0.367159   -1.790114
  C     -1.393383    0.839783   -0.729851
  C     -2.220502    2.069579   -0.594733
  O     -1.165709    0.063000    0.416241
  H      2.966796    1.893502    0.708447
  H      3.362318    0.250739    1.282951
  H      3.336665    0.596019   -0.462485
  H     -0.124659   -3.114619    0.025278
  H     -0.934220   -2.406595    1.440917
  H     -1.801619   -2.543540   -0.101041
  H     -1.744830    2.792303    0.071979
  H     -2.348886    2.525186   -1.575300
  H     -3.203198    1.832556   -0.181229

 Total Charge           Charge          ....   -1
 Multiplicity           Mult            ....    1
 Number of Electrons    NEL             ....   84
 Basis Dimension        Dim             ....  279

ORBITAL ENERGIES
----------------

  NO   OCC          E(Eh)            E(eV)
   0   2.0000     -18.972912      -516.2792
   1   2.0000     -18.956271      -515.8264
   2   2.0000     -18.904318      -514.4126
   3   2.0000     -14.138022      -384.7151
   4   2.0000     -14.093667      -383.5082
   5   2.0000     -10.120903      -275.4038
   6   2.0000     -10.089739      -274.5557
   7   2.0000     -10.065636      -273.8999
   8   2.0000     -10.062516      -273.8150
   9   2.0000     -10.019109      -272.6338
  10   2.0000     -10.001947      -272.1668
  11   2.0000      -1.044299       -28.4168
  12   2.0000      -1.021891       -27.8071
  13   2.0000      -0.946073       -25.7440
  14   2.0000      -0.879141       -23.9226
  15   2.0000      -0.764389       -20.8001
  16   2.0000      -0.686632       -18.6842
  17   2.0000      -0.671325       -18.2677
  18   2.0000      -0.634148       -17.2561
  19   2.0000      -0.567232       -15.4352
  20   2.0000      -0.525961       -14.3121
  21   2.0000      -0.503087       -13.6897
  22   2.0000      -0.459223       -12.4961
  23   2.0000      -0.426793       -11.6136
  24   2.0000      -0.418832       -11.3970
  25   2.0000      -0.403317       -10.9748
  26   2.0000      -0.391969       -10.6660
  27   2.0000      -0.376887       -10.2556
  28   2.0000      -0.370055       -10.0697
  29   2.0000      -0.362513        -9.8645
  30   2.0000      -0.348945        -9.4953
  31   2.0000      -0.336842        -9.1659
  32   2.0000      -0.328557        -8.9405
  33   2.0000      -0.315366        -8.5815
  34   2.0000      -0.302663        -8.2359
  35   2.0000      -0.296334        -8.0637
  36   2.0000      -0.260992        -7.1020
  37   2.0000      -0.249371        -6.7857
  38   2.0000      -0.244378        -6.6499
  39   2.0000      -0.220127        -5.9900
  40   2.0000      -0.195181        -5.3111
  41   2.0000      -0.102301        -2.7838
  42   0.0000       0.002860         0.0778
  43   0.0000       0.049601         1.3497
  44   0.0000       0.077108         2.0982
  45   0.0000       0.109041         2.9671
  46   0.0000       0.114560         3.1173

MULLIKEN ATOMIC CHARGES
-----------------------
   0 C :   -0.336596
   1 O :   -0.164755
   2 C :    0.143306
   3 O :   -0.440151
   4 C :    0.394922
   5 C :   -0.640269
   6 N :   -0.528910
   7 N :   -0.270315
   8 C :    0.195240
   9 C :   -0.673912
  10 O :   -0.196268
  11 H :    0.163572
  12 H :    0.165071
  13 H :    0.164881
  14 H :    0.176690
  15 H :    0.164622
  16 H :    0.170275
  17 H :    0.166153
  18 H :    0.180980
  19 H :    0.165464
Sum of atomic charges:   -1.0000000

LOEWDIN ATOMIC CHARGES
----------------------
   0 C :   -0.054845
   1 O :   -0.597465
   2 C :    0.388266
   3 O :   -0.487915
   4 C :    0.282197
   5 C :   -0.369803
   6 N :   -0.580082
   7 N :   -0.523615
   8 C :    0.278842
   9 C :   -0.349696
  10 O :   -0.520173
  11 H :    0.177905
  12 H :    0.174491
  13 H :    0.173156
  14 H :    0.174368
  15 H :    0.162822
  16 H :    0.164347
  17 H :    0.165614
  18 H :    0.175454
  19 H :    0.166134

  Mayer bond orders larger than 0.100000
B(  0-C ,  1-O ) :   0.8401 B(  0-C , 11-H ) :   0.9668 B(  0-C , 12-H ) :   0.9626
B(  0-C , 13-H ) :   0.9601 B(  1-O ,  2-C ) :   1.0768 B(  2-C ,  3-O ) :   1.8100
B(  2-C ,  4-C ) :   0.9951 B(  2-C ,  6-N ) :   0.1314 B(  4-C ,  5-C ) :   0.8346
B(  4-C ,  6-N ) :   0.9987 B(  4-C , 10-O ) :   0.8899 B(  5-C ,  6-N ) :   0.1162
B(  5-C , 14-H ) :   0.9798 B(  5-C , 15-H ) :   0.9797 B(  5-C , 16-H ) :   0.9831
B(  6-N ,  7-N ) :   1.4510 B(  6-N ,  8-C ) :   0.1594 B(  7-N ,  8-C ) :   1.8665
B(  8-C ,  9-C ) :   0.8301 B(  8-C , 10-O ) :   0.9960 B(  9-C , 17-H ) :   0.9507
B(  9-C , 18-H ) :   1.0014 B(  9-C , 19-H ) :   0.9603

Dispersion correction           -0.006620736
FINAL SINGLE POINT ENERGY      -569.199808319683

DIPOLE MOMENT
-------------
                                X             Y             Z
Electronic contribution:      1.09491      -1.46527      -0.48435
Nuclear contribution   :     -1.11062       3.05076       2.84733
                        -----------------------------------------
Total Dipole Moment    :     -0.01571       1.58549       2.36298
                        -----------------------------------------
Magnitude (a.u.)       :      2.84565
Magnitude (Debye)      :      7.23307

Rotational constants in cm-1:     0.056313     0.032537     0.025160
Rotational constants in MHz :  1688.218879   975.435694   754.281410

                             ****ORCA TERMINATED NORMALLY****
TOTAL RUN TIME: 0 days 0 hours 0 minutes 34 seconds 314 msec
