   * xtb version 6.5.1 (579679a) compiled by 'ehlert@majestix' on 2022-07-11
          program call               : /lustre/hpc/kemi/ree/PhD/git/ReactivityQM/dep/xtb-6.5.1/bin/xtb --gfn 1 /lustre/hpc/kemi/ree/PhD/git/ReactivityQM/calculations/R01/reac01prodE03/conf03/R01_reac01prodE03_conf03_gfn1.xyz --opt --vfukui --chrg -1 --uhf 0 --alpb DMSO

   ID    Z sym.   atoms
    1    6 C      1, 3, 5, 6, 9, 10
    2    8 O      2, 4, 11
    3    7 N      7, 8
    4    1 H      12-20

      * Solvation model:               ALPB
        Solvent                        DMSO
        Solvent mass                       7.8130E+01 g/mol
          :  Hamiltonian                  GFN1-xTB          :
 * total energy  :   -38.3102279 Eh     change       -0.2641798E-10 Eh
 * total energy  :   -38.3214097 Eh     change       -0.1118172E-01 Eh
 * total energy  :   -38.3250054 Eh     change       -0.3595772E-02 Eh
 * total energy  :   -38.3255910 Eh     change       -0.5855946E-03 Eh
 * total energy  :   -38.3261617 Eh     change       -0.5707220E-03 Eh
 * total energy  :   -38.3265040 Eh     change       -0.3422931E-03 Eh
 * total energy  :   -38.3270308 Eh     change       -0.5267681E-03 Eh
 * total energy  :   -38.3275162 Eh     change       -0.4853874E-03 Eh
 * total energy  :   -38.3279214 Eh     change       -0.4052497E-03 Eh
 * total energy  :   -38.3274821 Eh     change        0.4393489E-03 Eh
 * total energy  :   -38.3290631 Eh     change       -0.2204372E-04 Eh
 * total energy  :   -38.3290885 Eh     change       -0.2537135E-04 Eh
 * total energy  :   -38.3291053 Eh     change       -0.1683405E-04 Eh
 * total energy  :   -38.3291198 Eh     change       -0.1447424E-04 Eh
 * total energy  :   -38.3291327 Eh     change       -0.1297395E-04 Eh
 * total energy  :   -38.3291434 Eh     change       -0.1069276E-04 Eh
 * total energy  :   -38.3291491 Eh     change       -0.5669902E-05 Eh
 * total energy  :   -38.3291504 Eh     change       -0.1340679E-05 Eh
 * total energy  :   -38.3291523 Eh     change       -0.1813667E-05 Eh
   *** GEOMETRY OPTIMIZATION CONVERGED AFTER 36 ITERATIONS ***

 final structure:
================
20
 xtb: 6.5.1 (579679a)
C            2.86571741500513        0.82971473660670        0.49797082831349
O            1.47509965090188        0.53916351550792        0.46563677135009
C            1.14534019820205       -0.76394282665452        0.26377774183391
O            2.00677135044938       -1.63252173005548        0.15076543656749
C           -0.32994323864490       -0.97542034644875       -0.06381469428638
C           -0.83294226388837       -2.35797186951289        0.35798071391060
N           -0.20087154838277       -0.80409291674524       -1.51063608122283
N           -0.85794521782427        0.36715880300890       -1.79011438385728
C           -1.39338344389186        0.83978345695219       -0.72985109094148
C           -2.22050229586757        2.06957903014396       -0.59473349141898
O           -1.16570885785585        0.06300026975455        0.41624090289611
H            2.96679635410128        1.89350174426743        0.70844691669100
H            3.36231830106003        0.25073937943462        1.28295084754670
H            3.33666493770467        0.59601914700437       -0.46248461264344
H           -0.12465914361676       -3.11461916351583        0.02527847217849
H           -0.93421953981091       -2.40659507464106        1.44091714366343
H           -1.80161887571928       -2.54354003488848       -0.10104144547996
H           -1.74483024923286        2.79230328182217        0.07197912261502
H           -2.34888566871011        2.52518576350618       -1.57530031097907
H           -3.20319786397878        1.83255583445343       -0.18122878673705

          :  Hamiltonian                  GFN1-xTB          :
         :: total energy             -38.329152255346 Eh    ::
         :: gradient norm              0.000569355169 Eh/a0 ::
         :: HOMO-LUMO gap              2.029350132583 eV    ::
         :: SCC energy               -38.635880361807 Eh    ::
         :: -> Gsolv                  -0.104223867990 Eh    ::
         :: repulsion energy           0.315599071617 Eh    ::

    * Orbital Energies and Occupations

         #    Occupation            Energy/Eh            Energy/eV
      -------------------------------------------------------------
         1        2.0000           -0.7927746             -21.5725
       ...           ...                  ...                  ...
        19        2.0000           -0.5036289             -13.7044
        20        2.0000           -0.4983803             -13.5616
        21        2.0000           -0.4934186             -13.4266
        22        2.0000           -0.4886402             -13.2966
        23        2.0000           -0.4758605             -12.9488
        24        2.0000           -0.4681046             -12.7378
        25        2.0000           -0.4613913             -12.5551
        26        2.0000           -0.4577896             -12.4571
        27        2.0000           -0.4199599             -11.4277
        28        2.0000           -0.4132605             -11.2454
        29        2.0000           -0.3888575             -10.5813
        30        2.0000           -0.3624321              -9.8623
        31        2.0000           -0.2891422              -7.8680 (HOMO)
        32                         -0.2145649              -5.8386 (LUMO)
        33                         -0.1707652              -4.6468
        34                         -0.1208778              -3.2893
        35                         -0.1130788              -3.0770
        36                         -0.0978820              -2.6635
        37                         -0.0587071              -1.5975
        38                         -0.0572837              -1.5588
        39                         -0.0468678              -1.2753
        40                         -0.0453655              -1.2345
        41                         -0.0392347              -1.0676
        42                         -0.0343133              -0.9337
       ...                                ...                  ...
        62                          0.6701762              18.2364
      -------------------------------------------------------------
                  HL-Gap            0.0745772 Eh            2.0294 eV

Wiberg/Mayer (AO) data.
largest (>0.10) Wiberg bond orders for each atom

     #   Z sym  total        # sym  WBO       # sym  WBO       # sym  WBO
 ---------------------------------------------------------------------------
     1   6 C    3.903 --    12 H    0.987    13 H    0.981    14 H    0.981
                             2 O    0.925
     2   8 O    2.153 --     3 C    1.045     1 C    0.925     4 O    0.105
     3   6 C    3.814 --     4 O    1.573     2 O    1.045     5 C    0.921
                             7 N    0.173
     4   8 O    1.857 --     3 C    1.573     2 O    0.105
     5   6 C    3.901 --     6 C    0.979     7 N    0.968    11 O    0.928
                             3 C    0.921
     6   6 C    3.996 --    16 H    0.987    17 H    0.986    15 H    0.986
                             5 C    0.979
     7   7 N    2.656 --     8 N    1.163     5 C    0.968     3 C    0.173
                             9 C    0.164
     8   7 N    3.014 --     9 C    1.687     7 N    1.163
     9   6 C    3.878 --     8 N    1.687    10 C    1.018    11 O    0.937
                             7 N    0.164
    10   6 C    3.996 --     9 C    1.018    19 H    0.987    20 H    0.976
                            18 H    0.976
    11   8 O    2.066 --     9 C    0.937     5 C    0.928
    12   1 H    1.016 --     1 C    0.987
    13   1 H    1.016 --     1 C    0.981
    14   1 H    1.013 --     1 C    0.981
    15   1 H    1.017 --     6 C    0.986
    16   1 H    1.009 --     6 C    0.987
    17   1 H    1.018 --     6 C    0.986
    18   1 H    1.008 --    10 C    0.976
    19   1 H    1.009 --    10 C    0.987
    20   1 H    1.008 --    10 C    0.976
 ---------------------------------------------------------------------------

           -------------------------------------------------
          | TOTAL ENERGY              -38.329152255346 Eh   |
          | GRADIENT NORM               0.000569355169 Eh/α |
          | HOMO-LUMO GAP               2.029350132583 eV   |
           -------------------------------------------------

 * finished run on 2023/06/20 at 14:53:19.784
