   * xtb version 6.5.1 (579679a) compiled by 'ehlert@majestix' on 2022-07-11
          program call               : /lustre/hpc/kemi/ree/PhD/git/ReactivityQM/dep/xtb-6.5.1/bin/xtb --gfn 1 /lustre/hpc/kemi/ree/PhD/git/ReactivityQM/calculations/R02deprot/reac01prodE03/conf07/R02deprot_reac01prodE03_conf07_gfn1.xyz --opt --vfukui --chrg -2 --uhf 0 --alpb DMSO

   ID    Z sym.   atoms
    1    6 C      1, 3, 5, 6, 8-11, 13, 15, 18, 19, 22, 24
    2    8 O      2, 4, 14, 20, 23, 25
    3    7 N      7, 12, 16, 17, 21
    4    1 H      26-42

      * Solvation model:               ALPB
        Solvent                        DMSO
        Solvent mass                       7.8130E+01 g/mol
          :  Hamiltonian                  GFN1-xTB          :
 * total energy  :   -83.5553151 Eh     change       -0.1044356E-09 Eh
 * total energy  :   -83.5663859 Eh     change       -0.1107077E-01 Eh
 * total energy  :   -83.5706720 Eh     change       -0.4286091E-02 Eh
 * total energy  :   -83.5716329 Eh     change       -0.9609441E-03 Eh
 * total energy  :   -83.5726340 Eh     change       -0.1001055E-02 Eh
 * total energy  :   -83.5734418 Eh     change       -0.8078104E-03 Eh
 * total energy  :   -83.5741647 Eh     change       -0.7229354E-03 Eh
 * total energy  :   -83.5747448 Eh     change       -0.5800439E-03 Eh
 * total energy  :   -83.5751162 Eh     change       -0.3714704E-03 Eh
 * total energy  :   -83.5753496 Eh     change       -0.2334004E-03 Eh
 * total energy  :   -83.5813273 Eh     change       -0.1751999E-04 Eh
 * total energy  :   -83.5813590 Eh     change       -0.3164540E-04 Eh
 * total energy  :   -83.5813705 Eh     change       -0.1156907E-04 Eh
 * total energy  :   -83.5813786 Eh     change       -0.8028850E-05 Eh
 * total energy  :   -83.5813864 Eh     change       -0.7845611E-05 Eh
 * total energy  :   -83.5813919 Eh     change       -0.5537717E-05 Eh
 * total energy  :   -83.5813983 Eh     change       -0.6307896E-05 Eh
 * total energy  :   -83.5814033 Eh     change       -0.5077352E-05 Eh
 * total energy  :   -83.5814058 Eh     change       -0.2460317E-05 Eh
   *** GEOMETRY OPTIMIZATION CONVERGED AFTER 54 ITERATIONS ***

 final structure:
================
42
 xtb: 6.5.1 (579679a)
C           -5.28645235826072        2.41406013359961       -0.50141085207500
O           -4.73986573105364        1.71219210853448        0.60897466768012
C           -3.81214739802024        0.71757183733848        0.29672642971837
O           -4.38501905776674       -0.54215872249365        0.05457580638857
C           -4.37232397465702       -1.44033832469225        1.15668863791522
C           -2.43716543797272        0.90844575674208        0.28239228876823
N           -1.64616242516138       -0.22448029192507        0.10299346970581
C           -0.33914679503589       -0.05722690818961        0.08694367905750
C            0.45957501445769       -1.35251628905140       -0.11897305560388
C            0.03371641330025       -1.99466145666252       -1.44878672709015
C            0.17057847792799       -2.30754268204544        1.05024450450110
N            1.87481323063286       -1.00528051126406       -0.15316715379313
C            2.88423281463268       -1.88864636755340       -0.31236613722552
O            2.72849859107482       -3.11342383924083       -0.46556054068560
C            4.21372085442268       -1.28482395731855       -0.29364967469996
N            5.37591034190765       -1.90090963613719       -0.40899912861281
N            6.34048609218077       -0.93484314726189       -0.32739335893690
C            5.73349210274417        0.19746832875074       -0.16924411348518
C            6.35157262074822        1.53796046252788       -0.03262745989081
O            4.39053801825321        0.06491738309622       -0.13710273530853
N            0.36182615721059        1.05799926019827        0.22280425520572
C           -0.34909581275114        2.23622566404522        0.39415172927927
O            0.23763025755595        3.35482030820805        0.51403419719100
C           -1.76055565106240        2.13896046933694        0.42328214709081
O           -2.46006419836391        3.34576428208986        0.56404442955259
H           -5.78853521902180        1.73035557505025       -1.19822019564303
H           -4.50727710570216        2.96581300284807       -1.04355284218613
H           -6.01884063312748        3.12339519274430       -0.11013576857650
H           -4.90538367990937       -1.02391518874594        2.02183394085097
H           -3.34175048277053       -1.68052477334036        1.45411125580210
H           -4.87454154150216       -2.35673566928982        0.83811073890035
H            0.31195370329455       -1.34876443611007       -2.28207791866482
H           -1.04954336849222       -2.11998045126072       -1.44758473080858
H            0.50495369684513       -2.96775384878541       -1.58376600965786
H            0.53979265232617       -1.87999409224477        1.98257185613441
H            0.64413624271711       -3.27616304008851        0.89300599038777
H           -0.90764847254204       -2.44807454632327        1.13105567042303
H            2.07383617182327       -0.01459501679820       -0.01605451982344
H            6.04464767487312        2.00299185781156        0.90429094170368
H            7.43396363992129        1.44124014242155       -0.04916194654392
H            6.03602399610736        2.18510469024988       -0.85143706134759
H           -1.76437942177868        4.02807074123192        0.60687529440670

          :  Hamiltonian                  GFN1-xTB          :
         :: total energy             -83.581405794975 Eh    ::
         :: gradient norm              0.000291094772 Eh/a0 ::
         :: HOMO-LUMO gap              0.081190983482 eV    ::
         :: SCC energy               -84.303268063754 Eh    ::
         :: -> Gsolv                  -0.263235348908 Eh    ::
         :: repulsion energy           0.747286425855 Eh    ::

    * Orbital Energies and Occupations

         #    Occupation            Energy/Eh            Energy/eV
      -------------------------------------------------------------
         1        2.0000           -0.8206180             -22.3302
       ...           ...                  ...                  ...
        56        2.0000           -0.4281149             -11.6496
        57        2.0000           -0.4204220             -11.4403
        58        2.0000           -0.4184224             -11.3859
        59        2.0000           -0.4172688             -11.3545
        60        2.0000           -0.4127712             -11.2321
        61        2.0000           -0.4055082             -11.0344
        62        2.0000           -0.3948172             -10.7435
        63        2.0000           -0.3883074             -10.5664
        64        2.0000           -0.3786868             -10.3046
        65        2.0000           -0.3530684              -9.6075
        66        2.0000           -0.3285163              -8.9394
        67        2.0000           -0.3239563              -8.8153
        68        1.6557           -0.2736134              -7.4454 (HOMO)
        69        0.3443           -0.2706297              -7.3642 (LUMO)
        70                         -0.2230643              -6.0699
        71                         -0.1788177              -4.8659
        72                         -0.1600641              -4.3556
        73                         -0.1508910              -4.1060
        74                         -0.1282873              -3.4909
        75                         -0.1068877              -2.9086
        76                         -0.1017874              -2.7698
        77                         -0.0901830              -2.4540
        78                         -0.0876377              -2.3847
        79                         -0.0613265              -1.6688
       ...                                ...                  ...
       134                          0.7096719              19.3112
      -------------------------------------------------------------
                  HL-Gap            0.0029837 Eh            0.0812 eV

Wiberg/Mayer (AO) data.
largest (>0.10) Wiberg bond orders for each atom

     #   Z sym  total        # sym  WBO       # sym  WBO       # sym  WBO
 ---------------------------------------------------------------------------
     1   6 C    3.917 --    28 H    0.986    26 H    0.983    27 H    0.980
                             2 O    0.938
     2   8 O    1.997 --     3 C    0.939     1 C    0.938
     3   6 C    3.494 --     6 C    1.401     2 O    0.939     4 O    0.926
     4   8 O    1.989 --     5 C    0.941     3 C    0.926
     5   6 C    3.918 --    31 H    0.986    29 H    0.982    30 H    0.978
                             4 O    0.941
     6   6 C    3.967 --     3 C    1.401    24 C    1.256     7 N    1.129
     7   7 N    2.947 --     8 C    1.452     6 C    1.129    21 N    0.122
     8   6 C    3.959 --     7 N    1.452    21 N    1.404     9 C    0.958
     9   6 C    3.931 --    10 C    0.986    11 C    0.985     8 C    0.958
                            12 N    0.932
    10   6 C    3.993 --    32 H    0.987     9 C    0.986    33 H    0.985
                            34 H    0.984
    11   6 C    3.993 --    35 H    0.987     9 C    0.985    36 H    0.984
                            37 H    0.984
    12   7 N    3.296 --    13 C    1.239     9 C    0.932    38 H    0.878
                            14 O    0.156
    13   6 C    3.838 --    14 O    1.469    12 N    1.239    15 C    1.059
    14   8 O    1.749 --    13 C    1.469    12 N    0.156
    15   6 C    3.734 --    16 N    1.496    13 C    1.059    20 O    1.002
    16   7 N    2.829 --    15 C    1.496    17 N    1.188
    17   7 N    2.979 --    18 C    1.624    16 N    1.188
    18   6 C    3.835 --    17 N    1.624    20 O    1.057    19 C    1.026
    19   6 C    3.992 --    18 C    1.026    40 H    0.985    39 H    0.969
                            41 H    0.968
    20   8 O    2.232 --    18 C    1.057    15 C    1.002
    21   7 N    2.944 --     8 C    1.404    22 C    1.138     7 N    0.122
    22   6 C    3.911 --    23 O    1.380    24 C    1.259    21 N    1.138
    23   8 O    1.683 --    22 C    1.380
    24   6 C    3.720 --    22 C    1.259     6 C    1.256    25 O    0.967
    25   8 O    1.929 --    24 C    0.967    42 H    0.849
    26   1 H    1.020 --     1 C    0.983
    27   1 H    1.033 --     1 C    0.980
    28   1 H    1.023 --     1 C    0.986
    29   1 H    1.019 --     5 C    0.982
    30   1 H    1.038 --     5 C    0.978
    31   1 H    1.022 --     5 C    0.986
    32   1 H    1.010 --    10 C    0.987
    33   1 H    1.024 --    10 C    0.985
    34   1 H    1.018 --    10 C    0.984
    35   1 H    1.009 --    11 C    0.987
    36   1 H    1.017 --    11 C    0.984
    37   1 H    1.025 --    11 C    0.984
    38   1 H    0.988 --    12 N    0.878
    39   1 H    0.999 --    19 C    0.969
    40   1 H    1.003 --    19 C    0.985
    41   1 H    0.999 --    19 C    0.968
    42   1 H    0.906 --    25 O    0.849
 ---------------------------------------------------------------------------

           -------------------------------------------------
          | TOTAL ENERGY              -83.581405794975 Eh   |
          | GRADIENT NORM               0.000291094772 Eh/α |
          | HOMO-LUMO GAP               0.081190983482 eV   |
           -------------------------------------------------

 * finished run on 2023/06/20 at 17:35:01.758
