                         Program Version 5.0.1 -  RELEASE  -
|  1> # ORCA input file
|  2> ! SP r2SCAN-3c CPCM
|  3>
|  4> %maxcore 1875.0
|  5> %pal nprocs 4 end
|  6> %cpcm smd true SMDsolvent "DMSO" end
|  7>
|  8> *xyz -2 1
|  9> C      -6.889654   -0.174112    0.830802
| 10> O      -5.691238   -0.171538    0.064675
| 11> C      -4.565711    0.173748    0.722623
| 12> O      -4.588454    0.464377    1.904857
| 13> C      -3.351836    0.157498   -0.120138
| 14> N      -2.199240    0.486777    0.537125
| 15> C      -1.070639    0.496928   -0.148410
| 16> C       0.194315    0.826688    0.651356
| 17> C       0.512197   -0.438299    1.482400
| 18> C      -0.106625    2.004975    1.594304
| 19> N       1.246428    1.218430   -0.285822
| 20> C       2.676244    1.167740    0.211064
| 21> C       3.456508    2.119743   -0.776992
| 22> O       2.861753    1.447388    1.467583
| 23> C       3.198174   -0.268626   -0.201951
| 24> N       2.560253   -1.208032   -0.828955
| 25> N       3.440632   -2.261651   -0.990748
| 26> C       4.551628   -1.884847   -0.454456
| 27> C       5.816160   -2.656423   -0.367518
| 28> O       4.474814   -0.641621    0.058084
| 29> N      -0.927788    0.196167   -1.441193
| 30> C      -2.019203   -0.136577   -2.159675
| 31> O      -2.002699   -0.429373   -3.378103
| 32> C      -3.302020   -0.151728   -1.455816
| 33> O      -4.368781   -0.490308   -2.224323
| 34> H      -7.690369   -0.495906    0.167642
| 35> H      -6.805468   -0.865201    1.674752
| 36> H      -7.103939    0.828132    1.213460
| 37> H       0.719095   -1.281922    0.823280
| 38> H       1.372511   -0.272715    2.130595
| 39> H      -0.352745   -0.682602    2.100754
| 40> H      -0.965026    1.772876    2.225899
| 41> H       0.755617    2.213879    2.227281
| 42> H      -0.333286    2.895504    1.005925
| 43> H       1.176261    0.632698   -1.122752
| 44> H       3.086547    3.133892   -0.635289
| 45> H       4.515585    2.087057   -0.528615
| 46> H       3.315172    1.823037   -1.815147
| 47> H       6.145568   -2.729263    0.668263
| 48> H       6.602086   -2.161283   -0.937419
| 49> H       5.660031   -3.654988   -0.767804
| 50> H      -4.002857   -0.648956   -3.121596
| 51> **                         ****END OF INPUT****

CARTESIAN COORDINATES (ANGSTROEM)
---------------------------------
  C     -6.889654   -0.174112    0.830802
  O     -5.691238   -0.171538    0.064675
  C     -4.565711    0.173748    0.722623
  O     -4.588454    0.464377    1.904857
  C     -3.351836    0.157498   -0.120138
  N     -2.199240    0.486777    0.537125
  C     -1.070639    0.496928   -0.148410
  C      0.194315    0.826688    0.651356
  C      0.512197   -0.438299    1.482400
  C     -0.106625    2.004975    1.594304
  N      1.246428    1.218430   -0.285822
  C      2.676244    1.167740    0.211064
  C      3.456508    2.119743   -0.776992
  O      2.861753    1.447388    1.467583
  C      3.198174   -0.268626   -0.201951
  N      2.560253   -1.208032   -0.828955
  N      3.440632   -2.261651   -0.990748
  C      4.551628   -1.884847   -0.454456
  C      5.816160   -2.656423   -0.367518
  O      4.474814   -0.641621    0.058084
  N     -0.927788    0.196167   -1.441193
  C     -2.019203   -0.136577   -2.159675
  O     -2.002699   -0.429373   -3.378103
  C     -3.302020   -0.151728   -1.455816
  O     -4.368781   -0.490308   -2.224323
  H     -7.690369   -0.495906    0.167642
  H     -6.805468   -0.865201    1.674752
  H     -7.103939    0.828132    1.213460
  H      0.719095   -1.281922    0.823280
  H      1.372511   -0.272715    2.130595
  H     -0.352745   -0.682602    2.100754
  H     -0.965026    1.772876    2.225899
  H      0.755617    2.213879    2.227281
  H     -0.333286    2.895504    1.005925
  H      1.176261    0.632698   -1.122752
  H      3.086547    3.133892   -0.635289
  H      4.515585    2.087057   -0.528615
  H      3.315172    1.823037   -1.815147
  H      6.145568   -2.729263    0.668263
  H      6.602086   -2.161283   -0.937419
  H      5.660031   -3.654988   -0.767804
  H     -4.002857   -0.648956   -3.121596

 Total Charge           Charge          ....   -2
 Multiplicity           Mult            ....    1
 Number of Electrons    NEL             ....  186
 Basis Dimension        Dim             ....  615

ORBITAL ENERGIES
----------------

  NO   OCC          E(Eh)            E(eV)
   0   2.0000     -19.024747      -517.6897
   1   2.0000     -18.983925      -516.5789
   2   2.0000     -18.966363      -516.1010
   3   2.0000     -18.920676      -514.8578
   4   2.0000     -18.887464      -513.9540
   5   2.0000     -18.809018      -511.8194
   6   2.0000     -14.166627      -385.4935
   7   2.0000     -14.158927      -385.2840
   8   2.0000     -14.120145      -384.2287
   9   2.0000     -14.118814      -384.1925
  10   2.0000     -14.097963      -383.6251
  11   2.0000     -10.142835      -276.0006
  12   2.0000     -10.113577      -275.2044
  13   2.0000     -10.090904      -274.5874
  14   2.0000     -10.089553      -274.5507
  15   2.0000     -10.079386      -274.2740
  16   2.0000     -10.075495      -274.1682
  17   2.0000     -10.067106      -273.9399
  18   2.0000     -10.065909      -273.9073
  19   2.0000     -10.057255      -273.6718
  20   2.0000     -10.042751      -273.2772
  21   2.0000     -10.032375      -272.9948
  22   2.0000      -9.986769      -271.7538
  23   2.0000      -9.985411      -271.7168
  24   2.0000      -9.985191      -271.7109
  25   2.0000      -1.111444       -30.2439
  26   2.0000      -1.057219       -28.7684
  27   2.0000      -1.015546       -27.6344
  28   2.0000      -0.964293       -26.2397
  29   2.0000      -0.953684       -25.9511
  30   2.0000      -0.931999       -25.3610
  31   2.0000      -0.907029       -24.6815
  32   2.0000      -0.888792       -24.1853
  33   2.0000      -0.817209       -22.2374
  34   2.0000      -0.802705       -21.8427
  35   2.0000      -0.792097       -21.5541
  36   2.0000      -0.732258       -19.9258
  37   2.0000      -0.699991       -19.0477
  38   2.0000      -0.685735       -18.6598
  39   2.0000      -0.673390       -18.3239
  40   2.0000      -0.647595       -17.6220
  41   2.0000      -0.625063       -17.0088
  42   2.0000      -0.601845       -16.3770
  43   2.0000      -0.600897       -16.3512
  44   2.0000      -0.588619       -16.0171
  45   2.0000      -0.556872       -15.1532
  46   2.0000      -0.521643       -14.1946
  47   2.0000      -0.520035       -14.1509
  48   2.0000      -0.501768       -13.6538
  49   2.0000      -0.486419       -13.2361
  50   2.0000      -0.470815       -12.8115
  51   2.0000      -0.456066       -12.4102
  52   2.0000      -0.453984       -12.3535
  53   2.0000      -0.445679       -12.1275
  54   2.0000      -0.437829       -11.9139
  55   2.0000      -0.425069       -11.5667
  56   2.0000      -0.417309       -11.3556
  57   2.0000      -0.401701       -10.9308
  58   2.0000      -0.394384       -10.7317
  59   2.0000      -0.385185       -10.4814
  60   2.0000      -0.380695       -10.3592
  61   2.0000      -0.376292       -10.2394
  62   2.0000      -0.374020       -10.1776
  63   2.0000      -0.365917        -9.9571
  64   2.0000      -0.364790        -9.9264
  65   2.0000      -0.361312        -9.8318
  66   2.0000      -0.352997        -9.6055
  67   2.0000      -0.352129        -9.5819
  68   2.0000      -0.341096        -9.2817
  69   2.0000      -0.336850        -9.1662
  70   2.0000      -0.328173        -8.9300
  71   2.0000      -0.321194        -8.7401
  72   2.0000      -0.316235        -8.6052
  73   2.0000      -0.306225        -8.3328
  74   2.0000      -0.302638        -8.2352
  75   2.0000      -0.301962        -8.2168
  76   2.0000      -0.298338        -8.1182
  77   2.0000      -0.292235        -7.9521
  78   2.0000      -0.287919        -7.8347
  79   2.0000      -0.282397        -7.6844
  80   2.0000      -0.276478        -7.5233
  81   2.0000      -0.260857        -7.0983
  82   2.0000      -0.249333        -6.7847
  83   2.0000      -0.237962        -6.4753
  84   2.0000      -0.234680        -6.3860
  85   2.0000      -0.229009        -6.2317
  86   2.0000      -0.225838        -6.1454
  87   2.0000      -0.202251        -5.5035
  88   2.0000      -0.191623        -5.2143
  89   2.0000      -0.176005        -4.7894
  90   2.0000      -0.165745        -4.5101
  91   2.0000      -0.140154        -3.8138
  92   2.0000      -0.130357        -3.5472
  93   0.0000      -0.057282        -1.5587
  94   0.0000      -0.010725        -0.2918
  95   0.0000       0.001717         0.0467
  96   0.0000       0.022007         0.5988
  97   0.0000       0.050918         1.3856

MULLIKEN ATOMIC CHARGES
-----------------------
   0 C :   -0.320441
   1 O :   -0.159209
   2 C :    0.078236
   3 O :   -0.406700
   4 C :    0.130286
   5 N :   -0.260808
   6 C :    0.302942
   7 C :    0.282443
   8 C :   -0.794470
   9 C :   -0.731840
  10 N :   -0.338575
  11 C :   -0.121170
  12 C :   -0.643562
  13 O :   -0.555174
  14 C :    0.249845
  15 N :   -0.127662
  16 N :   -0.415590
  17 C :    0.376057
  18 C :   -0.654826
  19 O :   -0.061139
  20 N :   -0.217231
  21 C :   -0.040505
  22 O :   -0.478553
  23 C :    0.018840
  24 O :   -0.363242
  25 H :    0.170042
  26 H :    0.169328
  27 H :    0.169166
  28 H :    0.181097
  29 H :    0.202142
  30 H :    0.162467
  31 H :    0.162740
  32 H :    0.194013
  33 H :    0.160769
  34 H :    0.287173
  35 H :    0.163515
  36 H :    0.158253
  37 H :    0.156694
  38 H :    0.188299
  39 H :    0.190422
  40 H :    0.195655
  41 H :    0.340269
Sum of atomic charges:   -2.0000000

LOEWDIN ATOMIC CHARGES
----------------------
   0 C :   -0.046308
   1 O :   -0.589774
   2 C :    0.399688
   3 O :   -0.438366
   4 C :    0.167192
   5 N :   -0.638874
   6 C :    0.307268
   7 C :    0.086674
   8 C :   -0.382825
   9 C :   -0.383832
  10 N :   -0.751900
  11 C :    0.240523
  12 C :   -0.397798
  13 O :   -0.771804
  14 C :    0.396492
  15 N :   -0.437560
  16 N :   -0.412116
  17 C :    0.340810
  18 C :   -0.329812
  19 O :   -0.395065
  20 N :   -0.582325
  21 C :    0.299922
  22 O :   -0.573056
  23 C :    0.249581
  24 O :   -0.486378
  25 H :    0.181314
  26 H :    0.178369
  27 H :    0.177763
  28 H :    0.170276
  29 H :    0.175979
  30 H :    0.155752
  31 H :    0.160168
  32 H :    0.172847
  33 H :    0.157974
  34 H :    0.280280
  35 H :    0.156624
  36 H :    0.154353
  37 H :    0.152083
  38 H :    0.182605
  39 H :    0.183337
  40 H :    0.184425
  41 H :    0.305492

  Mayer bond orders larger than 0.100000
B(  0-C ,  1-O ) :   0.8426 B(  0-C , 25-H ) :   0.9668 B(  0-C , 26-H ) :   0.9586
B(  0-C , 27-H ) :   0.9577 B(  1-O ,  2-C ) :   1.1414 B(  2-C ,  3-O ) :   1.9301
B(  2-C ,  4-C ) :   1.0317 B(  2-C ,  5-N ) :   0.1484 B(  4-C ,  5-N ) :   1.0027
B(  4-C , 23-C ) :   1.3098 B(  5-N ,  6-C ) :   1.4537 B(  6-C ,  7-C ) :   0.8442
B(  6-C , 10-N ) :  -0.1259 B(  6-C , 20-N ) :   1.3254 B(  7-C ,  8-C ) :   0.7501
B(  7-C ,  9-C ) :   0.9048 B(  7-C , 10-N ) :   1.0114 B(  8-C , 28-H ) :   0.9757
B(  8-C , 29-H ) :   0.9683 B(  8-C , 30-H ) :   0.9688 B(  9-C , 31-H ) :   0.9809
B(  9-C , 32-H ) :   0.9759 B(  9-C , 33-H ) :   0.9867 B( 10-N , 11-C ) :   0.7394
B( 10-N , 34-H ) :   0.8566 B( 11-C , 12-C ) :   0.9400 B( 11-C , 13-O ) :   1.7606
B( 11-C , 14-C ) :   0.5931 B( 12-C , 35-H ) :   0.9823 B( 12-C , 36-H ) :   0.9912
B( 12-C , 37-H ) :   0.9830 B( 14-C , 15-N ) :   1.7142 B( 14-C , 17-C ) :   0.1093
B( 14-C , 19-O ) :   1.1130 B( 15-N , 16-N ) :   1.2376 B( 16-N , 17-C ) :   1.6992
B( 17-C , 18-C ) :   0.8071 B( 17-C , 19-O ) :   1.0572 B( 18-C , 38-H ) :   0.9546
B( 18-C , 39-H ) :   0.9491 B( 18-C , 40-H ) :   0.9993 B( 20-N , 21-C ) :   1.3367
B( 21-C , 22-O ) :   1.9740 B( 21-C , 23-C ) :   0.9257 B( 22-O , 23-C ) :  -0.1075
B( 23-C , 24-O ) :   1.0961 B( 24-O , 41-H ) :   0.8076

Dispersion correction           -0.019440027
FINAL SINGLE POINT ENERGY     -1268.861956032674

DIPOLE MOMENT
-------------
                                X             Y             Z
Electronic contribution:    -11.14882      -4.69226      -8.10538
Nuclear contribution   :      9.99209       2.50266       8.26358
                        -----------------------------------------
Total Dipole Moment    :     -1.15673      -2.18960       0.15820
                        -----------------------------------------
Magnitude (a.u.)       :      2.48141
Magnitude (Debye)      :      6.30725

Rotational constants in cm-1:     0.015578     0.003459     0.003205
Rotational constants in MHz :   467.004247   103.711969    96.072191

                             ****ORCA TERMINATED NORMALLY****
TOTAL RUN TIME: 0 days 0 hours 2 minutes 14 seconds 309 msec
