   * xtb version 6.5.1 (579679a) compiled by 'ehlert@majestix' on 2022-07-11
          program call               : /lustre/hpc/kemi/ree/PhD/git/ReactivityQM/dep/xtb-6.5.1/bin/xtb --gfn 1 /lustre/hpc/kemi/ree/PhD/git/ReactivityQM/calculations/R02deprot/reac01prodE01/conf14/R02deprot_reac01prodE01_conf14_gfn1.xyz --opt --vfukui --chrg -2 --uhf 0 --alpb DMSO

   ID    Z sym.   atoms
    1    6 C      1, 3, 5, 7-10, 12, 13, 15, 18, 19, 22, 24
    2    8 O      2, 4, 14, 20, 23, 25
    3    7 N      6, 11, 16, 17, 21
    4    1 H      26-42

      * Solvation model:               ALPB
        Solvent                        DMSO
        Solvent mass                       7.8130E+01 g/mol
          :  Hamiltonian                  GFN1-xTB          :
 * total energy  :   -83.6122193 Eh     change       -0.3096545E-10 Eh
 * total energy  :   -83.6261479 Eh     change       -0.1392861E-01 Eh
 * total energy  :   -83.6309373 Eh     change       -0.4789392E-02 Eh
 * total energy  :   -83.6319734 Eh     change       -0.1036086E-02 Eh
 * total energy  :   -83.6325146 Eh     change       -0.5412207E-03 Eh
 * total energy  :   -83.6327519 Eh     change       -0.2372939E-03 Eh
 * total energy  :   -83.6329694 Eh     change       -0.2174814E-03 Eh
 * total energy  :   -83.6331602 Eh     change       -0.1907823E-03 Eh
 * total energy  :   -83.6333166 Eh     change       -0.1564138E-03 Eh
 * total energy  :   -83.6334637 Eh     change       -0.1470918E-03 Eh
 * total energy  :   -83.6359946 Eh     change       -0.2342967E-04 Eh
 * total energy  :   -83.6360270 Eh     change       -0.3239493E-04 Eh
 * total energy  :   -83.6360533 Eh     change       -0.2623106E-04 Eh
 * total energy  :   -83.6360743 Eh     change       -0.2106099E-04 Eh
 * total energy  :   -83.6360859 Eh     change       -0.1159105E-04 Eh
 * total energy  :   -83.6360983 Eh     change       -0.1243248E-04 Eh
 * total energy  :   -83.6361078 Eh     change       -0.9414316E-05 Eh
 * total energy  :   -83.6361247 Eh     change       -0.1698334E-04 Eh
 * total energy  :   -83.6361294 Eh     change       -0.4703589E-05 Eh
   *** GEOMETRY OPTIMIZATION CONVERGED AFTER 72 ITERATIONS ***

 final structure:
================
42
 xtb: 6.5.1 (579679a)
C           -6.88965409914695       -0.17411208540824        0.83080183740241
O           -5.69123802055365       -0.17153827979433        0.06467500438038
C           -4.56571070702936        0.17374770505051        0.72262308819648
O           -4.58845401910543        0.46437684574883        1.90485678876452
C           -3.35183568307513        0.15749754605931       -0.12013768629629
N           -2.19924015075387        0.48677671603247        0.53712471686130
C           -1.07063915693928        0.49692789543827       -0.14841002654740
C            0.19431461092098        0.82668761989994        0.65135581881857
C            0.51219671396693       -0.43829929162540        1.48239955188872
C           -0.10662501872678        2.00497547535135        1.59430421431064
N            1.24642810222698        1.21842981110777       -0.28582151227189
C            2.67624437060959        1.16774003374514        0.21106354748208
C            3.45650787024987        2.11974325391678       -0.77699214283192
O            2.86175293220877        1.44738834405326        1.46758299648539
C            3.19817402342917       -0.26862583461168       -0.20195066801730
N            2.56025284021038       -1.20803178383450       -0.82895537436975
N            3.44063249373869       -2.26165131301940       -0.99074802288436
C            4.55162833189793       -1.88484654525735       -0.45445560223419
C            5.81616044265479       -2.65642303902705       -0.36751750125723
O            4.47481354475697       -0.64162128389502        0.05808352342022
N           -0.92778821553069        0.19616741483105       -1.44119344018650
C           -2.01920295130515       -0.13657673966466       -2.15967531469799
O           -2.00269945382601       -0.42937334155377       -3.37810260863322
C           -3.30201967232750       -0.15172791665288       -1.45581638511524
O           -4.36878083589550       -0.49030830499348       -2.22432258590042
H           -7.69036903668764       -0.49590560033891        0.16764165483203
H           -6.80546808537129       -0.86520086962322        1.67475195374660
H           -7.10393865008872        0.82813165162215        1.21346001320505
H            0.71909530686720       -1.28192229239012        0.82327974414820
H            1.37251147179514       -0.27271475687294        2.13059478888911
H           -0.35274466300206       -0.68260227273857        2.10075353295039
H           -0.96502627681407        1.77287566208589        2.22589879196995
H            0.75561676670480        2.21387878641786        2.22728119721491
H           -0.33328579573429        2.89550376212607        1.00592460091522
H            1.17626084479268        0.63269833730027       -1.12275224589788
H            3.08654659505255        3.13389226156998       -0.63528926323017
H            4.51558469318900        2.08705684144528       -0.52861520307886
H            3.31517180733899        1.82303730789290       -1.81514732647564
H            6.14556846054030       -2.72926330890604        0.66826340483380
H            6.60208602888290       -2.16128303877598       -0.93741934129960
H            5.66003083826806       -3.65498785123102       -0.76780381629556
H           -4.00285659840710       -0.64895552146633       -3.12159570319708

          :  Hamiltonian                  GFN1-xTB          :
         :: total energy             -83.636129447912 Eh    ::
         :: gradient norm              0.000904135480 Eh/a0 ::
         :: HOMO-LUMO gap              1.692798285986 eV    ::
         :: SCC energy               -84.361915821385 Eh    ::
         :: -> Gsolv                  -0.275810868703 Eh    ::
         :: repulsion energy           0.752063825713 Eh    ::

    * Orbital Energies and Occupations

         #    Occupation            Energy/Eh            Energy/eV
      -------------------------------------------------------------
         1        2.0000           -0.8128468             -22.1187
       ...           ...                  ...                  ...
        56        2.0000           -0.4368509             -11.8873
        57        2.0000           -0.4305734             -11.7165
        58        2.0000           -0.4295001             -11.6873
        59        2.0000           -0.4192402             -11.4081
        60        2.0000           -0.4082258             -11.1084
        61        2.0000           -0.4046741             -11.0117
        62        2.0000           -0.4022318             -10.9453
        63        2.0000           -0.3851430             -10.4803
        64        2.0000           -0.3592157              -9.7748
        65        2.0000           -0.3571214              -9.7178
        66        2.0000           -0.3538247              -9.6281
        67        2.0000           -0.3336998              -9.0804
        68        2.0000           -0.3299863              -8.9794 (HOMO)
        69                         -0.2677771              -7.2866 (LUMO)
        70                         -0.2210011              -6.0137
        71                         -0.2108681              -5.7380
        72                         -0.2047251              -5.5709
        73                         -0.1791919              -4.8761
        74                         -0.1270757              -3.4579
        75                         -0.1261421              -3.4325
        76                         -0.0915362              -2.4908
        77                         -0.0795097              -2.1636
        78                         -0.0778898              -2.1195
        79                         -0.0759500              -2.0667
       ...                                ...                  ...
       134                          0.7437424              20.2383
      -------------------------------------------------------------
                  HL-Gap            0.0622092 Eh            1.6928 eV

Wiberg/Mayer (AO) data.
largest (>0.10) Wiberg bond orders for each atom

     #   Z sym  total        # sym  WBO       # sym  WBO       # sym  WBO
 ---------------------------------------------------------------------------
     1   6 C    3.892 --    26 H    0.987    28 H    0.980    27 H    0.980
                             2 O    0.917
     2   8 O    2.176 --     3 C    1.072     1 C    0.917     4 O    0.120
     3   6 C    3.833 --     4 O    1.627     2 O    1.072     5 C    1.034
     4   8 O    1.890 --     3 C    1.627     2 O    0.120
     5   6 C    3.965 --    24 C    1.468     6 N    1.212     3 C    1.034
     6   7 N    2.993 --     7 C    1.451     5 C    1.212
     7   6 C    3.945 --     6 N    1.451    21 N    1.359     8 C    0.971
     8   6 C    3.969 --    10 C    0.990    11 N    0.980     7 C    0.971
                             9 C    0.970
     9   6 C    3.996 --    31 H    0.987    29 H    0.984    30 H    0.980
                             8 C    0.970
    10   6 C    3.996 --     8 C    0.990    34 H    0.988    32 H    0.987
                            33 H    0.981
    11   7 N    2.994 --     8 C    0.980    35 H    0.939    12 C    0.885
    12   6 C    3.940 --    14 O    1.215    13 C    0.918    11 N    0.885
                            15 C    0.866
    13   6 C    3.990 --    38 H    0.991    37 H    0.989    36 H    0.986
                            12 C    0.918
    14   8 O    1.527 --    12 C    1.215
    15   6 C    3.793 --    16 N    1.647    20 O    1.047    12 C    0.866
    16   7 N    2.984 --    15 C    1.647    17 N    1.145
    17   7 N    2.976 --    18 C    1.656    16 N    1.145
    18   6 C    3.890 --    17 N    1.656    20 O    1.067    19 C    1.023
    19   6 C    3.993 --    18 C    1.023    41 H    0.985    39 H    0.972
                            40 H    0.970
    20   8 O    2.295 --    18 C    1.067    15 C    1.047
    21   7 N    3.000 --     7 C    1.359    22 C    1.269    23 O    0.125
    22   6 C    3.933 --    23 O    1.443    21 N    1.269    24 C    1.083
    23   8 O    1.782 --    22 C    1.443    21 N    0.125
    24   6 C    3.903 --     5 C    1.468    22 C    1.083    25 O    1.057
    25   8 O    2.034 --    24 C    1.057    42 H    0.819
    26   1 H    1.014 --     1 C    0.987
    27   1 H    1.012 --     1 C    0.980
    28   1 H    1.012 --     1 C    0.980
    29   1 H    1.025 --     9 C    0.984
    30   1 H    1.032 --     9 C    0.980
    31   1 H    1.016 --     9 C    0.987
    32   1 H    1.024 --    10 C    0.987
    33   1 H    1.036 --    10 C    0.981
    34   1 H    1.018 --    10 C    0.988
    35   1 H    1.013 --    11 N    0.939
    36   1 H    1.022 --    13 C    0.986
    37   1 H    1.019 --    13 C    0.989
    38   1 H    1.011 --    13 C    0.991
    39   1 H    1.002 --    19 C    0.972
    40   1 H    1.002 --    19 C    0.970
    41   1 H    1.003 --    19 C    0.985
    42   1 H    0.883 --    25 O    0.819
 ---------------------------------------------------------------------------

           -------------------------------------------------
          | TOTAL ENERGY              -83.636129447912 Eh   |
          | GRADIENT NORM               0.000904135480 Eh/α |
          | HOMO-LUMO GAP               1.692798285986 eV   |
           -------------------------------------------------

 * finished run on 2023/06/20 at 17:32:31.612
