   * xtb version 6.5.1 (579679a) compiled by 'ehlert@majestix' on 2022-07-11
          program call               : /lustre/hpc/kemi/ree/PhD/git/ReactivityQM/dep/xtb-6.5.1/bin/xtb --gfn 1 /lustre/hpc/kemi/ree/PhD/git/ReactivityQM/calculations/RaltegravirCLI/reac01prodE02/conf09/RaltegravirCLI_reac01prodE02_conf09_gfn1.xyz --opt --vfukui --chrg -1 --uhf 0 --alpb DMSO

   ID    Z sym.   atoms
    1    6 C      1-3, 6, 7
    2    7 N      4, 5
    3    8 O      8, 10
    4   17 Cl     9
    5    1 H      11-16

      * Solvation model:               ALPB
        Solvent                        DMSO
        Solvent mass                       7.8130E+01 g/mol
          :  Hamiltonian                  GFN1-xTB          :
 * total energy  :   -34.1646656 Eh     change       -0.1865175E-10 Eh
 * total energy  :   -34.1688128 Eh     change       -0.4147216E-02 Eh
 * total energy  :   -34.1708908 Eh     change       -0.2078000E-02 Eh
 * total energy  :   -34.1712403 Eh     change       -0.3494358E-03 Eh
 * total energy  :   -34.1714497 Eh     change       -0.2093721E-03 Eh
 * total energy  :   -34.1714807 Eh     change       -0.3107303E-04 Eh
 * total energy  :   -34.1714878 Eh     change       -0.7089493E-05 Eh
 * total energy  :   -34.1714900 Eh     change       -0.2223554E-05 Eh
   *** GEOMETRY OPTIMIZATION CONVERGED AFTER 8 ITERATIONS ***

 final structure:
================
16
 xtb: 6.5.1 (579679a)
C           -1.30217584576190        1.11633419023416        1.27968908894841
C           -0.62874957496911        0.09449679761768        0.35458953800160
C           -1.60048436088721       -1.02195804609131       -0.04855933677742
N           -0.13823726814775        0.77842409373422       -0.85552449827257
N            1.12928374158029        0.63801285902134       -0.91247937128827
C            1.58572754666013       -0.07545295383764        0.13291731691859
C            2.88611181907605       -0.43544858306518        0.41310625777471
O            3.38480308186249       -1.07933748517868        1.32056744633067
Cl           4.03513713011751        0.21732914368351       -0.88344384872488
O            0.52479251594623       -0.45115217313036        0.97315749853985
H           -0.58613012659851        1.89294071854388        1.54344892402306
H           -2.14947950593145        1.56967540375245        0.76995516687428
H           -1.64744931756682        0.62729469630154        2.18848435828321
H           -2.44866530620695       -0.59596196216266       -0.57995494827114
H           -1.95552115198617       -1.54628344239609        0.83650055725109
H           -1.08896337718689       -1.72891325702692       -0.69976014961114

          :  Hamiltonian                  GFN1-xTB          :
         :: total energy             -34.171490043709 Eh    ::
         :: gradient norm              0.000818070715 Eh/a0 ::
         :: HOMO-LUMO gap              2.086063675825 eV    ::
         :: SCC energy               -34.430218548055 Eh    ::
         :: -> Gsolv                  -0.086999397327 Eh    ::
         :: repulsion energy           0.266294868191 Eh    ::

    * Orbital Energies and Occupations

         #    Occupation            Energy/Eh            Energy/eV
      -------------------------------------------------------------
         1        2.0000           -0.8705198             -23.6881
       ...           ...                  ...                  ...
        16        2.0000           -0.5165848             -14.0570
        17        2.0000           -0.5017753             -13.6540
        18        2.0000           -0.4945182             -13.4565
        19        2.0000           -0.4922030             -13.3935
        20        2.0000           -0.4830971             -13.1457
        21        2.0000           -0.4614138             -12.5557
        22        2.0000           -0.4567367             -12.4284
        23        2.0000           -0.4520439             -12.3007
        24        2.0000           -0.4486363             -12.2080
        25        2.0000           -0.4378084             -11.9134
        26        2.0000           -0.4280390             -11.6475
        27        2.0000           -0.3890620             -10.5869
        28        2.0000           -0.3415433              -9.2939 (HOMO)
        29                         -0.2648818              -7.2078 (LUMO)
        30                         -0.1781784              -4.8485
        31                         -0.1490864              -4.0568
        32                         -0.1103438              -3.0026
        33                         -0.1047565              -2.8506
        34                         -0.0633887              -1.7249
        35                         -0.0522146              -1.4208
        36                         -0.0341740              -0.9299
        37                         -0.0318702              -0.8672
        38                         -0.0020942              -0.0570
        39                         -0.0017427              -0.0474
       ...                                ...                  ...
        57                          0.7661547              20.8481
      -------------------------------------------------------------
                  HL-Gap            0.0766614 Eh            2.0861 eV

Wiberg/Mayer (AO) data.
largest (>0.10) Wiberg bond orders for each atom

     #   Z sym  total        # sym  WBO       # sym  WBO       # sym  WBO
 ---------------------------------------------------------------------------
     1   6 C    3.995 --    12 H    0.987    13 H    0.986    11 H    0.985
                             2 C    0.979
     2   6 C    3.898 --     3 C    0.979     1 C    0.979     4 N    0.972
                            10 O    0.927
     3   6 C    3.995 --    14 H    0.987    15 H    0.986    16 H    0.985
                             2 C    0.979
     4   7 N    2.947 --     5 N    1.585     2 C    0.972     7 C    0.118
                             6 C    0.116
     5   7 N    3.027 --     4 N    1.585     6 C    1.294
     6   6 C    3.856 --     7 C    1.357     5 N    1.294    10 O    0.936
                             4 N    0.116     8 O    0.109
     7   6 C    3.899 --     8 O    1.594     6 C    1.357     9 Cl   0.758
                             4 N    0.118
     8   8 O    1.949 --     7 C    1.594     9 Cl   0.116     6 C    0.109
     9  17 Cl   0.927 --     7 C    0.758     8 O    0.116
    10   8 O    2.057 --     6 C    0.936     2 C    0.927
    11   1 H    1.011 --     1 C    0.985
    12   1 H    1.008 --     1 C    0.987
    13   1 H    1.006 --     1 C    0.986
    14   1 H    1.008 --     3 C    0.987
    15   1 H    1.006 --     3 C    0.986
    16   1 H    1.011 --     3 C    0.985
 ---------------------------------------------------------------------------

           -------------------------------------------------
          | TOTAL ENERGY              -34.171490043709 Eh   |
          | GRADIENT NORM               0.000818070715 Eh/α |
          | HOMO-LUMO GAP               2.086063675825 eV   |
           -------------------------------------------------

 * finished run on 2023/06/20 at 14:52:31.129
