   * xtb version 6.5.1 (579679a) compiled by 'ehlert@majestix' on 2022-07-11
          program call               : /lustre/hpc/kemi/ree/PhD/git/ReactivityQM/dep/xtb-6.5.1/bin/xtb --gfn 1 /lustre/hpc/kemi/ree/PhD/git/ReactivityQM/calculations/R01/reac02prodN04/conf07/R01_reac02prodN04_conf07_gfn1.xyz --opt --vfukui --chrg 1 --uhf 0 --alpb DMSO

   ID    Z sym.   atoms
    1    6 C      1, 3, 5, 6, 8, 11-14, 17
    2    8 O      2, 4, 7, 9
    3    7 N      10, 15, 16
    4    1 H      18-33

      * Solvation model:               ALPB
        Solvent                        DMSO
        Solvent mass                       7.8130E+01 g/mol
          :  Hamiltonian                  GFN1-xTB          :
 * total energy  :   -57.8324123 Eh     change       -0.2012257E-10 Eh
 * total energy  :   -57.8482763 Eh     change       -0.1586399E-01 Eh
 * total energy  :   -57.8533733 Eh     change       -0.5096975E-02 Eh
 * total energy  :   -57.8542403 Eh     change       -0.8670110E-03 Eh
 * total energy  :   -57.8545594 Eh     change       -0.3191208E-03 Eh
 * total energy  :   -57.8547289 Eh     change       -0.1694915E-03 Eh
 * total energy  :   -57.8550314 Eh     change       -0.3024891E-03 Eh
 * total energy  :   -57.8553308 Eh     change       -0.2994646E-03 Eh
 * total energy  :   -57.8557485 Eh     change       -0.4176818E-03 Eh
 * total energy  :   -57.8560962 Eh     change       -0.3477250E-03 Eh
 * total energy  :   -57.8579163 Eh     change       -0.1239993E-04 Eh
 * total energy  :   -57.8579241 Eh     change       -0.7856850E-05 Eh
 * total energy  :   -57.8579323 Eh     change       -0.8230604E-05 Eh
 * total energy  :   -57.8579386 Eh     change       -0.6216656E-05 Eh
 * total energy  :   -57.8579453 Eh     change       -0.6757986E-05 Eh
 * total energy  :   -57.8579560 Eh     change       -0.1064255E-04 Eh
 * total energy  :   -57.8579588 Eh     change       -0.2884633E-05 Eh
 * total energy  :   -57.8579631 Eh     change       -0.4222828E-05 Eh
 * total energy  :   -57.8579663 Eh     change       -0.3198167E-05 Eh
   *** GEOMETRY OPTIMIZATION CONVERGED AFTER 42 ITERATIONS ***

 final structure:
================
33
 xtb: 6.5.1 (579679a)
C            4.23984813394604        0.83806744543959       -1.49189437478052
O            3.00484802696585        0.54120354626147       -0.81311500131407
C            2.67304095255911       -0.73195100938744       -0.69225448360842
O            3.31446747771618       -1.65891499365055       -1.10157809836063
C            1.38159572920821       -0.89934935336375        0.08933585396296
C            1.33863626281275       -1.73869899261333        1.15934332121759
O            2.38397221479952       -2.45978173342641        1.54568712533031
C            0.12439046903738       -1.84361579517508        1.96396063732002
O           -0.00699991659781       -2.57161340168169        2.91939030070991
N           -0.88645492357932       -0.99075637587928        1.53611280891314
C           -0.84794965159844       -0.17288542990511        0.47207633951481
C           -2.09592066268797        0.65223197388460        0.19197500828169
C           -2.97505070517530       -0.13113841026461       -0.79726844150573
C           -2.89040941577531        0.91758045548477        1.48224669999794
N           -1.70340842155691        1.92517535392178       -0.39201551924532
N            0.24946979753417       -0.16691282208566       -0.27077324724652
C            0.32869464676888        0.56886107361196       -1.54223627941020
H            5.08150307387013        0.56638276357318       -0.85160792737977
H            4.23179443616192        1.90893216510405       -1.68086940640776
H            4.28952070175352        0.28037824753903       -2.42910942130523
H            2.16429472009314       -2.98670621396380        2.33460476102042
H           -1.72183941614344       -1.02246013565074        2.10587002010700
H           -2.46918095378154       -0.26986696465409       -1.75070367160668
H           -3.22309688092380       -1.10669949499637       -0.38241893857525
H           -3.89427040881829        0.42694355606465       -0.96590737850042
H           -3.38770315619303        0.01833937356555        1.84305651560275
H           -2.24020825336046        1.31596589659203        2.25864826387790
H           -3.65625114446595        1.65833080606802        1.25824699685606
H           -1.33324779717021        2.52734220100987        0.33133287655550
H           -2.52265583501921        2.37251815222809       -0.78001275716837
H            0.98309981515539        0.02198704975173       -2.21674221719227
H           -0.65852915069735        0.64677888707556       -1.98013487229835
H            0.72400223516224        1.56433217952141       -1.35324749336141

          :  Hamiltonian                  GFN1-xTB          :
         :: total energy             -57.857966268992 Eh    ::
         :: gradient norm              0.000843476043 Eh/a0 ::
         :: HOMO-LUMO gap              2.316614179579 eV    ::
         :: SCC energy               -58.442154278477 Eh    ::
         :: -> Gsolv                  -0.103241149443 Eh    ::
         :: repulsion energy           0.603828868294 Eh    ::

    * Orbital Energies and Occupations

         #    Occupation            Energy/Eh            Energy/eV
      -------------------------------------------------------------
         1        2.0000           -0.8905223             -24.2323
       ...           ...                  ...                  ...
        35        2.0000           -0.5616765             -15.2840
        36        2.0000           -0.5440240             -14.8036
        37        2.0000           -0.5401083             -14.6971
        38        2.0000           -0.5364575             -14.5978
        39        2.0000           -0.5321832             -14.4814
        40        2.0000           -0.5297632             -14.4156
        41        2.0000           -0.5279728             -14.3669
        42        2.0000           -0.5231521             -14.2357
        43        2.0000           -0.5198307             -14.1453
        44        2.0000           -0.5161392             -14.0449
        45        2.0000           -0.4982464             -13.5580
        46        2.0000           -0.4778314             -13.0025
        47        2.0000           -0.4421981             -12.0328 (HOMO)
        48                         -0.3570641              -9.7162 (LUMO)
        49                         -0.3525234              -9.5927
        50                         -0.2901209              -7.8946
        51                         -0.2211912              -6.0189
        52                         -0.1621206              -4.4115
        53                         -0.1558619              -4.2412
        54                         -0.1529990              -4.1633
        55                         -0.1462387              -3.9794
        56                         -0.1326442              -3.6094
        57                         -0.1237991              -3.3687
        58                         -0.1102530              -3.0001
       ...                                ...                  ...
       100                          0.7184071              19.5489
      -------------------------------------------------------------
                  HL-Gap            0.0851340 Eh            2.3166 eV

Wiberg/Mayer (AO) data.
largest (>0.10) Wiberg bond orders for each atom

     #   Z sym  total        # sym  WBO       # sym  WBO       # sym  WBO
 ---------------------------------------------------------------------------
     1   6 C    3.845 --    19 H    0.984    20 H    0.980    18 H    0.978
                             2 O    0.870
     2   8 O    2.220 --     3 C    1.142     1 C    0.870     4 O    0.147
     3   6 C    3.862 --     4 O    1.707     2 O    1.142     5 C    0.944
     4   8 O    1.966 --     3 C    1.707     2 O    0.147
     5   6 C    3.925 --     6 C    1.546    16 N    1.087     3 C    0.944
     6   6 C    3.928 --     5 C    1.546     7 O    1.134     8 C    1.043
     7   8 O    2.103 --     6 C    1.134    21 H    0.794
     8   6 C    3.903 --     9 O    1.653    10 N    1.077     6 C    1.043
     9   8 O    1.961 --     8 C    1.653    10 N    0.118
    10   7 N    3.490 --    11 C    1.274     8 C    1.077    22 H    0.863
                             9 O    0.118
    11   6 C    3.883 --    16 N    1.395    10 N    1.274    12 C    0.973
    12   6 C    3.954 --    15 N    0.994    14 C    0.984    11 C    0.973
                            13 C    0.966
    13   6 C    3.985 --    24 H    0.984    23 H    0.978    25 H    0.977
                            12 C    0.966
    14   6 C    3.988 --    12 C    0.984    27 H    0.983    28 H    0.977
                            26 H    0.976
    15   7 N    2.975 --    12 C    0.994    29 H    0.933    30 H    0.928
    16   7 N    3.584 --    11 C    1.395     5 C    1.087    17 C    0.904
    17   6 C    3.890 --    31 H    0.977    32 H    0.972    33 H    0.968
                            16 N    0.904
    18   1 H    1.002 --     1 C    0.978
    19   1 H    1.006 --     1 C    0.984
    20   1 H    1.003 --     1 C    0.980
    21   1 H    0.823 --     7 O    0.794
    22   1 H    0.916 --    10 N    0.863
    23   1 H    0.999 --    13 C    0.978
    24   1 H    0.998 --    13 C    0.984
    25   1 H    0.994 --    13 C    0.977
    26   1 H    0.996 --    14 C    0.976
    27   1 H    0.996 --    14 C    0.983
    28   1 H    0.997 --    14 C    0.977
    29   1 H    0.946 --    15 N    0.933
    30   1 H    0.942 --    15 N    0.928
    31   1 H    0.996 --    17 C    0.977
    32   1 H    1.019 --    17 C    0.972
    33   1 H    1.011 --    17 C    0.968
 ---------------------------------------------------------------------------

           -------------------------------------------------
          | TOTAL ENERGY              -57.857966268992 Eh   |
          | GRADIENT NORM               0.000843476043 Eh/α |
          | HOMO-LUMO GAP               2.316614179579 eV   |
           -------------------------------------------------

 * finished run on 2023/06/20 at 15:05:21.972
