   * xtb version 6.5.1 (579679a) compiled by 'ehlert@majestix' on 2022-07-11
          program call               : /lustre/hpc/kemi/ree/PhD/git/ReactivityQM/dep/xtb-6.5.1/bin/xtb --gfn 1 /lustre/hpc/kemi/ree/PhD/git/ReactivityQM/calculations/R02/reac01prodN07/conf10/R02_reac01prodN07_conf10_gfn1.xyz --opt --vfukui --chrg 1 --uhf 0 --alpb DMSO

   ID    Z sym.   atoms
    1    6 C      1, 3, 5, 7-10, 12, 14, 17-19, 22, 24
    2    8 O      2, 4, 13, 20, 23, 25
    3    7 N      6, 11, 15, 16, 21
    4    1 H      26-43

      * Solvation model:               ALPB
        Solvent                        DMSO
        Solvent mass                       7.8130E+01 g/mol
          :  Hamiltonian                  GFN1-xTB          :
 * total energy  :   -83.1551341 Eh     change       -0.2424372E-10 Eh
 * total energy  :   -83.1733047 Eh     change       -0.1817064E-01 Eh
 * total energy  :   -83.1794863 Eh     change       -0.6181543E-02 Eh
 * total energy  :   -83.1804832 Eh     change       -0.9969189E-03 Eh
 * total energy  :   -83.1809107 Eh     change       -0.4275629E-03 Eh
 * total energy  :   -83.1810521 Eh     change       -0.1413469E-03 Eh
 * total energy  :   -83.1812004 Eh     change       -0.1483174E-03 Eh
 * total energy  :   -83.1813243 Eh     change       -0.1239053E-03 Eh
 * total energy  :   -83.1814254 Eh     change       -0.1011097E-03 Eh
 * total energy  :   -83.1814957 Eh     change       -0.7033321E-04 Eh
 * total energy  :   -83.1816184 Eh     change       -0.3309349E-04 Eh
 * total energy  :   -83.1816465 Eh     change       -0.2804228E-04 Eh
 * total energy  :   -83.1816780 Eh     change       -0.3157254E-04 Eh
 * total energy  :   -83.1816950 Eh     change       -0.1696612E-04 Eh
 * total energy  :   -83.1817234 Eh     change       -0.2839614E-04 Eh
 * total energy  :   -83.1817300 Eh     change       -0.6654394E-05 Eh
 * total energy  :   -83.1817394 Eh     change       -0.9383438E-05 Eh
 * total energy  :   -83.1817444 Eh     change       -0.4995820E-05 Eh
 * total energy  :   -83.1817490 Eh     change       -0.4618353E-05 Eh
   *** GEOMETRY OPTIMIZATION CONVERGED AFTER 21 ITERATIONS ***

 final structure:
================
43
 xtb: 6.5.1 (579679a)
C            7.07386326171407        0.81565681634750       -0.70880561465364
O            5.85641436323232        0.06417322363028       -0.64204352214218
C            4.81078975341244        0.67760173889395       -0.09590473347335
O            4.85149774757607        1.80854351888563        0.33135858018613
C            3.57835081057013       -0.16706183824928       -0.05972278442014
N            2.51650885410878        0.44526811291712        0.56556259375293
C            1.38865826897350       -0.16216993508754        0.66858059248872
C            0.24138235006979        0.49204645607379        1.40606902967443
C            0.48999576162175        1.99517136207851        1.55314403015905
C            0.09184221917534       -0.19447602158008        2.77145549198289
N           -0.97812204976516        0.27326393193988        0.60436806740196
C           -2.19576133741467        0.65932095347403        1.01413030186575
O           -2.48649682146537        1.18440476391103        2.06495950910678
C           -3.23860847118055        0.34623092631147       -0.02682657727043
N           -3.06231370643970       -0.22324124571177       -1.18163765655457
N           -4.29010058155699       -0.28428047477464       -1.72936128820371
C           -4.47048536734873       -0.87679635884791       -3.03956457697460
C           -5.17457847992415        0.24466291873728       -0.90712481940845
C           -6.62920881797502        0.38492631118427       -1.07833366992532
O           -4.53358534946836        0.64773120294398        0.16963845193313
N            1.19156494320385       -1.42890777407788        0.18711105558962
C            2.17073379288710       -2.13527515589758       -0.47123902281342
O            1.98882559838535       -3.25639349522264       -0.91797432790551
C            3.44518719289542       -1.42489862711470       -0.58140760721448
O            4.41737862567604       -2.08980351693606       -1.21078901269970
H            7.80713851004007        0.17636568905292       -1.19637706070642
H            6.91900439306687        1.72879166399302       -1.28849526973208
H            7.40734635858864        1.07826789203286        0.29801726363799
H            1.42794153093690        2.15410019954074        2.08359428324698
H            0.55616035775032        2.45664954045878        0.56931933741703
H           -0.32264718645468        2.45453745776574        2.11208864792026
H            1.03773792858000       -0.13568656813368        3.30854585488811
H           -0.68193650085433        0.29496829759570        3.35923977113840
H           -0.17467937095028       -1.24009458738857        2.63132438802032
H           -0.88293135209124       -0.09911853174038       -0.32518736205529
H           -4.87366382737911       -0.12418408241881       -3.71555491279998
H           -5.16457642210897       -1.71162401450446       -2.95766318123058
H           -3.49817767823985       -1.21855537445927       -3.38418299709601
H           -6.85827199281053        0.73223376847833       -2.08536897480913
H           -7.10785113533744       -0.58711656491824       -0.94007716180445
H           -7.01830004324574        1.08225353184341       -0.33836702962263
H            0.29922173451060       -1.88321393268636        0.29026243360796
H            4.07475013503624       -2.95427417833814       -1.50261052050168

          :  Hamiltonian                  GFN1-xTB          :
         :: total energy             -83.181749038442 Eh    ::
         :: gradient norm              0.000806330426 Eh/a0 ::
         :: HOMO-LUMO gap              2.146022195074 eV    ::
         :: SCC energy               -83.992861589888 Eh    ::
         :: -> Gsolv                  -0.130757790162 Eh    ::
         :: repulsion energy           0.836437999651 Eh    ::

    * Orbital Energies and Occupations

         #    Occupation            Energy/Eh            Energy/eV
      -------------------------------------------------------------
         1        2.0000           -0.9391325             -25.5551
       ...           ...                  ...                  ...
        55        2.0000           -0.5277039             -14.3596
        56        2.0000           -0.5217937             -14.1987
        57        2.0000           -0.5195959             -14.1389
        58        2.0000           -0.5174680             -14.0810
        59        2.0000           -0.5144057             -13.9977
        60        2.0000           -0.5009229             -13.6308
        61        2.0000           -0.4968700             -13.5205
        62        2.0000           -0.4944983             -13.4560
        63        2.0000           -0.4920266             -13.3887
        64        2.0000           -0.4801399             -13.0653
        65        2.0000           -0.4691720             -12.7668
        66        2.0000           -0.4591444             -12.4940
        67        2.0000           -0.4409704             -11.9994 (HOMO)
        68                         -0.3621056              -9.8534 (LUMO)
        69                         -0.3460063              -9.4153
        70                         -0.3319062              -9.0316
        71                         -0.2945095              -8.0140
        72                         -0.2474065              -6.7323
        73                         -0.2451222              -6.6701
        74                         -0.1847864              -5.0283
        75                         -0.1724550              -4.6927
        76                         -0.1667052              -4.5363
        77                         -0.1431242              -3.8946
        78                         -0.1403317              -3.8186
       ...                                ...                  ...
       136                          0.7274072              19.7938
      -------------------------------------------------------------
                  HL-Gap            0.0788649 Eh            2.1460 eV

Wiberg/Mayer (AO) data.
largest (>0.10) Wiberg bond orders for each atom

     #   Z sym  total        # sym  WBO       # sym  WBO       # sym  WBO
 ---------------------------------------------------------------------------
     1   6 C    3.869 --    26 H    0.986    27 H    0.980    28 H    0.979
                             2 O    0.894
     2   8 O    2.207 --     3 C    1.120     1 C    0.894     4 O    0.136
     3   6 C    3.853 --     4 O    1.658     2 O    1.120     5 C    0.996
     4   8 O    1.921 --     3 C    1.658     2 O    0.136
     5   6 C    3.962 --    24 C    1.509     6 N    1.170     3 C    0.996
     6   7 N    3.031 --     7 C    1.609     5 C    1.170
     7   6 C    3.933 --     6 N    1.609    21 N    1.154     8 C    0.982
     8   6 C    3.919 --     9 C    0.991     7 C    0.982    10 C    0.976
                            11 N    0.905
     9   6 C    3.987 --     8 C    0.991    30 H    0.985    31 H    0.982
                            29 H    0.982
    10   6 C    3.985 --    34 H    0.984    32 H    0.984    33 H    0.977
                             8 C    0.976
    11   7 N    3.368 --    12 C    1.280     8 C    0.905    35 H    0.891
                            13 O    0.197
    12   6 C    3.924 --    13 O    1.621    11 N    1.280    14 C    0.952
    13   8 O    1.948 --    12 C    1.621    11 N    0.197
    14   6 C    3.842 --    15 N    1.608    20 O    1.068    12 C    0.952
    15   7 N    2.993 --    14 C    1.608    16 N    1.152
    16   7 N    3.630 --    18 C    1.421    15 N    1.152    17 C    0.908
    17   6 C    3.883 --    38 H    0.978    37 H    0.969    36 H    0.968
                            16 N    0.908
    18   6 C    3.842 --    16 N    1.421    20 O    1.156    19 C    1.042
    19   6 C    3.960 --    18 C    1.042    41 H    0.970    39 H    0.956
                            40 H    0.935
    20   8 O    2.391 --    18 C    1.156    14 C    1.068
    21   7 N    3.460 --     7 C    1.154    22 C    1.134    42 H    0.882
                            23 O    0.134
    22   6 C    3.909 --    23 O    1.585    21 N    1.134    24 C    1.058
    23   8 O    1.908 --    22 C    1.585    21 N    0.134
    24   6 C    3.921 --     5 C    1.509    25 O    1.114    22 C    1.058
    25   8 O    2.092 --    24 C    1.114    43 H    0.804
    26   1 H    1.010 --     1 C    0.986
    27   1 H    1.007 --     1 C    0.980
    28   1 H    1.007 --     1 C    0.979
    29   1 H    1.008 --     9 C    0.982
    30   1 H    1.003 --     9 C    0.985
    31   1 H    1.004 --     9 C    0.982
    32   1 H    0.999 --    10 C    0.984
    33   1 H    1.005 --    10 C    0.977
    34   1 H    0.999 --    10 C    0.984
    35   1 H    0.936 --    11 N    0.891
    36   1 H    0.989 --    17 C    0.968
    37   1 H    0.989 --    17 C    0.969
    38   1 H    0.992 --    17 C    0.978
    39   1 H    0.987 --    19 C    0.956
    40   1 H    0.984 --    19 C    0.935
    41   1 H    0.986 --    19 C    0.970
    42   1 H    0.924 --    21 N    0.882
    43   1 H    0.843 --    25 O    0.804
 ---------------------------------------------------------------------------

           -------------------------------------------------
          | TOTAL ENERGY              -83.181749038442 Eh   |
          | GRADIENT NORM               0.000806330426 Eh/α |
          | HOMO-LUMO GAP               2.146022195074 eV   |
           -------------------------------------------------

 * finished run on 2023/06/20 at 15:26:51.205
