   * xtb version 6.5.1 (579679a) compiled by 'ehlert@majestix' on 2022-07-11
          program call               : /lustre/hpc/kemi/ree/PhD/git/ReactivityQM/dep/xtb-6.5.1/bin/xtb --gfn 1 /lustre/hpc/kemi/ree/PhD/git/ReactivityQM/calculations/R01/reac01prodN01/conf01/R01_reac01prodN01_conf01_gfn1.xyz --opt --vfukui --chrg 1 --uhf 0 --alpb DMSO

   ID    Z sym.   atoms
    1    6 C      1, 3, 5, 8, 9, 11
    2    8 O      2, 4, 10
    3    7 N      6, 7
    4    1 H      12-20

      * Solvation model:               ALPB
        Solvent                        DMSO
        Solvent mass                       7.8130E+01 g/mol
          :  Hamiltonian                  GFN1-xTB          :
 * total energy  :   -37.5500777 Eh     change       -0.1310951E-10 Eh
 * total energy  :   -37.5657938 Eh     change       -0.1571602E-01 Eh
 * total energy  :   -37.5729091 Eh     change       -0.7115321E-02 Eh
 * total energy  :   -37.5748853 Eh     change       -0.1976226E-02 Eh
 * total energy  :   -37.5761700 Eh     change       -0.1284724E-02 Eh
 * total energy  :   -37.5767495 Eh     change       -0.5794716E-03 Eh
 * total energy  :   -37.5772138 Eh     change       -0.4643343E-03 Eh
 * total energy  :   -37.5775428 Eh     change       -0.3289286E-03 Eh
 * total energy  :   -37.5777425 Eh     change       -0.1997884E-03 Eh
 * total energy  :   -37.5778664 Eh     change       -0.1238175E-03 Eh
 * total energy  :   -37.5794908 Eh     change       -0.4045674E-04 Eh
 * total energy  :   -37.5795122 Eh     change       -0.2139385E-04 Eh
 * total energy  :   -37.5795234 Eh     change       -0.1123772E-04 Eh
 * total energy  :   -37.5795311 Eh     change       -0.7676949E-05 Eh
 * total energy  :   -37.5795423 Eh     change       -0.1120061E-04 Eh
 * total energy  :   -37.5795513 Eh     change       -0.9014915E-05 Eh
 * total energy  :   -37.5795564 Eh     change       -0.5079682E-05 Eh
 * total energy  :   -37.5795606 Eh     change       -0.4223845E-05 Eh
 * total energy  :   -37.5795625 Eh     change       -0.1884208E-05 Eh
   *** GEOMETRY OPTIMIZATION CONVERGED AFTER 44 ITERATIONS ***

 final structure:
================
20
 xtb: 6.5.1 (579679a)
C            3.86472479559695       -0.66651486144480        0.21721761419888
O            2.48775719762163       -1.04344042735601        0.01722630280546
C            1.59645672822438       -0.08874015735926        0.08249815472232
O            1.80358185380952        1.07731267854327        0.29141796165558
C            0.22134872919391       -0.63878371115318       -0.14213538513985
N           -0.16167934985755       -1.83772914839993       -0.36831859045931
N           -1.51865353917409       -1.84875724795103       -0.49649830968047
C           -1.96381916067877       -0.65833264270561       -0.34906038203873
C           -3.34968552062965       -0.17153421011966       -0.39351277111404
O           -0.89083459006677        0.20684227575597       -0.11226882730017
C           -0.89218180592861        1.65659584105557        0.10581405942892
H            3.99385517800062       -0.29838134127370        1.23586075294040
H            4.45126236029982       -1.56709329091753        0.05194265768827
H            4.13520189179649        0.11385735289915       -0.49529995321868
H           -4.00827433476024       -1.01555751065075       -0.59231423190993
H           -3.62179108208863        0.28738457407317        0.55768047270687
H           -3.46751798171291        0.57625943116421       -1.17839041135051
H           -0.47492217235560        1.83602493802186        1.09431146645696
H           -0.27878628115461        2.10187120835792       -0.67451777611828
H           -1.92604391613590        1.97871624946017        0.03925919572648

          :  Hamiltonian                  GFN1-xTB          :
         :: total energy             -37.579562486917 Eh    ::
         :: gradient norm              0.000405218111 Eh/a0 ::
         :: HOMO-LUMO gap              3.705367149193 eV    ::
         :: SCC energy               -37.929008493939 Eh    ::
         :: -> Gsolv                  -0.089888147109 Eh    ::
         :: repulsion energy           0.358168437877 Eh    ::

    * Orbital Energies and Occupations

         #    Occupation            Energy/Eh            Energy/eV
      -------------------------------------------------------------
         1        2.0000           -0.9755267             -26.5454
       ...           ...                  ...                  ...
        18        2.0000           -0.6071539             -16.5215
        19        2.0000           -0.6031468             -16.4125
        20        2.0000           -0.5993482             -16.3091
        21        2.0000           -0.5934583             -16.1488
        22        2.0000           -0.5857905             -15.9402
        23        2.0000           -0.5723666             -15.5749
        24        2.0000           -0.5624591             -15.3053
        25        2.0000           -0.5501729             -14.9710
        26        2.0000           -0.5416269             -14.7384
        27        2.0000           -0.5296400             -14.4122
        28        2.0000           -0.5286926             -14.3865
        29        2.0000           -0.5195767             -14.1384
        30        2.0000           -0.5141717             -13.9913 (HOMO)
        31                         -0.3780020             -10.2860 (LUMO)
        32                         -0.3209874              -8.7345
        33                         -0.2591472              -7.0518
        34                         -0.1947613              -5.2997
        35                         -0.1789190              -4.8686
        36                         -0.1550019              -4.2178
        37                         -0.1278344              -3.4786
        38                         -0.1185262              -3.2253
        39                         -0.1177447              -3.2040
        40                         -0.1042285              -2.8362
        41                         -0.0901547              -2.4532
       ...                                ...                  ...
        62                          0.7174757              19.5235
      -------------------------------------------------------------
                  HL-Gap            0.1361697 Eh            3.7054 eV

Wiberg/Mayer (AO) data.
largest (>0.10) Wiberg bond orders for each atom

     #   Z sym  total        # sym  WBO       # sym  WBO       # sym  WBO
 ---------------------------------------------------------------------------
     1   6 C    3.832 --    13 H    0.984    14 H    0.977    12 H    0.976
                             2 O    0.862
     2   8 O    2.245 --     3 C    1.178     1 C    0.862     4 O    0.154
     3   6 C    3.879 --     4 O    1.670     2 O    1.178     5 C    0.962
     4   8 O    1.975 --     3 C    1.670     2 O    0.154
     5   6 C    3.810 --     6 N    1.707     3 C    0.962    10 O    0.884
     6   7 N    3.040 --     5 C    1.707     7 N    1.159
     7   7 N    3.024 --     8 C    1.684     6 N    1.159
     8   6 C    3.800 --     7 N    1.684     9 C    1.046    10 O    0.881
     9   6 C    3.967 --     8 C    1.046    15 H    0.968    17 H    0.948
                            16 H    0.948
    10   8 O    2.653 --     5 C    0.884     8 C    0.881    11 C    0.741
    11   6 C    3.717 --    20 H    0.973    19 H    0.967    18 H    0.967
                            10 O    0.741
    12   1 H    0.999 --     1 C    0.976
    13   1 H    1.005 --     1 C    0.984
    14   1 H    1.000 --     1 C    0.977
    15   1 H    0.988 --     9 C    0.968
    16   1 H    0.987 --     9 C    0.948
    17   1 H    0.987 --     9 C    0.948
    18   1 H    0.996 --    11 C    0.967
    19   1 H    0.996 --    11 C    0.967
    20   1 H    0.989 --    11 C    0.973
 ---------------------------------------------------------------------------

           -------------------------------------------------
          | TOTAL ENERGY              -37.579562486917 Eh   |
          | GRADIENT NORM               0.000405218111 Eh/α |
          | HOMO-LUMO GAP               3.705367149193 eV   |
           -------------------------------------------------

 * finished run on 2023/06/20 at 14:54:43.342
