   * xtb version 6.5.1 (579679a) compiled by 'ehlert@majestix' on 2022-07-11
          program call               : /lustre/hpc/kemi/ree/PhD/git/ReactivityQM/dep/xtb-6.5.1/bin/xtb --gfn 1 /lustre/hpc/kemi/ree/PhD/git/ReactivityQM/calculations/R02deprot/reac01prodN09/conf09/R02deprot_reac01prodN09_conf09_gfn1.xyz --opt --vfukui --chrg 0 --uhf 0 --alpb DMSO

   ID    Z sym.   atoms
    1    6 C      1, 3, 4, 6, 8-11, 13, 15, 18, 19, 22, 24
    2    8 O      2, 5, 14, 20, 23, 25
    3    7 N      7, 12, 16, 17, 21
    4    1 H      26-42

      * Solvation model:               ALPB
        Solvent                        DMSO
        Solvent mass                       7.8130E+01 g/mol
          :  Hamiltonian                  GFN1-xTB          :
 * total energy  :   -82.8550446 Eh     change       -0.1076259E-08 Eh
 * total energy  :   -82.8749311 Eh     change       -0.1988652E-01 Eh
 * total energy  :   -82.8916556 Eh     change       -0.1672446E-01 Eh
 * total energy  :   -82.8965404 Eh     change       -0.4884824E-02 Eh
 * total energy  :   -82.9026599 Eh     change       -0.6119540E-02 Eh
 * total energy  :   -82.9101758 Eh     change       -0.7515826E-02 Eh
 * total energy  :   -82.9167584 Eh     change       -0.6582680E-02 Eh
 * total energy  :   -82.9203519 Eh     change       -0.3593423E-02 Eh
 * total energy  :   -82.9234816 Eh     change       -0.3129704E-02 Eh
 * total energy  :   -82.9251567 Eh     change       -0.1675150E-02 Eh
 * total energy  :   -82.9311683 Eh     change       -0.1505046E-04 Eh
 * total energy  :   -82.9311871 Eh     change       -0.1883568E-04 Eh
 * total energy  :   -82.9312041 Eh     change       -0.1697977E-04 Eh
 * total energy  :   -82.9312124 Eh     change       -0.8227321E-05 Eh
 * total energy  :   -82.9312212 Eh     change       -0.8891178E-05 Eh
 * total energy  :   -82.9312273 Eh     change       -0.6011788E-05 Eh
 * total energy  :   -82.9312331 Eh     change       -0.5795623E-05 Eh
 * total energy  :   -82.9312407 Eh     change       -0.7605755E-05 Eh
 * total energy  :   -82.9312440 Eh     change       -0.3370246E-05 Eh
   *** GEOMETRY OPTIMIZATION CONVERGED AFTER 88 ITERATIONS ***

 final structure:
================
42
 xtb: 6.5.1 (579679a)
C           -5.19797799508268        1.96415357087216        0.79263086700915
O           -4.55640645699531        0.76116118130899        1.23530322024222
C           -5.15393146907319       -0.39137275756003        0.93087122605998
C           -4.38122016180864       -1.56838899410088        1.46011884441044
O           -6.18272809043771       -0.46279275065721        0.30354532650575
C           -2.24980858939451        0.59442366160710       -0.55464005818701
N           -1.54437951778181       -0.43600802483717       -0.33933995651992
C           -0.22127225716617       -0.30369669079404       -0.40044277984405
C            0.64241631184071       -1.51474263773521       -0.16254015187096
C            0.39114092990074       -2.53056772663183       -1.28747710121456
C            0.30284114219055       -2.11625384550332        1.20796093672768
N            2.02986354676446       -1.06325389987328       -0.19252046552174
C            3.08026308343145       -1.88353110883190       -0.00308298913091
O            3.01155707339077       -3.08134255180912        0.22260736059568
C            4.38140754691689       -1.17289998478048       -0.09770019680813
N            5.57032169717842       -1.67028260826223        0.04597448157054
N            6.45046334517647       -0.64516193198000       -0.13368810306511
C            5.74458068686218        0.41507932363636       -0.37665658326138
C            6.22867586223703        1.78670980312587       -0.64438239279855
O            4.42791786055486        0.14987442055688       -0.36814585084258
N            0.28568869067698        0.88001481176938       -0.68450620812448
C           -0.41128243306419        1.97050578664417       -0.90803682408966
O           -0.07342890520085        3.10400848249565       -1.16759523124282
C           -2.00899367158698        1.83035096463221       -0.82935982766420
O           -2.70747615809404        2.93056121902888       -1.03701057071293
H           -5.24851065229750        1.98210641352893       -0.29794573481128
H           -4.58931703007748        2.79085044409244        1.15127758423001
H           -6.20682768224007        2.02480575013836        1.20646459308516
H           -4.89291570803410       -2.49360499873323        1.21010718312873
H           -4.27828726392376       -1.47499160580901        2.53934024524533
H           -3.38368387784821       -1.56275264935052        1.02256525286634
H            0.96907455156904       -3.43501818446704       -1.10653860640334
H            0.68251401218407       -2.10387524542476       -2.24573638823816
H           -0.66806195188115       -2.78009346788883       -1.31397177271346
H           -0.76318070482065       -2.33389057545613        1.24674533238777
H            0.86163703925498       -3.03761175656280        1.36082932450883
H            0.55181684540335       -1.40880648093187        1.99724495261150
H            2.18734059473749       -0.08338414976591       -0.38337467774825
H            5.89331196105712        2.11286188545248       -1.62866641920246
H            7.31491311989406        1.80681047964281       -0.60300451244508
H            5.82093593960189        2.47575775123997        0.09481666524803
H           -2.10899026402269        3.66621867797111       -1.26204099398111

          :  Hamiltonian                  GFN1-xTB          :
         :: total energy             -82.931244029150 Eh    ::
         :: gradient norm              0.000899347927 Eh/a0 ::
         :: HOMO-LUMO gap              1.986141696181 eV    ::
         :: SCC energy               -83.760982690804 Eh    ::
         :: -> Gsolv                  -0.054140261018 Eh    ::
         :: repulsion energy           0.854398770573 Eh    ::

    * Orbital Energies and Occupations

         #    Occupation            Energy/Eh            Energy/eV
      -------------------------------------------------------------
         1        2.0000           -0.8651742             -23.5426
       ...           ...                  ...                  ...
        55        2.0000           -0.5045113             -13.7285
        56        2.0000           -0.5040666             -13.7163
        57        2.0000           -0.4970515             -13.5255
        58        2.0000           -0.4908086             -13.3556
        59        2.0000           -0.4803348             -13.0706
        60        2.0000           -0.4771079             -12.9828
        61        2.0000           -0.4731277             -12.8745
        62        2.0000           -0.4698442             -12.7851
        63        2.0000           -0.4646163             -12.6429
        64        2.0000           -0.4602102             -12.5230
        65        2.0000           -0.4516620             -12.2903
        66        2.0000           -0.4483682             -12.2007
        67        2.0000           -0.4289093             -11.6712 (HOMO)
        68                         -0.3559200              -9.6851 (LUMO)
        69                         -0.3099625              -8.4345
        70                         -0.3043578              -8.2820
        71                         -0.2631044              -7.1594
        72                         -0.2603629              -7.0848
        73                         -0.2565208              -6.9803
        74                         -0.1978010              -5.3824
        75                         -0.1673939              -4.5550
        76                         -0.1449390              -3.9440
        77                         -0.1420848              -3.8663
        78                         -0.1318297              -3.5873
       ...                                ...                  ...
       134                          0.8481486              23.0793
      -------------------------------------------------------------
                  HL-Gap            0.0729894 Eh            1.9861 eV

Wiberg/Mayer (AO) data.
largest (>0.10) Wiberg bond orders for each atom

     #   Z sym  total        # sym  WBO       # sym  WBO       # sym  WBO
 ---------------------------------------------------------------------------
     1   6 C    3.870 --    27 H    0.986    28 H    0.980    26 H    0.980
                             2 O    0.891
     2   8 O    2.194 --     3 C    1.113     1 C    0.891     5 O    0.132
     3   6 C    3.830 --     5 O    1.682     2 O    1.113     4 C    0.990
     4   6 C    3.991 --     3 C    0.990    29 H    0.984    30 H    0.965
                            31 H    0.961
     5   8 O    1.926 --     3 C    1.682     2 O    0.132
     6   6 C    3.888 --    24 C    1.802     7 N    1.575    21 N    0.154
                            23 O    0.102
     7   7 N    3.243 --     6 C    1.575     8 C    1.294
     8   6 C    3.918 --    21 N    1.370     7 N    1.294     9 C    0.984
                            24 C    0.113
     9   6 C    3.938 --     8 C    0.984    11 C    0.978    10 C    0.973
                            12 N    0.934
    10   6 C    3.986 --    33 H    0.985    34 H    0.985    32 H    0.979
                             9 C    0.973
    11   6 C    3.987 --    37 H    0.985    35 H    0.984    36 H    0.979
                             9 C    0.978
    12   7 N    3.355 --    13 C    1.265     9 C    0.934    38 H    0.880
                            14 O    0.178
    13   6 C    3.918 --    14 O    1.580    12 N    1.265    15 C    0.991
    14   8 O    1.898 --    13 C    1.580    12 N    0.178
    15   6 C    3.872 --    16 N    1.623    20 O    1.047    13 C    0.991
    16   7 N    2.999 --    15 C    1.623    17 N    1.198
    17   7 N    2.981 --    18 C    1.611    16 N    1.198
    18   6 C    3.869 --    17 N    1.611    20 O    1.073    19 C    1.032
    19   6 C    3.986 --    18 C    1.032    40 H    0.983    41 H    0.963
                            39 H    0.963
    20   8 O    2.316 --    18 C    1.073    15 C    1.047
    21   7 N    3.202 --     8 C    1.370    22 C    1.363     6 C    0.154
                            23 O    0.139
    22   6 C    3.910 --    23 O    1.591    21 N    1.363    24 C    0.735
    23   8 O    2.018 --    22 C    1.591    21 N    0.139     6 C    0.102
    24   6 C    3.906 --     6 C    1.802    25 O    1.114    22 C    0.735
                             8 C    0.113
    25   8 O    2.091 --    24 C    1.114    42 H    0.782
    26   1 H    1.011 --     1 C    0.980
    27   1 H    1.014 --     1 C    0.986
    28   1 H    1.007 --     1 C    0.980
    29   1 H    1.001 --     4 C    0.984
    30   1 H    0.998 --     4 C    0.965
    31   1 H    1.014 --     4 C    0.961
    32   1 H    1.007 --    10 C    0.979
    33   1 H    1.001 --    10 C    0.985
    34   1 H    1.004 --    10 C    0.985
    35   1 H    1.006 --    11 C    0.984
    36   1 H    1.009 --    11 C    0.979
    37   1 H    1.001 --    11 C    0.985
    38   1 H    0.948 --    12 N    0.880
    39   1 H    0.997 --    19 C    0.963
    40   1 H    0.998 --    19 C    0.983
    41   1 H    0.997 --    19 C    0.963
    42   1 H    0.831 --    25 O    0.782
 ---------------------------------------------------------------------------

           -------------------------------------------------
          | TOTAL ENERGY              -82.931244029150 Eh   |
          | GRADIENT NORM               0.000899347927 Eh/α |
          | HOMO-LUMO GAP               1.986141696181 eV   |
           -------------------------------------------------

 * finished run on 2023/06/20 at 18:15:35.062
