   * xtb version 6.5.1 (579679a) compiled by 'ehlert@majestix' on 2022-07-11
          program call               : /lustre/hpc/kemi/ree/PhD/git/ReactivityQM/dep/xtb-6.5.1/bin/xtb --gfn 1 /lustre/hpc/kemi/ree/PhD/git/ReactivityQM/calculations/RaltegravirCLI/reac02prodN16/conf02/RaltegravirCLI_reac02prodN16_conf02_gfn1.xyz --opt --vfukui --chrg 1 --uhf 0 --alpb DMSO

   ID    Z sym.   atoms
    1    6 C      1, 3-7, 9, 11, 13-16, 19, 20, 22, 24, 25
    2    9 F      2
    3    7 N      8, 12, 17, 18
    4    8 O      10, 21, 23
    5    1 H      26-47

      * Solvation model:               ALPB
        Solvent                        DMSO
        Solvent mass                       7.8130E+01 g/mol
          :  Hamiltonian                  GFN1-xTB          :
 * total energy  :   -79.4270953 Eh     change       -0.1134026E-10 Eh
 * total energy  :   -79.4429022 Eh     change       -0.1580689E-01 Eh
 * total energy  :   -79.4477375 Eh     change       -0.4835267E-02 Eh
 * total energy  :   -79.4486037 Eh     change       -0.8662410E-03 Eh
 * total energy  :   -79.4491471 Eh     change       -0.5433638E-03 Eh
 * total energy  :   -79.4494457 Eh     change       -0.2986706E-03 Eh
 * total energy  :   -79.4496433 Eh     change       -0.1975737E-03 Eh
 * total energy  :   -79.4497669 Eh     change       -0.1235973E-03 Eh
 * total energy  :   -79.4498514 Eh     change       -0.8449018E-04 Eh
 * total energy  :   -79.4499135 Eh     change       -0.6206239E-04 Eh
 * total energy  :   -79.4505583 Eh     change       -0.2902571E-04 Eh
 * total energy  :   -79.4505776 Eh     change       -0.1930100E-04 Eh
 * total energy  :   -79.4506043 Eh     change       -0.2668521E-04 Eh
 * total energy  :   -79.4506237 Eh     change       -0.1941136E-04 Eh
 * total energy  :   -79.4506449 Eh     change       -0.2118974E-04 Eh
 * total energy  :   -79.4506559 Eh     change       -0.1094042E-04 Eh
 * total energy  :   -79.4506631 Eh     change       -0.7279537E-05 Eh
 * total energy  :   -79.4506684 Eh     change       -0.5292398E-05 Eh
 * total energy  :   -79.4506721 Eh     change       -0.3707522E-05 Eh
   *** GEOMETRY OPTIMIZATION CONVERGED AFTER 43 ITERATIONS ***

 final structure:
================
47
 xtb: 6.5.1 (579679a)
C            7.30354304940385        1.43221603379020        1.27299687881923
F            5.94044594721693        1.58476186766815        0.83295723972189
C            5.01130251663330        0.51566748403564        0.44108366159974
C            5.09382843256000        0.07445852514794       -0.85349976917824
C            4.18848179768106       -0.91970483462711       -1.21060019802867
C            3.27340702562885       -1.41650743822442       -0.28393250710747
C            2.27831117028036       -2.48075317625543       -0.69590604980818
N            1.03427026313994       -1.85845713897015       -1.12428580548654
C            0.12790429983189       -1.46717783505725       -0.19790145987785
O            0.26383828064966       -1.72069429173793        0.99214663521125
C           -1.07063659644072       -0.73435578746288       -0.71616357667374
N           -2.00401261451544       -0.46071022263022        0.24254095521698
C           -3.09780340062332        0.18085101175766       -0.02387234484358
C           -4.01434749390368        0.44734195014801        1.16413968302214
C           -3.72425413831030        1.85951923550206        1.69541582566382
C           -3.71617159796055       -0.57959069108125        2.27027940756002
N           -5.41574623864360        0.35303973558005        0.77117727328548
N           -3.37618896493641        0.64193527265972       -1.28685381501659
C           -4.59198664580893        1.38677673853877       -1.62745123597702
C           -2.51027515979381        0.40108712825109       -2.33552992469062
O           -2.72934910278750        0.77709127421748       -3.48595926147495
C           -1.29919384416350       -0.32389889621962       -1.99693094315662
O           -0.45797414574914       -0.53440014924334       -3.03032160907759
C            3.25194680284617       -0.91279575265258        1.01670133938229
C            4.14258323924842        0.08068761950159        1.40790673642110
H            7.84007600532701        0.98792254304093        0.43942644900321
H            7.26639554125564        0.79147575305657        2.14916718501477
H            7.61635959325994        2.44843304125485        1.49360019536346
H            5.81507016695230        0.47317067495060       -1.55163967515962
H            4.20966922581547       -1.30913283390385       -2.22058297143002
H            2.06035842911509       -3.13918011980962        0.14993627354659
H            2.66844128647415       -3.06817044034933       -1.52835009085209
H            1.00002563276930       -1.51015358368525       -2.06865689336323
H           -3.98607877814865        2.61798708812068        0.95974637804013
H           -4.30661384480176        2.03660021033014        2.59865574475083
H           -2.66541930641623        1.95372219281731        1.93423756988308
H           -2.68983578342185       -0.47568152845867        2.62024732574423
H           -4.39641772891715       -0.41667189440159        3.10446234043947
H           -3.85648834688371       -1.59079738436006        1.89073290125110
H           -5.99283892480908        0.71919995420543        1.51585200508543
H           -5.66449752827315       -0.61939340365077        0.64148565552016
H           -4.42229874310581        1.89502397958964       -2.57644540310167
H           -5.42919018266642        0.69706540960296       -1.72368508939175
H           -4.81342045206497        2.11552237568679       -0.85446275045715
H           -0.84264704712197       -0.12379963755386       -3.83001433116370
H            2.53543214196924       -1.29546461580763        1.73463674691073
H            4.15199576219182        0.48593655668594        2.40979629885154

          :  Hamiltonian                  GFN1-xTB          :
         :: total energy             -79.450672147139 Eh    ::
         :: gradient norm              0.000934323709 Eh/a0 ::
         :: HOMO-LUMO gap              2.592514135923 eV    ::
         :: SCC energy               -80.348908618908 Eh    ::
         :: -> Gsolv                  -0.110580778651 Eh    ::
         :: repulsion energy           0.927427585855 Eh    ::

    * Orbital Energies and Occupations

         #    Occupation            Energy/Eh            Energy/eV
      -------------------------------------------------------------
         1        2.0000           -1.0104490             -27.4957
       ...           ...                  ...                  ...
        55        2.0000           -0.5109551             -13.9038
        56        2.0000           -0.5035620             -13.7026
        57        2.0000           -0.4954714             -13.4825
        58        2.0000           -0.4924354             -13.3999
        59        2.0000           -0.4902664             -13.3408
        60        2.0000           -0.4872114             -13.2577
        61        2.0000           -0.4722523             -12.8506
        62        2.0000           -0.4690420             -12.7633
        63        2.0000           -0.4531250             -12.3302
        64        2.0000           -0.4481041             -12.1935
        65        2.0000           -0.4393999             -11.9567
        66        2.0000           -0.4247525             -11.5581
        67        2.0000           -0.4147304             -11.2854 (HOMO)
        68                         -0.3194573              -8.6929 (LUMO)
        69                         -0.3154700              -8.5844
        70                         -0.3147241              -8.5641
        71                         -0.2774334              -7.5493
        72                         -0.2605968              -7.0912
        73                         -0.2340323              -6.3683
        74                         -0.1929281              -5.2498
        75                         -0.1851178              -5.0373
        76                         -0.1528645              -4.1597
        77                         -0.1461022              -3.9756
        78                         -0.1445329              -3.9329
       ...                                ...                  ...
       144                          0.7110521              19.3487
      -------------------------------------------------------------
                  HL-Gap            0.0952731 Eh            2.5925 eV

Wiberg/Mayer (AO) data.
largest (>0.10) Wiberg bond orders for each atom

     #   Z sym  total        # sym  WBO       # sym  WBO       # sym  WBO
 ---------------------------------------------------------------------------
     1   6 C    3.676 --    26 H    0.980    27 H    0.980    28 H    0.974
                             2 F    0.716
     2   9 F    1.439 --     1 C    0.716     3 C    0.635
     3   6 C    3.690 --     4 C    1.435    25 C    1.432     2 F    0.635
     4   6 C    3.984 --     3 C    1.435     5 C    1.420    29 H    0.961
                            24 C    0.112
     5   6 C    3.987 --     6 C    1.422     4 C    1.420    30 H    0.966
                            25 C    0.110
     6   6 C    3.984 --     5 C    1.422    24 C    1.416     7 C    0.994
     7   6 C    3.952 --     6 C    0.994    32 H    0.975    31 H    0.968
                             8 N    0.948
     8   7 N    3.328 --     9 C    1.242     7 C    0.948    33 H    0.883
                            10 O    0.163
     9   6 C    3.903 --    10 O    1.582     8 N    1.242    11 C    0.997
    10   8 O    1.890 --     9 C    1.582     8 N    0.163
    11   6 C    3.965 --    22 C    1.505    12 N    1.197     9 C    0.997
    12   7 N    3.030 --    13 C    1.564    11 C    1.197
    13   6 C    3.921 --    12 N    1.564    18 N    1.172    14 C    0.976
    14   6 C    3.966 --    16 C    0.989    17 N    0.986    15 C    0.981
                            13 C    0.976
    15   6 C    3.993 --    36 H    0.986    35 H    0.982    14 C    0.981
                            34 H    0.980
    16   6 C    3.994 --    14 C    0.989    38 H    0.986    39 H    0.985
                            37 H    0.983
    17   7 N    2.977 --    14 C    0.986    41 H    0.941    40 H    0.939
    18   7 N    3.517 --    13 C    1.172    20 C    1.140    19 C    0.926
                            21 O    0.134
    19   6 C    3.920 --    44 H    0.978    42 H    0.976    43 H    0.975
                            18 N    0.926
    20   6 C    3.918 --    21 O    1.538    18 N    1.140    22 C    1.089
    21   8 O    1.889 --    20 C    1.538    18 N    0.134
    22   6 C    3.916 --    11 C    1.505    20 C    1.089    23 O    1.072
    23   8 O    2.066 --    22 C    1.072    45 H    0.798
    24   6 C    3.983 --    25 C    1.423     6 C    1.416    46 H    0.961
                             4 C    0.112
    25   6 C    3.984 --     3 C    1.432    24 C    1.423    47 H    0.961
                             5 C    0.110
    26   1 H    0.993 --     1 C    0.980
    27   1 H    0.993 --     1 C    0.980
    28   1 H    0.991 --     1 C    0.974
    29   1 H    0.989 --     4 C    0.961
    30   1 H    0.993 --     5 C    0.966
    31   1 H    1.006 --     7 C    0.968
    32   1 H    1.000 --     7 C    0.975
    33   1 H    0.942 --     8 N    0.883
    34   1 H    1.004 --    15 C    0.980
    35   1 H    0.999 --    15 C    0.982
    36   1 H    1.004 --    15 C    0.986
    37   1 H    1.015 --    16 C    0.983
    38   1 H    1.003 --    16 C    0.986
    39   1 H    1.007 --    16 C    0.985
    40   1 H    0.953 --    17 N    0.939
    41   1 H    0.957 --    17 N    0.941
    42   1 H    1.009 --    19 C    0.976
    43   1 H    1.018 --    19 C    0.975
    44   1 H    1.022 --    19 C    0.978
    45   1 H    0.844 --    23 O    0.798
    46   1 H    1.009 --    24 C    0.961
    47   1 H    0.990 --    25 C    0.961
 ---------------------------------------------------------------------------

           -------------------------------------------------
          | TOTAL ENERGY              -79.450672147139 Eh   |
          | GRADIENT NORM               0.000934323709 Eh/α |
          | HOMO-LUMO GAP               2.592514135923 eV   |
           -------------------------------------------------

 * finished run on 2023/06/20 at 15:39:16.742
