   * xtb version 6.5.1 (579679a) compiled by 'ehlert@majestix' on 2022-07-11
          program call               : /lustre/hpc/kemi/ree/PhD/git/ReactivityQM/dep/xtb-6.5.1/bin/xtb --gfn 1 /lustre/hpc/kemi/ree/PhD/git/ReactivityQM/calculations/R02oxygendeprot/reac01prodN18/conf06/R02oxygendeprot_reac01prodN18_conf06_gfn1.xyz --opt --vfukui --chrg 0 --uhf 0 --alpb DMSO

   ID    Z sym.   atoms
    1    6 C      1, 3, 5, 6, 8, 11-15, 17, 19, 22, 23
    2    8 O      2, 4, 7, 9, 18, 24
    3    7 N      10, 16, 20, 21, 25
    4    1 H      26-42

      * Solvation model:               ALPB
        Solvent                        DMSO
        Solvent mass                       7.8130E+01 g/mol
          :  Hamiltonian                  GFN1-xTB          :
 * total energy  :   -82.9250817 Eh     change       -0.7148060E-11 Eh
 * total energy  :   -82.9409819 Eh     change       -0.1590018E-01 Eh
 * total energy  :   -82.9477555 Eh     change       -0.6773620E-02 Eh
 * total energy  :   -82.9491546 Eh     change       -0.1399058E-02 Eh
 * total energy  :   -82.9500331 Eh     change       -0.8785632E-03 Eh
 * total energy  :   -82.9505810 Eh     change       -0.5478596E-03 Eh
 * total energy  :   -82.9510126 Eh     change       -0.4315596E-03 Eh
 * total energy  :   -82.9513299 Eh     change       -0.3173404E-03 Eh
 * total energy  :   -82.9515272 Eh     change       -0.1972825E-03 Eh
 * total energy  :   -82.9516330 Eh     change       -0.1057728E-03 Eh
 * total energy  :   -82.9523154 Eh     change       -0.1095612E-04 Eh
 * total energy  :   -82.9523252 Eh     change       -0.9813659E-05 Eh
 * total energy  :   -82.9523370 Eh     change       -0.1178347E-04 Eh
 * total energy  :   -82.9523514 Eh     change       -0.1436217E-04 Eh
 * total energy  :   -82.9523679 Eh     change       -0.1650714E-04 Eh
 * total energy  :   -82.9523837 Eh     change       -0.1582630E-04 Eh
 * total energy  :   -82.9523903 Eh     change       -0.6543117E-05 Eh
 * total energy  :   -82.9523956 Eh     change       -0.5301378E-05 Eh
 * total energy  :   -82.9524003 Eh     change       -0.4716397E-05 Eh
   *** GEOMETRY OPTIMIZATION CONVERGED AFTER 43 ITERATIONS ***

 final structure:
================
42
 xtb: 6.5.1 (579679a)
C            6.68505831939637       -0.08139176926447        0.89418356322097
O            5.46597367365089       -0.08414062491629        0.15416177666270
C            4.33779991267220       -0.20568145613647        0.87315405867968
O            4.35183083907663       -0.31068145633261        2.08662859613849
C            3.11346938523959       -0.17283944337044        0.06575891414560
C            3.08400614357508       -0.15480887807902       -1.34241652645440
O            4.02635858830215       -0.14977110817284       -2.13788121673720
C            1.68425880214683       -0.22511369178460       -1.94410326895041
O            1.34573169414764       -0.56734273451082       -3.03024319980749
N            0.60161878352545        0.31426076854318       -1.03514830574524
C            0.68517434933196        1.79858022919297       -1.18350759650213
C            0.79584082751898       -0.09702154309383        0.37930200050238
C           -0.42892892650162       -0.34742573785581        1.23395165316223
C           -0.36535793566308        0.52895456572363        2.49198288796032
C           -0.41687165615043       -1.83034797172831        1.63801147439844
N           -1.66581103949070       -0.13496097244391        0.47627833932657
C           -2.31784916481955        1.04672822528397        0.34844620524793
O           -1.85388612923687        2.14388891000205        0.61135718351068
C           -3.68238276388830        0.88668481614286       -0.20187724006032
N           -4.54636705032527        1.81867202837347       -0.45914587117458
N           -5.66463088219028        1.20059691025151       -0.92593977410309
C           -5.41776647545536       -0.07302092968542       -0.92481640409920
C           -6.31691666926098       -1.17189198375817       -1.33684424500751
O           -4.17965693275665       -0.33865632991271       -0.47788678725336
N            1.95959084470844       -0.28020754942700        0.82448618557031
H            6.80571521633891       -1.02453691799178        1.43395394918627
H            7.49128518918040        0.04276541372050        0.17299652015585
H            6.69250727583821        0.74407041993890        1.61127751165209
H           -0.30292874105534       -0.00712562843715       -1.37860147702408
H           -0.09086329765374        2.24660626208015       -0.56909597531103
H            0.53059813428833        2.03854242718472       -2.23245561764094
H            1.66772470543936        2.12787261570651       -0.85286774237430
H           -0.27546600150056        1.58139576433562        2.23266773766488
H           -1.26138968029101        0.38025735640471        3.09109028867277
H            0.50909869127770        0.23537663119584        3.07181162066325
H           -1.25731806166612       -2.03890392411834        2.29695689958246
H           -0.49083447763017       -2.46289058285666        0.75523910613335
H            0.51316302071654       -2.05657209180563        2.15785712194617
H           -2.20094518680080       -0.96523212312153        0.27461685453992
H           -5.84324314563395       -1.76609350898068       -2.11833378049861
H           -6.51276268630935       -1.82763159936584       -0.48815436263074
H           -7.25462649208240       -0.76096078690794       -1.70390205735125

          :  Hamiltonian                  GFN1-xTB          :
         :: total energy             -82.952400287577 Eh    ::
         :: gradient norm              0.000918307307 Eh/a0 ::
         :: HOMO-LUMO gap              1.641153077852 eV    ::
         :: SCC energy               -83.733065081530 Eh    ::
         :: -> Gsolv                  -0.072840592510 Eh    ::
         :: repulsion energy           0.807817285928 Eh    ::

    * Orbital Energies and Occupations

         #    Occupation            Energy/Eh            Energy/eV
      -------------------------------------------------------------
         1        2.0000           -0.8746804             -23.8013
       ...           ...                  ...                  ...
        55        2.0000           -0.5078269             -13.8187
        56        2.0000           -0.5038476             -13.7104
        57        2.0000           -0.5028035             -13.6820
        58        2.0000           -0.4840480             -13.1716
        59        2.0000           -0.4826856             -13.1345
        60        2.0000           -0.4751646             -12.9299
        61        2.0000           -0.4714786             -12.8296
        62        2.0000           -0.4675570             -12.7229
        63        2.0000           -0.4621542             -12.5759
        64        2.0000           -0.4565884             -12.4244
        65        2.0000           -0.4544773             -12.3670
        66        2.0000           -0.4293068             -11.6820
        67        2.0000           -0.4095090             -11.1433 (HOMO)
        68                         -0.3491978              -9.5022 (LUMO)
        69                         -0.3192498              -8.6872
        70                         -0.2879533              -7.8356
        71                         -0.2599818              -7.0745
        72                         -0.2500958              -6.8055
        73                         -0.2067429              -5.6258
        74                         -0.1640220              -4.4633
        75                         -0.1483531              -4.0369
        76                         -0.1427498              -3.8844
        77                         -0.1375667              -3.7434
        78                         -0.1334922              -3.6325
       ...                                ...                  ...
       134                          0.7717434              21.0002
      -------------------------------------------------------------
                  HL-Gap            0.0603113 Eh            1.6412 eV

Wiberg/Mayer (AO) data.
largest (>0.10) Wiberg bond orders for each atom

     #   Z sym  total        # sym  WBO       # sym  WBO       # sym  WBO
 ---------------------------------------------------------------------------
     1   6 C    3.884 --    27 H    0.986    28 H    0.980    26 H    0.980
                             2 O    0.910
     2   8 O    2.181 --     3 C    1.081     1 C    0.910     4 O    0.121
     3   6 C    3.860 --     4 O    1.608     2 O    1.081     5 C    1.074
     4   8 O    1.882 --     3 C    1.608     2 O    0.121
     5   6 C    3.906 --     6 C    1.297    25 N    1.119     3 C    1.074
                             7 O    0.152
     6   6 C    3.942 --     7 O    1.548     5 C    1.297     8 C    0.921
     7   8 O    1.890 --     6 C    1.548     5 C    0.152
     8   6 C    3.783 --     9 O    1.850     6 C    0.921    10 N    0.838
     9   8 O    2.066 --     8 C    1.850
    10   7 N    3.606 --    11 C    0.880    29 H    0.877    12 C    0.856
                             8 C    0.838
    11   6 C    3.883 --    32 H    0.985    31 H    0.982    30 H    0.965
                            10 N    0.880
    12   6 C    3.891 --    25 N    1.780    13 C    0.979    10 N    0.856
    13   6 C    3.932 --    14 C    0.980    15 C    0.979    12 C    0.979
                            16 N    0.928
    14   6 C    3.986 --    34 H    0.984    35 H    0.983    13 C    0.980
                            33 H    0.980
    15   6 C    3.986 --    37 H    0.984    36 H    0.983    38 H    0.982
                            13 C    0.979
    16   7 N    3.332 --    17 C    1.236    13 C    0.928    39 H    0.891
                            18 O    0.168
    17   6 C    3.913 --    18 O    1.583    16 N    1.236    19 C    1.001
    18   8 O    1.918 --    17 C    1.583    16 N    0.168
    19   6 C    3.875 --    20 N    1.617    24 O    1.046    17 C    1.001
    20   7 N    3.004 --    19 C    1.617    21 N    1.205
    21   7 N    2.982 --    22 C    1.604    20 N    1.205
    22   6 C    3.866 --    21 N    1.604    24 O    1.073    23 C    1.033
    23   6 C    3.985 --    22 C    1.033    42 H    0.982    40 H    0.963
                            41 H    0.961
    24   8 O    2.318 --    22 C    1.073    19 C    1.046
    25   7 N    3.082 --    12 C    1.780     5 C    1.119
    26   1 H    1.010 --     1 C    0.980
    27   1 H    1.013 --     1 C    0.986
    28   1 H    1.010 --     1 C    0.980
    29   1 H    0.938 --    10 N    0.877
    30   1 H    1.008 --    11 C    0.965
    31   1 H    0.992 --    11 C    0.982
    32   1 H    0.997 --    11 C    0.985
    33   1 H    1.013 --    14 C    0.980
    34   1 H    0.998 --    14 C    0.984
    35   1 H    1.005 --    14 C    0.983
    36   1 H    0.996 --    15 C    0.983
    37   1 H    0.998 --    15 C    0.984
    38   1 H    1.005 --    15 C    0.982
    39   1 H    0.934 --    16 N    0.891
    40   1 H    0.996 --    23 C    0.963
    41   1 H    0.996 --    23 C    0.961
    42   1 H    0.998 --    23 C    0.982
 ---------------------------------------------------------------------------

           -------------------------------------------------
          | TOTAL ENERGY              -82.952400287577 Eh   |
          | GRADIENT NORM               0.000918307307 Eh/α |
          | HOMO-LUMO GAP               1.641153077852 eV   |
           -------------------------------------------------

 * finished run on 2023/06/21 at 17:38:13.301
