   * xtb version 6.5.1 (579679a) compiled by 'ehlert@majestix' on 2022-07-11
          program call               : /lustre/hpc/kemi/ree/PhD/applications/universalRXNpredictor/dep/xtb-6.5.1/bin/xtb --gfn 2 /lustre/hpc/kemi/ree/PhD/applications/universalRXNpredictor/src/uniRXNpred/test/calc/methyl_anion/methyl_anion.xyz --opt --vfukui --lmo --chrg -1 --uhf 0 --alpb DMSO

   ID    Z sym.   atoms
    1    6 C      1
    2    1 H      2-4

      * Solvation model:               ALPB
        Solvent                        DMSO
        Solvent mass                       7.8130E+01 g/mol
          :  Hamiltonian                  GFN2-xTB          :
 * total energy  :    -3.8247510 Eh     change       -0.6910916E-11 Eh
 * total energy  :    -3.8280780 Eh     change       -0.3327035E-02 Eh
 * total energy  :    -3.8287385 Eh     change       -0.6604253E-03 Eh
 * total energy  :    -3.8287641 Eh     change       -0.2560797E-04 Eh
 * total energy  :    -3.8287644 Eh     change       -0.3696539E-06 Eh
   *** GEOMETRY OPTIMIZATION CONVERGED AFTER 5 ITERATIONS ***

 final structure:
================
4
 xtb: 6.5.1 (579679a)
C            0.00140782207760        0.00052067376240        0.38678463997200
H            1.00192899021852       -0.22994145843573       -0.13242479441142
H           -0.70121674649825       -0.75394300247219       -0.12530751003650
H           -0.30212006579786        0.98336278714552       -0.12905133552408

          :  Hamiltonian                  GFN2-xTB          :
         :: total energy              -3.828764434637 Eh    ::
         :: gradient norm              0.000338263954 Eh/a0 ::
         :: HOMO-LUMO gap             11.488135172948 eV    ::
         :: SCC energy                -3.860654791186 Eh    ::
         :: -> dispersion             -0.001797001627 Eh    ::
         :: -> Gsolv                  -0.111837631578 Eh    ::
         :: repulsion energy           0.031890354735 Eh    ::

    * Orbital Energies and Occupations

         #    Occupation            Energy/Eh            Energy/eV
      -------------------------------------------------------------
         1        2.0000           -0.4713041             -12.8248
         2        2.0000           -0.3721016             -10.1254
         3        2.0000           -0.3720157             -10.1231
         4        2.0000           -0.2273089              -6.1854 (HOMO)
         5                          0.1948723               5.3027 (LUMO)
         6                          0.1950665               5.3080
         7                          0.2054164               5.5897
      -------------------------------------------------------------
                  HL-Gap            0.4221812 Eh           11.4881 eV

     #   Z          covCN         q      C6AA      α(0)
     1   6 C        2.735    -0.225    33.982     9.544
     2   1 H        0.912    -0.258    16.469     6.348
     3   1 H        0.911    -0.259    16.526     6.359
     4   1 H        0.912    -0.258    16.485     6.351

Wiberg/Mayer (AO) data.
largest (>0.10) Wiberg bond orders for each atom

     #   Z sym  total        # sym  WBO       # sym  WBO       # sym  WBO
 ---------------------------------------------------------------------------
     1   6 C    2.799 --     2 H    0.933     4 H    0.933     3 H    0.933
     2   1 H    0.933 --     1 C    0.933
     3   1 H    0.933 --     1 C    0.933
     4   1 H    0.933 --     1 C    0.933
 ---------------------------------------------------------------------------

molecular dipole:
                 x           y           z       tot (Debye)
 q only:        0.001       0.000       0.025
   full:       -0.002      -0.001      -0.706       1.795

           -------------------------------------------------
          | TOTAL ENERGY               -3.828764434637 Eh   |
          | GRADIENT NORM               0.000338263954 Eh/α |
          | HOMO-LUMO GAP              11.488135172948 eV   |
           -------------------------------------------------

 * finished run on 2022/12/12 at 12:39:40.135
