                         Program Version 5.0.1 -  RELEASE  -
|  1> # ORCA input file
|  2> ! OPT NumFreq r2SCAN-3c CPCM
|  3>
|  4> %maxcore 7500.0
|  5> %pal nprocs True end
|  6> %cpcm smd true SMDsolvent "DMSO" end
|  7>
|  8> *xyz -1 1
|  9> C       0.001408    0.000521    0.386785
| 10> H       1.001929   -0.229941   -0.132425
| 11> H      -0.701217   -0.753943   -0.125308
| 12> H      -0.302120    0.983363   -0.129051
| 13> **                         ****END OF INPUT****
 Total Charge           Charge          ....   -1
 Multiplicity           Mult            ....    1
 Number of Electrons    NEL             ....   10
Dispersion correction           -0.000280746
FINAL SINGLE POINT ENERGY       -39.924079997593
Dispersion correction            ... Starting D4
Dispersion correction           -0.000279478
FINAL SINGLE POINT ENERGY       -39.926918030947
Dispersion correction            ... Starting D4
Dispersion correction           -0.000279264
FINAL SINGLE POINT ENERGY       -39.927357025904
Dispersion correction            ... Starting D4
Dispersion correction           -0.000279326
FINAL SINGLE POINT ENERGY       -39.927559307258
Dispersion correction            ... Starting D4
Dispersion correction           -0.000279388
FINAL SINGLE POINT ENERGY       -39.927573877649
Dispersion correction            ... Starting D4
                    ***********************HURRAY********************

CARTESIAN COORDINATES (ANGSTROEM)
---------------------------------
  C      0.000843    0.000276    0.317949
  H      0.993338   -0.227632   -0.109569
  H     -0.695071   -0.747340   -0.102270
  H     -0.299111    0.974696   -0.106109

 Multiplicity           Mult            ....    1
 Number of Electrons    NEL             ....   10
 Basis Dimension        Dim             ....   34

ORBITAL ENERGIES
----------------

  NO   OCC          E(Eh)            E(eV)
   0   2.0000      -9.942618      -270.5524
   1   2.0000      -0.569593       -15.4994
   2   2.0000      -0.297084        -8.0841
   3   2.0000      -0.296834        -8.0773
   4   2.0000      -0.131011        -3.5650
   5   0.0000       0.121724         3.3123
   6   0.0000       0.190418         5.1815
   7   0.0000       0.190583         5.1860
   8   0.0000       0.247532         6.7357
   9   0.0000       0.253983         6.9112

MULLIKEN ATOMIC CHARGES
-----------------------
   0 C :   -1.338557
   1 H :    0.112785
   2 H :    0.113004
   3 H :    0.112768
Sum of atomic charges:   -1.0000000

LOEWDIN ATOMIC CHARGES
----------------------
   0 C :   -1.331979
   1 H :    0.110653
   2 H :    0.110691
   3 H :    0.110636

  Mayer bond orders larger than 0.100000
B(  0-C ,  1-H ) :   0.9813 B(  0-C ,  2-H ) :   0.9812 B(  0-C ,  3-H ) :   0.9813

Dispersion correction           -0.000279394
FINAL SINGLE POINT ENERGY       -39.927573990301

DIPOLE MOMENT
-------------
                                X             Y             Z
Electronic contribution:     -0.00106       0.00009      -0.14828
Nuclear contribution   :     -0.00253      -0.00083      -0.95319
                        -----------------------------------------
Total Dipole Moment    :     -0.00359      -0.00074      -1.10147
                        -----------------------------------------
Magnitude (a.u.)       :      1.10148
Magnitude (Debye)      :      2.79973

VIBRATIONAL FREQUENCIES
-----------------------

Scaling factor for frequencies =  1.000000000 (already applied!)

   0:         0.00 cm**-1
   1:         0.00 cm**-1
   2:         0.00 cm**-1
   3:         0.00 cm**-1
   4:         0.00 cm**-1
   5:         0.00 cm**-1
   6:       944.40 cm**-1
   7:      1425.25 cm**-1
   8:      1432.73 cm**-1
   9:      2924.54 cm**-1
  10:      3002.78 cm**-1
  11:      3003.67 cm**-1

IR SPECTRUM
-----------

 Mode   freq       eps      Int      T**2         TX        TY        TZ
       cm**-1   L/(mol*cm) km/mol    a.u.
----------------------------------------------------------------------------
  6:    944.40   0.038279  193.45  0.012649  ( 0.000136 -0.000074  0.112467)
  7:   1425.25   0.000570    2.88  0.000125  ( 0.009729 -0.005458  0.000617)
  8:   1432.73   0.000536    2.71  0.000117  (-0.005598 -0.009230 -0.000425)
  9:   2924.54   0.016016   80.94  0.001709  ( 0.000308  0.000075 -0.041339)
 10:   3002.78   0.025682  129.79  0.002669  (-0.043879  0.027270  0.000140)
 11:   3003.67   0.025861  130.69  0.002687  (-0.027625 -0.043857 -0.000429)

--------------------------
THERMOCHEMISTRY AT 298.15K
--------------------------

Temperature         ... 298.15 K
Pressure            ... 1.00 atm
Total Mass          ... 15.03 AMU

Throughout the following assumptions are being made:
  (1) The electronic state is orbitally nondegenerate
  (2) There are no thermally accessible electronically excited states
  (3) Hindered rotations indicated by low frequency modes are not
      treated as such but are treated as vibrations and this may
      cause some error
  (4) All equations used are the standard statistical mechanics
      equations for an ideal gas
  (5) All vibrations are strictly harmonic

freq.     944.40  E(vib)   ...       0.03
freq.    1425.25  E(vib)   ...       0.00
freq.    1432.73  E(vib)   ...       0.00
freq.    2924.54  E(vib)   ...       0.00
freq.    3002.78  E(vib)   ...       0.00
freq.    3003.67  E(vib)   ...       0.00

------------
INNER ENERGY
------------

The inner energy is: U= E(el) + E(ZPE) + E(vib) + E(rot) + E(trans)
    E(el)   - is the total energy from the electronic structure calculation
              = E(kin-el) + E(nuc-el) + E(el-el) + E(nuc-nuc)
    E(ZPE)  - the the zero temperature vibrational energy from the frequency calculation
    E(vib)  - the the finite temperature correction to E(ZPE) due to population
              of excited vibrational states
    E(rot)  - is the rotational thermal energy
    E(trans)- is the translational thermal energy

Summary of contributions to the inner energy U:
Electronic energy                ...    -39.92757399 Eh
Zero point energy                ...      0.02900875 Eh      18.20 kcal/mol
Thermal vibrational correction   ...      0.00005884 Eh       0.04 kcal/mol
Thermal rotational correction    ...      0.00141627 Eh       0.89 kcal/mol
Thermal translational correction ...      0.00141627 Eh       0.89 kcal/mol
-----------------------------------------------------------------------
Total thermal energy                    -39.89567385 Eh

Summary of corrections to the electronic energy:
(perhaps to be used in another calculation)
Total thermal correction                  0.00289138 Eh       1.81 kcal/mol
Non-thermal (ZPE) correction              0.02900875 Eh      18.20 kcal/mol
-----------------------------------------------------------------------
Total correction                          0.03190014 Eh      20.02 kcal/mol

--------
ENTHALPY
--------

The enthalpy is H = U + kB*T
                kB is Boltzmann's constant
Total free energy                 ...    -39.89567385 Eh
Thermal Enthalpy correction       ...      0.00094421 Eh       0.59 kcal/mol
-----------------------------------------------------------------------
Total Enthalpy                    ...    -39.89472964 Eh

Note: Only C1 symmetry has been detected, increase convergence thresholds
      if your molecule has a higher symmetry. Symmetry factor of 1.0 is
      used for the rotational entropy correction.

Note: Rotational entropy computed according to Herzberg
Infrared and Raman Spectra, Chapter V,1, Van Nostrand Reinhold, 1945
Point Group:  C1, Symmetry Number:   1
Rotational constants in cm-1:     8.409474     8.393626     5.360714

Vibrational entropy computed according to the QRRHO of S. Grimme
Chem.Eur.J. 2012 18 9955

-------
ENTROPY
-------

The entropy contributions are T*S = T*(S(el)+S(vib)+S(rot)+S(trans))
     S(el)   - electronic entropy
     S(vib)  - vibrational entropy
     S(rot)  - rotational entropy
     S(trans)- translational entropy
The entropies will be listed as multiplied by the temperature to get
units of energy

Electronic entropy                ...      0.00000000 Eh      0.00 kcal/mol
Vibrational entropy               ...      0.00007074 Eh      0.04 kcal/mol
Rotational entropy                ...      0.00670851 Eh      4.21 kcal/mol
Translational entropy             ...      0.01618771 Eh     10.16 kcal/mol
-----------------------------------------------------------------------
Final entropy term                ...      0.02296697 Eh     14.41 kcal/mol

In case the symmetry of your molecule has not been determined correctly
or in case you have a reason to use a different symmetry number we print
out the resulting rotational entropy values for sn=1,12 :
 --------------------------------------------------------
|  sn= 1 | S(rot)=       0.00670851 Eh      4.21 kcal/mol|
|  sn= 2 | S(rot)=       0.00605406 Eh      3.80 kcal/mol|
|  sn= 3 | S(rot)=       0.00567123 Eh      3.56 kcal/mol|
|  sn= 4 | S(rot)=       0.00539960 Eh      3.39 kcal/mol|
|  sn= 5 | S(rot)=       0.00518891 Eh      3.26 kcal/mol|
|  sn= 6 | S(rot)=       0.00501677 Eh      3.15 kcal/mol|
|  sn= 7 | S(rot)=       0.00487122 Eh      3.06 kcal/mol|
|  sn= 8 | S(rot)=       0.00474515 Eh      2.98 kcal/mol|
|  sn= 9 | S(rot)=       0.00463394 Eh      2.91 kcal/mol|
|  sn=10 | S(rot)=       0.00453446 Eh      2.85 kcal/mol|
|  sn=11 | S(rot)=       0.00444447 Eh      2.79 kcal/mol|
|  sn=12 | S(rot)=       0.00436231 Eh      2.74 kcal/mol|
 --------------------------------------------------------

-------------------
GIBBS FREE ENERGY
-------------------

The Gibbs free energy is G = H - T*S

Total enthalpy                    ...    -39.89472964 Eh
Total entropy correction          ...     -0.02296697 Eh    -14.41 kcal/mol
-----------------------------------------------------------------------
Final Gibbs free energy         ...    -39.91769661 Eh

For completeness - the Gibbs free energy minus the electronic energy
G-E(el)                           ...      0.00987738 Eh      6.20 kcal/mol

                             ****ORCA TERMINATED NORMALLY****
TOTAL RUN TIME: 0 days 0 hours 1 minutes 58 seconds 888 msec
