   * xtb version 6.5.1 (579679a) compiled by 'ehlert@majestix' on 2022-07-11
          program call               : /lustre/hpc/kemi/ree/PhD/git/ReactivityQM/dep/xtb-6.5.1/bin/xtb --gfn 1 /lustre/hpc/kemi/ree/PhD/git/ReactivityQM/calculations/R02methylcation/reac01prodE03/conf09/R02methylcation_reac01prodE03_conf09_gfn1.xyz --opt --vfukui --chrg -2 --uhf 0 --alpb DMSO

   ID    Z sym.   atoms
    1    6 C      1, 3, 5, 6, 8-11, 13, 15, 18, 19, 22, 24
    2    8 O      2, 4, 14, 20, 23, 25
    3    7 N      7, 12, 16, 17, 21
    4    1 H      26-42

      * Solvation model:               ALPB
        Solvent                        DMSO
        Solvent mass                       7.8130E+01 g/mol
          :  Hamiltonian                  GFN1-xTB          :
 * total energy  :   -83.5556550 Eh     change       -0.1361713E-08 Eh
 * total energy  :   -83.5684182 Eh     change       -0.1276312E-01 Eh
 * total energy  :   -83.5738079 Eh     change       -0.5389733E-02 Eh
 * total energy  :   -83.5752275 Eh     change       -0.1419653E-02 Eh
 * total energy  :   -83.5763709 Eh     change       -0.1143391E-02 Eh
 * total energy  :   -83.5769681 Eh     change       -0.5971239E-03 Eh
 * total energy  :   -83.5774005 Eh     change       -0.4324513E-03 Eh
 * total energy  :   -83.5777163 Eh     change       -0.3157717E-03 Eh
 * total energy  :   -83.5779052 Eh     change       -0.1889316E-03 Eh
 * total energy  :   -83.5780294 Eh     change       -0.1241946E-03 Eh
 * total energy  :   -83.5834191 Eh     change       -0.1200593E-04 Eh
 * total energy  :   -83.5834337 Eh     change       -0.1457749E-04 Eh
 * total energy  :   -83.5834472 Eh     change       -0.1349550E-04 Eh
 * total energy  :   -83.5834568 Eh     change       -0.9586422E-05 Eh
 * total energy  :   -83.5834659 Eh     change       -0.9106207E-05 Eh
 * total energy  :   -83.5834742 Eh     change       -0.8327764E-05 Eh
 * total energy  :   -83.5834810 Eh     change       -0.6798678E-05 Eh
 * total energy  :   -83.5834864 Eh     change       -0.5393031E-05 Eh
 * total energy  :   -83.5834910 Eh     change       -0.4629360E-05 Eh
   *** GEOMETRY OPTIMIZATION CONVERGED AFTER 56 ITERATIONS ***

 final structure:
================
42
 xtb: 6.5.1 (579679a)
C           -5.44512261827692        1.28771615100076        1.70649934149699
O           -5.15485388732026        0.19425946216090        0.83791974030678
C           -3.93258640036764        0.23261371552049        0.19056054695644
O           -3.96741869429480        0.86774574029024       -1.05777533337069
C           -4.88174774057176        0.32664775031883       -1.99655873113178
C           -2.75103129427396       -0.29225381454608        0.67820422806923
N           -1.67090630587421       -0.25207496898237       -0.20830592106937
C           -0.54339434303644       -0.77574063241694        0.13728853198792
C            0.62563619340477       -0.78304839880940       -0.83474989550754
C            0.70024525381588       -2.17666509833641       -1.48082973890694
C            0.41554273984647        0.29792893800178       -1.90456603733414
N            1.84025627409136       -0.52759822694355       -0.05422142337264
C            3.07928997090128       -0.35936374855629       -0.69022816124945
O            3.33336827165435       -0.81219566641024       -1.82661524565020
C            4.00512347153134        0.33178516451743        0.14961772605794
N            3.74589158366512        0.85042968420548        1.35503815179933
N            4.91055578104926        1.42365854647453        1.78867092405734
C            5.79725893620053        1.24080803541216        0.86634362618237
C            7.21353330264211        1.68460647343695        0.88538201250230
O            5.31983864254128        0.56396611810502       -0.20560911407255
N           -0.35568320018315       -1.38932394414816        1.33696791209699
C           -1.32939175713707       -1.43886464775833        2.34841267440200
O           -1.00720656311882       -1.99779288701933        3.42983384788745
C           -2.60433658150914       -0.83935414707022        2.02431390504137
O           -3.54377208264171       -0.78335956517927        2.89091975497411
H           -6.47684860994060        1.16582280995046        2.04120785895282
H           -4.77858795462327        1.28327325942320        2.57824004426333
H           -5.35020695505006        2.24665977154019        1.18283751262611
H           -4.58775785888029       -0.68597035689284       -2.30586595133369
H           -5.89940305508759        0.28904455189487       -1.58845657239803
H           -4.87502002506042        0.98113811509383       -2.86979907046544
H           -0.25157329322908       -2.40710129265278       -1.95907820649888
H            0.90286467780039       -2.92788900272132       -0.71792546710005
H            1.48817688296375       -2.21522064752128       -2.23078039852852
H            0.41571886972485        1.28558056646637       -1.44336838948574
H           -0.54755593772946        0.14214797715678       -2.39049557732476
H            1.20488072792341        0.25300011786011       -2.65301831706480
H            1.70371342175773        0.13118213932620        0.70654890061631
H            7.41655583524938        2.21386971946956        1.81361394204565
H            7.88193752640769        0.82641182792966        0.80709993084747
H            7.41595789951456        2.34576675483528        0.04230452824818
H            0.53805989552096       -1.80224734441979        1.55198691045151

          :  Hamiltonian                  GFN1-xTB          :
         :: total energy             -83.583491048264 Eh    ::
         :: gradient norm              0.000566560281 Eh/a0 ::
         :: HOMO-LUMO gap              0.040152000375 eV    ::
         :: SCC energy               -84.305819695794 Eh    ::
         :: -> Gsolv                  -0.269276467364 Eh    ::
         :: repulsion energy           0.747546508934 Eh    ::

    * Orbital Energies and Occupations

         #    Occupation            Energy/Eh            Energy/eV
      -------------------------------------------------------------
         1        2.0000           -0.8015790             -21.8121
       ...           ...                  ...                  ...
        56        2.0000           -0.4337417             -11.8027
        57        2.0000           -0.4299728             -11.7002
        58        2.0000           -0.4231970             -11.5158
        59        2.0000           -0.4087825             -11.1235
        60        2.0000           -0.4062286             -11.0540
        61        2.0000           -0.4047528             -11.0139
        62        2.0000           -0.4031343             -10.9698
        63        2.0000           -0.3978488             -10.8260
        64        2.0000           -0.3892107             -10.5910
        65        2.0000           -0.3776113             -10.2753
        66        2.0000           -0.3466205              -9.4320
        67        2.0000           -0.3423413              -9.3156
        68        1.3699           -0.2688093              -7.3147 (HOMO)
        69        0.6301           -0.2673338              -7.2745 (LUMO)
        70                         -0.2103923              -5.7251
        71                         -0.2066308              -5.6227
        72                         -0.1799304              -4.8962
        73                         -0.1408509              -3.8327
        74                         -0.1243618              -3.3841
        75                         -0.1131398              -3.0787
        76                         -0.1030527              -2.8042
        77                         -0.0974025              -2.6505
        78                         -0.0927699              -2.5244
        79                         -0.0763905              -2.0787
       ...                                ...                  ...
       134                          0.7275258              19.7970
      -------------------------------------------------------------
                  HL-Gap            0.0014756 Eh            0.0402 eV

Wiberg/Mayer (AO) data.
largest (>0.10) Wiberg bond orders for each atom

     #   Z sym  total        # sym  WBO       # sym  WBO       # sym  WBO
 ---------------------------------------------------------------------------
     1   6 C    3.903 --    26 H    0.987    28 H    0.984    27 H    0.978
                             2 O    0.924
     2   8 O    2.019 --     3 C    0.962     1 C    0.924
     3   6 C    3.543 --     6 C    1.465     2 O    0.962     4 O    0.937
     4   8 O    2.008 --     5 C    0.941     3 C    0.937
     5   6 C    3.914 --    31 H    0.986    29 H    0.981    30 H    0.981
                             4 O    0.941
     6   6 C    3.942 --     3 C    1.465    24 C    1.121     7 N    1.109
     7   7 N    2.963 --     8 C    1.579     6 C    1.109    21 N    0.111
     8   6 C    3.913 --     7 N    1.579    21 N    1.161     9 C    0.975
     9   6 C    3.950 --    11 C    0.991    10 C    0.984     8 C    0.975
                            12 N    0.940
    10   6 C    3.991 --    32 H    0.988    33 H    0.986     9 C    0.984
                            34 H    0.980
    11   6 C    3.993 --     9 C    0.991    35 H    0.987    37 H    0.985
                            36 H    0.984
    12   7 N    3.144 --    13 C    1.078     9 C    0.940    38 H    0.918
                            14 O    0.108
    13   6 C    3.749 --    14 O    1.449    15 C    1.154    12 N    1.078
    14   8 O    1.692 --    13 C    1.449    12 N    0.108
    15   6 C    3.694 --    16 N    1.393    13 C    1.154    20 O    0.977
    16   7 N    2.742 --    15 C    1.393    17 N    1.184
    17   7 N    2.980 --    18 C    1.629    16 N    1.184
    18   6 C    3.820 --    17 N    1.629    20 O    1.050    19 C    1.024
    19   6 C    3.994 --    18 C    1.024    39 H    0.986    41 H    0.971
                            40 H    0.971
    20   8 O    2.184 --    18 C    1.050    15 C    0.977
    21   7 N    3.385 --     8 C    1.161    22 C    1.039    42 H    0.907
                             7 N    0.111
    22   6 C    3.778 --    23 O    1.423    24 C    1.147    21 N    1.039
    23   8 O    1.649 --    22 C    1.423
    24   6 C    3.810 --    25 O    1.374    22 C    1.147     6 C    1.121
    25   8 O    1.602 --    24 C    1.374
    26   1 H    1.021 --     1 C    0.987
    27   1 H    1.043 --     1 C    0.978
    28   1 H    1.016 --     1 C    0.984
    29   1 H    1.014 --     5 C    0.981
    30   1 H    1.021 --     5 C    0.981
    31   1 H    1.020 --     5 C    0.986
    32   1 H    1.008 --    10 C    0.988
    33   1 H    1.010 --    10 C    0.986
    34   1 H    1.023 --    10 C    0.980
    35   1 H    1.010 --    11 C    0.987
    36   1 H    1.022 --    11 C    0.984
    37   1 H    1.014 --    11 C    0.985
    38   1 H    0.979 --    12 N    0.918
    39   1 H    1.004 --    19 C    0.986
    40   1 H    1.001 --    19 C    0.971
    41   1 H    1.001 --    19 C    0.971
    42   1 H    0.966 --    21 N    0.907
 ---------------------------------------------------------------------------

           -------------------------------------------------
          | TOTAL ENERGY              -83.583491048264 Eh   |
          | GRADIENT NORM               0.000566560281 Eh/α |
          | HOMO-LUMO GAP               0.040152000375 eV   |
           -------------------------------------------------

 * finished run on 2023/06/21 at 17:07:26.099
