   * xtb version 6.5.1 (579679a) compiled by 'ehlert@majestix' on 2022-07-11
          program call               : /lustre/hpc/kemi/ree/PhD/git/ReactivityQM/dep/xtb-6.5.1/bin/xtb --gfn 1 /lustre/hpc/kemi/ree/PhD/git/ReactivityQM/calculations/RaltegravirCLI/reac01prodN01/conf03/RaltegravirCLI_reac01prodN01_conf03_gfn1.xyz --opt --vfukui --chrg 1 --uhf 0 --alpb DMSO

   ID    Z sym.   atoms
    1    6 C      1, 2, 5, 6, 10
    2    7 N      3, 4
    3    8 O      7, 9
    4   17 Cl     8
    5    1 H      11-16

      * Solvation model:               ALPB
        Solvent                        DMSO
        Solvent mass                       7.8130E+01 g/mol
          :  Hamiltonian                  GFN1-xTB          :
 * total energy  :   -33.3497101 Eh     change       -0.6494361E-11 Eh
 * total energy  :   -33.3637329 Eh     change       -0.1402273E-01 Eh
 * total energy  :   -33.3698052 Eh     change       -0.6072385E-02 Eh
 * total energy  :   -33.3715214 Eh     change       -0.1716189E-02 Eh
 * total energy  :   -33.3724870 Eh     change       -0.9655472E-03 Eh
 * total energy  :   -33.3729865 Eh     change       -0.4994854E-03 Eh
 * total energy  :   -33.3732589 Eh     change       -0.2724363E-03 Eh
 * total energy  :   -33.3734576 Eh     change       -0.1987210E-03 Eh
 * total energy  :   -33.3735808 Eh     change       -0.1231234E-03 Eh
 * total energy  :   -33.3736718 Eh     change       -0.9106427E-04 Eh
 * total energy  :   -33.3742431 Eh     change       -0.8510302E-04 Eh
 * total energy  :   -33.3742884 Eh     change       -0.4532626E-04 Eh
 * total energy  :   -33.3743806 Eh     change       -0.9224165E-04 Eh
 * total energy  :   -33.3743774 Eh     change        0.3236368E-05 Eh
 * total energy  :   -33.3744557 Eh     change       -0.7829045E-04 Eh
 * total energy  :   -33.3744840 Eh     change       -0.2835274E-04 Eh
 * total energy  :   -33.3744956 Eh     change       -0.1159863E-04 Eh
 * total energy  :   -33.3745093 Eh     change       -0.1368574E-04 Eh
 * total energy  :   -33.3745142 Eh     change       -0.4854773E-05 Eh
   *** GEOMETRY OPTIMIZATION CONVERGED AFTER 33 ITERATIONS ***

 final structure:
================
16
 xtb: 6.5.1 (579679a)
C            2.36537337755416        0.12111663791259       -0.15158765579710
C            1.11004046121308       -0.53249738846126        0.24153515682830
N            0.93652924690489       -1.65200499808428        0.84121103747825
N           -0.39489242632886       -1.86908995780262        1.00326167136137
C           -1.04229894766670       -0.88253941057041        0.50373633393474
C           -2.50341980147541       -0.64063619549580        0.42570131282393
O           -2.96774141595165        0.34203049498488       -0.07185864497360
Cl          -3.42375091087583       -1.89575485334631        1.10901315775578
O           -0.13266351765618        0.04536814127402       -0.02096569838428
C           -0.44809643133075        1.31966375387020       -0.67556541480527
H            2.45050291391187        1.09939513962825        0.32295897506519
H            3.19799485213635       -0.50831619214893        0.15892282826589
H            2.39903855218672        0.26370137167229       -1.23254995179350
H           -1.05821597321798        1.09302285334344       -1.54704725674327
H           -0.98859024464939        1.92879943447821        0.04523863975689
H            0.50019026524581        1.76774016874564       -0.95200549077331

          :  Hamiltonian                  GFN1-xTB          :
         :: total energy             -33.374514176657 Eh    ::
         :: gradient norm              0.000773513764 Eh/a0 ::
         :: HOMO-LUMO gap              3.143285043413 eV    ::
         :: SCC energy               -33.663880685046 Eh    ::
         :: -> Gsolv                  -0.092275418250 Eh    ::
         :: repulsion energy           0.297182383429 Eh    ::

    * Orbital Energies and Occupations

         #    Occupation            Energy/Eh            Energy/eV
      -------------------------------------------------------------
         1        2.0000           -0.9858198             -26.8255
       ...           ...                  ...                  ...
        15        2.0000           -0.6278855             -17.0856
        16        2.0000           -0.6101099             -16.6019
        17        2.0000           -0.6091534             -16.5759
        18        2.0000           -0.5954938             -16.2042
        19        2.0000           -0.5887256             -16.0200
        20        2.0000           -0.5742784             -15.6269
        21        2.0000           -0.5664901             -15.4150
        22        2.0000           -0.5528687             -15.0443
        23        2.0000           -0.5291033             -14.3976
        24        2.0000           -0.5273257             -14.3493
        25        2.0000           -0.5182359             -14.1019
        26        2.0000           -0.5180095             -14.0958
        27        2.0000           -0.5092277             -13.8568 (HOMO)
        28                         -0.3937141             -10.7135 (LUMO)
        29                         -0.3273401              -8.9074
        30                         -0.2836374              -7.7182
        31                         -0.2440615              -6.6413
        32                         -0.1957189              -5.3258
        33                         -0.1794596              -4.8833
        34                         -0.1319091              -3.5894
        35                         -0.1220981              -3.3225
        36                         -0.1195111              -3.2521
        37                         -0.1114871              -3.0337
        38                         -0.1109320              -3.0186
       ...                                ...                  ...
        57                          0.7020799              19.1046
      -------------------------------------------------------------
                  HL-Gap            0.1155136 Eh            3.1433 eV

Wiberg/Mayer (AO) data.
largest (>0.10) Wiberg bond orders for each atom

     #   Z sym  total        # sym  WBO       # sym  WBO       # sym  WBO
 ---------------------------------------------------------------------------
     1   6 C    3.965 --     2 C    1.047    12 H    0.968    11 H    0.946
                            13 H    0.946
     2   6 C    3.800 --     3 N    1.667     1 C    1.047     9 O    0.888
     3   7 N    3.024 --     2 C    1.667     4 N    1.172
     4   7 N    3.041 --     5 C    1.685     3 N    1.172
     5   6 C    3.815 --     4 N    1.685     6 C    1.005     9 O    0.879
     6   6 C    3.905 --     7 O    1.759     8 Cl   1.094     5 C    1.005
     7   8 O    2.058 --     6 C    1.759     8 Cl   0.169
     8  17 Cl   1.329 --     6 C    1.094     7 O    0.169
     9   8 O    2.658 --     2 C    0.888     5 C    0.879    10 C    0.740
    10   6 C    3.714 --    16 H    0.973    15 H    0.967    14 H    0.966
                             9 O    0.740
    11   1 H    0.986 --     1 C    0.946
    12   1 H    0.987 --     1 C    0.968
    13   1 H    0.986 --     1 C    0.946
    14   1 H    0.994 --    10 C    0.966
    15   1 H    0.994 --    10 C    0.967
    16   1 H    0.988 --    10 C    0.973
 ---------------------------------------------------------------------------

           -------------------------------------------------
          | TOTAL ENERGY              -33.374514176657 Eh   |
          | GRADIENT NORM               0.000773513764 Eh/α |
          | HOMO-LUMO GAP               3.143285043413 eV   |
           -------------------------------------------------

 * finished run on 2023/06/20 at 14:54:05.127
