                         Program Version 5.0.1 -  RELEASE  -
|  1> # ORCA input file
|  2> ! SP r2SCAN-3c CPCM
|  3>
|  4> %maxcore 1875.0
|  5> %pal nprocs 4 end
|  6> %cpcm smd true SMDsolvent "DMSO" end
|  7>
|  8> *xyz 1 1
|  9> C      -4.389482   -1.737865    1.284541
| 10> C      -4.741512   -0.342510    0.700419
| 11> C      -3.815686    0.089188   -0.361622
| 12> C      -3.227751    1.326552   -0.368500
| 13> C      -2.277592    1.719928   -1.484257
| 14> N      -0.989750    1.077290   -1.305567
| 15> C      -0.772218   -0.173217   -1.754661
| 16> O      -1.630626   -0.825525   -2.353091
| 17> C       0.589428   -0.687767   -1.502152
| 18> N       1.406263    0.085954   -0.730651
| 19> C       2.628860   -0.279093   -0.483593
| 20> C       3.413777    0.621919    0.462257
| 21> C       2.615997    1.912105    0.712478
| 22> C       3.627225   -0.103381    1.798272
| 23> N       4.705787    0.966481   -0.118661
| 24> N       3.142389   -1.435779   -0.998327
| 25> C       4.524100   -1.883963   -0.794535
| 26> C       2.384076   -2.323883   -1.764156
| 27> O       2.874440   -3.368040   -2.170485
| 28> C       1.016615   -1.884172   -2.015970
| 29> O       0.254071   -2.693210   -2.759054
| 30> C      -3.487475    2.225209    0.686064
| 31> C      -4.343822    1.903851    1.738871
| 32> C      -4.936828    0.669938    1.747064
| 33> F      -5.738216    0.337066    2.726041
| 34> H      -4.362751   -2.468021    0.479204
| 35> H      -5.147030   -2.021842    2.011696
| 36> H      -3.416948   -1.691174    1.768996
| 37> H      -5.725082   -0.489065    0.217019
| 38> H      -3.612609   -0.621543   -1.156417
| 39> H      -2.686994    1.393213   -2.445007
| 40> H      -2.126692    2.799494   -1.493964
| 41> H      -0.285436    1.525750   -0.738005
| 42> H       1.668017    1.682372    1.195474
| 43> H       2.414384    2.417173   -0.229991
| 44> H       3.192502    2.575618    1.354655
| 45> H       4.239750   -0.993642    1.671596
| 46> H       2.664864   -0.393903    2.216813
| 47> H       4.126252    0.565548    2.497664
| 48> H       4.572284    1.553313   -0.929859
| 49> H       5.254977    1.475505    0.558949
| 50> H       4.539127   -2.680735   -0.050704
| 51> H       4.897998   -2.274204   -1.742047
| 52> H       5.141044   -1.050773   -0.473673
| 53> H      -0.644358   -2.304359   -2.854529
| 54> H      -3.005231    3.196377    0.684278
| 55> H      -4.530134    2.607822    2.540526
| 56> **                         ****END OF INPUT****

CARTESIAN COORDINATES (ANGSTROEM)
---------------------------------
  C     -4.389482   -1.737865    1.284541
  C     -4.741512   -0.342510    0.700419
  C     -3.815686    0.089188   -0.361622
  C     -3.227751    1.326552   -0.368500
  C     -2.277592    1.719928   -1.484257
  N     -0.989750    1.077290   -1.305567
  C     -0.772218   -0.173217   -1.754661
  O     -1.630626   -0.825525   -2.353091
  C      0.589428   -0.687767   -1.502152
  N      1.406263    0.085954   -0.730651
  C      2.628860   -0.279093   -0.483593
  C      3.413777    0.621919    0.462257
  C      2.615997    1.912105    0.712478
  C      3.627225   -0.103381    1.798272
  N      4.705787    0.966481   -0.118661
  N      3.142389   -1.435779   -0.998327
  C      4.524100   -1.883963   -0.794535
  C      2.384076   -2.323883   -1.764156
  O      2.874440   -3.368040   -2.170485
  C      1.016615   -1.884172   -2.015970
  O      0.254071   -2.693210   -2.759054
  C     -3.487475    2.225209    0.686064
  C     -4.343822    1.903851    1.738871
  C     -4.936828    0.669938    1.747064
  F     -5.738216    0.337066    2.726041
  H     -4.362751   -2.468021    0.479204
  H     -5.147030   -2.021842    2.011696
  H     -3.416948   -1.691174    1.768996
  H     -5.725082   -0.489065    0.217019
  H     -3.612609   -0.621543   -1.156417
  H     -2.686994    1.393213   -2.445007
  H     -2.126692    2.799494   -1.493964
  H     -0.285436    1.525750   -0.738005
  H      1.668017    1.682372    1.195474
  H      2.414384    2.417173   -0.229991
  H      3.192502    2.575618    1.354655
  H      4.239750   -0.993642    1.671596
  H      2.664864   -0.393903    2.216813
  H      4.126252    0.565548    2.497664
  H      4.572284    1.553313   -0.929859
  H      5.254977    1.475505    0.558949
  H      4.539127   -2.680735   -0.050704
  H      4.897998   -2.274204   -1.742047
  H      5.141044   -1.050773   -0.473673
  H     -0.644358   -2.304359   -2.854529
  H     -3.005231    3.196377    0.684278
  H     -4.530134    2.607822    2.540526

 Total Charge           Charge          ....    1
 Multiplicity           Mult            ....    1
 Number of Electrons    NEL             ....  184
 Basis Dimension        Dim             ....  625

ORBITAL ENERGIES
----------------

  NO   OCC          E(Eh)            E(eV)
   0   2.0000     -24.558280      -668.2648
   1   2.0000     -18.990321      -516.7529
   2   2.0000     -18.941557      -515.4260
   3   2.0000     -18.926417      -515.0140
   4   2.0000     -14.234741      -387.3470
   5   2.0000     -14.197930      -386.3453
   6   2.0000     -14.162164      -385.3721
   7   2.0000     -14.136065      -384.6619
   8   2.0000     -10.190816      -277.3062
   9   2.0000     -10.147112      -276.1170
  10   2.0000     -10.141659      -275.9686
  11   2.0000     -10.119875      -275.3758
  12   2.0000     -10.116754      -275.2909
  13   2.0000     -10.111449      -275.1465
  14   2.0000     -10.098627      -274.7976
  15   2.0000     -10.095600      -274.7153
  16   2.0000     -10.084597      -274.4158
  17   2.0000     -10.084444      -274.4117
  18   2.0000     -10.083704      -274.3915
  19   2.0000     -10.082760      -274.3658
  20   2.0000     -10.080722      -274.3104
  21   2.0000     -10.051493      -273.5150
  22   2.0000     -10.050631      -273.4916
  23   2.0000     -10.020230      -272.6643
  24   2.0000     -10.010989      -272.4128
  25   2.0000      -1.256574       -34.1931
  26   2.0000      -1.049935       -28.5702
  27   2.0000      -1.024164       -27.8689
  28   2.0000      -1.014666       -27.6105
  29   2.0000      -0.962682       -26.1959
  30   2.0000      -0.912114       -24.8199
  31   2.0000      -0.883567       -24.0431
  32   2.0000      -0.874721       -23.8024
  33   2.0000      -0.865773       -23.5589
  34   2.0000      -0.793709       -21.5979
  35   2.0000      -0.779215       -21.2035
  36   2.0000      -0.762651       -20.7528
  37   2.0000      -0.716861       -19.5068
  38   2.0000      -0.711011       -19.3476
  39   2.0000      -0.685000       -18.6398
  40   2.0000      -0.680551       -18.5187
  41   2.0000      -0.656021       -17.8512
  42   2.0000      -0.635785       -17.3006
  43   2.0000      -0.631961       -17.1965
  44   2.0000      -0.625319       -17.0158
  45   2.0000      -0.605185       -16.4679
  46   2.0000      -0.567841       -15.4518
  47   2.0000      -0.558919       -15.2090
  48   2.0000      -0.555621       -15.1192
  49   2.0000      -0.535854       -14.5813
  50   2.0000      -0.523754       -14.2521
  51   2.0000      -0.513250       -13.9663
  52   2.0000      -0.499294       -13.5865
  53   2.0000      -0.495028       -13.4704
  54   2.0000      -0.478509       -13.0209
  55   2.0000      -0.468246       -12.7416
  56   2.0000      -0.461984       -12.5712
  57   2.0000      -0.456586       -12.4243
  58   2.0000      -0.451248       -12.2791
  59   2.0000      -0.439787       -11.9672
  60   2.0000      -0.437691       -11.9102
  61   2.0000      -0.425139       -11.5686
  62   2.0000      -0.420945       -11.4545
  63   2.0000      -0.418592       -11.3905
  64   2.0000      -0.413446       -11.2504
  65   2.0000      -0.406892       -11.0721
  66   2.0000      -0.404187       -10.9985
  67   2.0000      -0.393982       -10.7208
  68   2.0000      -0.390159       -10.6168
  69   2.0000      -0.380997       -10.3675
  70   2.0000      -0.374269       -10.1844
  71   2.0000      -0.369980       -10.0677
  72   2.0000      -0.365828        -9.9547
  73   2.0000      -0.365478        -9.9452
  74   2.0000      -0.358852        -9.7649
  75   2.0000      -0.354070        -9.6347
  76   2.0000      -0.352419        -9.5898
  77   2.0000      -0.344855        -9.3840
  78   2.0000      -0.341628        -9.2962
  79   2.0000      -0.339701        -9.2437
  80   2.0000      -0.337387        -9.1808
  81   2.0000      -0.335712        -9.1352
  82   2.0000      -0.328430        -8.9370
  83   2.0000      -0.312908        -8.5147
  84   2.0000      -0.278121        -7.5681
  85   2.0000      -0.270051        -7.3485
  86   2.0000      -0.265696        -7.2300
  87   2.0000      -0.246557        -6.7091
  88   2.0000      -0.244021        -6.6402
  89   2.0000      -0.234977        -6.3940
  90   2.0000      -0.210796        -5.7360
  91   2.0000      -0.204463        -5.5637
  92   0.0000      -0.165887        -4.5140
  93   0.0000      -0.087333        -2.3765
  94   0.0000      -0.067284        -1.8309
  95   0.0000      -0.037880        -1.0308
  96   0.0000       0.013617         0.3705

MULLIKEN ATOMIC CHARGES
-----------------------
   0 C :   -0.472817
   1 C :   -0.049472
   2 C :   -0.101537
   3 C :    0.063823
   4 C :   -0.366966
   5 N :   -0.086471
   6 C :    0.118392
   7 O :   -0.545811
   8 C :    0.114669
   9 N :   -0.149090
  10 C :    0.033912
  11 C :    0.246977
  12 C :   -0.607467
  13 C :   -0.523182
  14 N :   -0.682305
  15 N :    0.241033
  16 C :   -0.476629
  17 C :    0.094696
  18 O :   -0.431606
  19 C :    0.054670
  20 O :   -0.360139
  21 C :   -0.004083
  22 C :   -0.225093
  23 C :    0.352769
  24 F :   -0.152811
  25 H :    0.196077
  26 H :    0.191964
  27 H :    0.194307
  28 H :    0.281422
  29 H :    0.239659
  30 H :    0.217856
  31 H :    0.196623
  32 H :    0.317603
  33 H :    0.177633
  34 H :    0.178734
  35 H :    0.170883
  36 H :    0.178394
  37 H :    0.183795
  38 H :    0.181083
  39 H :    0.286159
  40 H :    0.292745
  41 H :    0.195000
  42 H :    0.185629
  43 H :    0.230006
  44 H :    0.372120
  45 H :    0.223832
  46 H :    0.223014
Sum of atomic charges:    1.0000000

LOEWDIN ATOMIC CHARGES
----------------------
   0 C :   -0.335564
   1 C :   -0.170305
   2 C :    0.017385
   3 C :   -0.063077
   4 C :    0.013336
   5 N :   -0.585023
   6 C :    0.374862
   7 O :   -0.531899
   8 C :    0.196666
   9 N :   -0.603055
  10 C :    0.371359
  11 C :    0.064078
  12 C :   -0.363296
  13 C :   -0.352820
  14 N :   -0.707527
  15 N :   -0.629202
  16 C :   -0.096177
  17 C :    0.378244
  18 O :   -0.463550
  19 C :    0.276283
  20 O :   -0.449780
  21 C :    0.039890
  22 C :   -0.123450
  23 C :    0.336747
  24 F :   -0.205500
  25 H :    0.178630
  26 H :    0.177228
  27 H :    0.176989
  28 H :    0.267636
  29 H :    0.217885
  30 H :    0.216752
  31 H :    0.209525
  32 H :    0.300920
  33 H :    0.167601
  34 H :    0.169821
  35 H :    0.162199
  36 H :    0.171430
  37 H :    0.171825
  38 H :    0.170501
  39 H :    0.253737
  40 H :    0.255687
  41 H :    0.190806
  42 H :    0.202337
  43 H :    0.216120
  44 H :    0.311072
  45 H :    0.209612
  46 H :    0.213061

  Mayer bond orders larger than 0.100000
B(  0-C ,  1-C ) :   0.8050 B(  0-C , 25-H ) :   0.9553 B(  0-C , 26-H ) :   0.9525
B(  0-C , 27-H ) :   0.9643 B(  1-C ,  2-C ) :   1.0402 B(  1-C , 23-C ) :   1.0803
B(  1-C , 28-H ) :   0.8430 B(  2-C ,  3-C ) :   1.5369 B(  2-C , 29-H ) :   0.8827
B(  3-C ,  4-C ) :   0.8440 B(  3-C , 21-C ) :   1.3113 B(  4-C ,  5-N ) :   0.8509
B(  4-C ,  7-O ) :   0.1075 B(  4-C , 30-H ) :   0.9751 B(  4-C , 31-H ) :   0.9653
B(  5-N ,  6-C ) :   1.2638 B(  5-N , 32-H ) :   0.8824 B(  6-C ,  7-O ) :   1.6531
B(  6-C ,  8-C ) :   1.0149 B(  8-C ,  9-N ) :   1.0031 B(  8-C , 19-C ) :   1.2602
B(  9-N , 10-C ) :   1.6758 B(  9-N , 11-C ) :  -0.1252 B( 10-C , 11-C ) :   0.9015
B( 10-C , 15-N ) :   1.2672 B( 10-C , 19-C ) :   0.1094 B( 11-C , 12-C ) :   0.9571
B( 11-C , 13-C ) :   0.9310 B( 11-C , 14-N ) :   0.7650 B( 12-C , 33-H ) :   0.9802
B( 12-C , 34-H ) :   0.9667 B( 12-C , 35-H ) :   0.9657 B( 13-C , 36-H ) :   0.9459
B( 13-C , 37-H ) :   0.9740 B( 13-C , 38-H ) :   0.9627 B( 14-N , 39-H ) :   0.9097
B( 14-N , 40-H ) :   0.9136 B( 15-N , 16-C ) :   0.8445 B( 15-N , 17-C ) :   1.0788
B( 16-C , 41-H ) :   0.9405 B( 16-C , 42-H ) :   0.9388 B( 16-C , 43-H ) :   0.9206
B( 17-C , 18-O ) :   1.8962 B( 17-C , 19-C ) :   1.0168 B( 19-C , 20-O ) :   1.1419
B( 20-O , 44-H ) :   0.7708 B( 21-C , 22-C ) :   1.3151 B( 21-C , 45-H ) :   0.9169
B( 22-C , 23-C ) :   1.4417 B( 22-C , 46-H ) :   0.9253 B( 23-C , 24-F ) :   0.9736

Dispersion correction           -0.021034169
FINAL SINGLE POINT ENERGY     -1205.214878474581

DIPOLE MOMENT
-------------
                                X             Y             Z
Electronic contribution:    -23.41065      -3.44498      -5.26765
Nuclear contribution   :     17.57178       8.43055       8.94389
                        -----------------------------------------
Total Dipole Moment    :     -5.83887       4.98557       3.67624
                        -----------------------------------------
Magnitude (a.u.)       :      8.51253
Magnitude (Debye)      :     21.63713

Rotational constants in cm-1:     0.012028     0.003658     0.003255
Rotational constants in MHz :   360.578860   109.662250    97.571005

                             ****ORCA TERMINATED NORMALLY****
TOTAL RUN TIME: 0 days 0 hours 2 minutes 41 seconds 641 msec
