   * xtb version 6.5.1 (579679a) compiled by 'ehlert@majestix' on 2022-07-11
          program call               : /lustre/hpc/kemi/ree/PhD/git/ReactivityQM/dep/xtb-6.5.1/bin/xtb --gfn 1 /lustre/hpc/kemi/ree/PhD/git/ReactivityQM/calculations/RaltegravirCLI/reac02prodN10/conf17/RaltegravirCLI_reac02prodN10_conf17_gfn1.xyz --opt --vfukui --chrg 1 --uhf 0 --alpb DMSO

   ID    Z sym.   atoms
    1    6 C      1-5, 7, 9, 11-14, 17, 18, 20, 22-24
    2    7 N      6, 10, 15, 16
    3    8 O      8, 19, 21
    4    9 F      25
    5    1 H      26-47

      * Solvation model:               ALPB
        Solvent                        DMSO
        Solvent mass                       7.8130E+01 g/mol
          :  Hamiltonian                  GFN1-xTB          :
 * total energy  :   -79.4777238 Eh     change       -0.3342251E-09 Eh
 * total energy  :   -79.4858870 Eh     change       -0.8163268E-02 Eh
 * total energy  :   -79.4879129 Eh     change       -0.2025911E-02 Eh
 * total energy  :   -79.4882448 Eh     change       -0.3318676E-03 Eh
 * total energy  :   -79.4885645 Eh     change       -0.3196708E-03 Eh
 * total energy  :   -79.4885408 Eh     change        0.2368435E-04 Eh
 * total energy  :   -79.4886784 Eh     change       -0.1376458E-03 Eh
 * total energy  :   -79.4887800 Eh     change       -0.1015311E-03 Eh
 * total energy  :   -79.4888436 Eh     change       -0.6363325E-04 Eh
 * total energy  :   -79.4888316 Eh     change        0.1197815E-04 Eh
 * total energy  :   -79.4892745 Eh     change       -0.4421167E-04 Eh
 * total energy  :   -79.4893251 Eh     change       -0.5063959E-04 Eh
 * total energy  :   -79.4893747 Eh     change       -0.4955309E-04 Eh
 * total energy  :   -79.4894151 Eh     change       -0.4046286E-04 Eh
 * total energy  :   -79.4894565 Eh     change       -0.4137899E-04 Eh
 * total energy  :   -79.4894830 Eh     change       -0.2651209E-04 Eh
 * total energy  :   -79.4894935 Eh     change       -0.1049997E-04 Eh
 * total energy  :   -79.4894986 Eh     change       -0.5076738E-05 Eh
 * total energy  :   -79.4895031 Eh     change       -0.4502398E-05 Eh
   *** GEOMETRY OPTIMIZATION CONVERGED AFTER 37 ITERATIONS ***

 final structure:
================
47
 xtb: 6.5.1 (579679a)
C           -4.38948195410369       -1.73786478076839        1.28454077945635
C           -4.74151221552061       -0.34251041339397        0.70041858409426
C           -3.81568634236643        0.08918811039198       -0.36162171892334
C           -3.22775144458533        1.32655200842026       -0.36850044016213
C           -2.27759170296906        1.71992750504380       -1.48425726217432
N           -0.98974973146839        1.07729044205486       -1.30556708071345
C           -0.77221848495740       -0.17321657698917       -1.75466121807309
O           -1.63062645287046       -0.82552470808697       -2.35309078087915
C            0.58942815511697       -0.68776651279364       -1.50215242861562
N            1.40626260137119        0.08595422719614       -0.73065116566412
C            2.62885999042890       -0.27909296087914       -0.48359261924281
C            3.41377660578789        0.62191888292179        0.46225661480085
C            2.61599725428648        1.91210489073800        0.71247792864642
C            3.62722548881725       -0.10338115051430        1.79827179594781
N            4.70578686033538        0.96648117467382       -0.11866098308582
N            3.14238889873746       -1.43577926588820       -0.99832714183733
C            4.52409996270598       -1.88396322465220       -0.79453530521226
C            2.38407644761232       -2.32388348826856       -1.76415637929904
O            2.87443969495106       -3.36803996718293       -2.17048513886110
C            1.01661485006271       -1.88417214378261       -2.01596950047138
O            0.25407147760701       -2.69320966074968       -2.75905443752294
C           -3.48747513281542        2.22520943345483        0.68606407928839
C           -4.34382172343583        1.90385076228515        1.73887102630134
C           -4.93682816654312        0.66993766385789        1.74706390032818
F           -5.73821581932406        0.33706603896264        2.72604079592002
H           -4.36275130517174       -2.46802065479063        0.47920443869082
H           -5.14703030372718       -2.02184177200772        2.01169563327158
H           -3.41694751887822       -1.69117403494614        1.76899627773131
H           -5.72508196238434       -0.48906461008713        0.21701852377736
H           -3.61260880780040       -0.62154300556477       -1.15641667390228
H           -2.68699385222467        1.39321311761368       -2.44500668361485
H           -2.12669226863611        2.79949387192743       -1.49396362168552
H           -0.28543574610943        1.52574991906987       -0.73800455090795
H            1.66801662144917        1.68237224434301        1.19547362784938
H            2.41438403779065        2.41717252711511       -0.22999082267332
H            3.19250196730280        2.57561774508223        1.35465511853114
H            4.23974956498311       -0.99364204492702        1.67159624499244
H            2.66486350741261       -0.39390293530764        2.21681271433827
H            4.12625199974122        0.56554842840763        2.49766364067596
H            4.57228418908662        1.55331287319533       -0.92985856559662
H            5.25497689972666        1.47550513612849        0.55894899454113
H            4.53912684292837       -2.68073455007334       -0.05070350378493
H            4.89799807396524       -2.27420431184395       -1.74204662273766
H            5.14104443663027       -1.05077285221448       -0.47367302796284
H           -0.64435828785529       -2.30435906302908       -2.85452854393879
H           -3.00523071052574        3.19637655977065        0.68427757629822
H           -4.53013449456742        2.60782212608919        2.54052592204694

          :  Hamiltonian                  GFN1-xTB          :
         :: total energy             -79.489503118268 Eh    ::
         :: gradient norm              0.000793485486 Eh/a0 ::
         :: HOMO-LUMO gap              0.164062477051 eV    ::
         :: SCC energy               -80.369181738700 Eh    ::
         :: -> Gsolv                  -0.112902947915 Eh    ::
         :: repulsion energy           0.909902229026 Eh    ::

    * Orbital Energies and Occupations

         #    Occupation            Energy/Eh            Energy/eV
      -------------------------------------------------------------
         1        2.0000           -0.9432541             -25.6672
       ...           ...                  ...                  ...
        55        2.0000           -0.5211312             -14.1807
        56        2.0000           -0.5176043             -14.0847
        57        2.0000           -0.5084779             -13.8364
        58        2.0000           -0.5050972             -13.7444
        59        2.0000           -0.5016725             -13.6512
        60        2.0000           -0.4933525             -13.4248
        61        2.0000           -0.4814064             -13.0997
        62        2.0000           -0.4742056             -12.9038
        63        2.0000           -0.4609625             -12.5434
        64        2.0000           -0.4588786             -12.4867
        65        2.0000           -0.4423853             -12.0379
        66        1.9992           -0.4264766             -11.6050
        67        1.9200           -0.4220095             -11.4835 (HOMO)
        68        0.0808           -0.4159803             -11.3194 (LUMO)
        69                         -0.3277629              -8.9189
        70                         -0.3212723              -8.7423
        71                         -0.2834729              -7.7137
        72                         -0.2486372              -6.7658
        73                         -0.2394519              -6.5158
        74                         -0.1574208              -4.2836
        75                         -0.1568245              -4.2674
        76                         -0.1521389              -4.1399
        77                         -0.1471695              -4.0047
        78                         -0.1386163              -3.7719
       ...                                ...                  ...
       144                          0.7078499              19.2616
      -------------------------------------------------------------
                  HL-Gap            0.0060292 Eh            0.1641 eV

Wiberg/Mayer (AO) data.
largest (>0.10) Wiberg bond orders for each atom

     #   Z sym  total        # sym  WBO       # sym  WBO       # sym  WBO
 ---------------------------------------------------------------------------
     1   6 C    3.957 --    28 H    0.985    26 H    0.982    27 H    0.982
                             2 C    0.909
     2   6 C    3.986 --     3 C    1.083    24 C    1.065     1 C    0.909
                            29 H    0.847
     3   6 C    3.908 --     4 C    1.562     2 C    1.083    30 H    0.954
     4   6 C    3.981 --     3 C    1.562    22 C    1.318     5 C    0.988
     5   6 C    3.949 --     4 C    0.988    32 H    0.974    31 H    0.963
                             6 N    0.952
     6   7 N    3.345 --     7 C    1.261     5 C    0.952    33 H    0.887
                             8 O    0.156
     7   6 C    3.900 --     8 O    1.528     6 N    1.261     9 C    1.025
     8   8 O    1.910 --     7 C    1.528     6 N    0.156
     9   6 C    3.961 --    20 C    1.475    10 N    1.192     7 C    1.025
    10   7 N    3.040 --    11 C    1.543     9 C    1.192
    11   6 C    3.919 --    10 N    1.543    16 N    1.193    12 C    0.974
    12   6 C    3.958 --    13 C    0.986    14 C    0.983    15 N    0.980
                            11 C    0.974
    13   6 C    3.982 --    12 C    0.986    36 H    0.984    35 H    0.984
                            34 H    0.982
    14   6 C    3.991 --    38 H    0.985    12 C    0.983    39 H    0.982
                            37 H    0.982
    15   7 N    2.969 --    12 C    0.980    40 H    0.933    41 H    0.932
    16   7 N    3.509 --    11 C    1.193    18 C    1.107    17 C    0.928
                            19 O    0.133
    17   6 C    3.914 --    42 H    0.976    43 H    0.976    44 H    0.966
                            16 N    0.928
    18   6 C    3.912 --    19 O    1.580    16 N    1.107    20 C    1.075
    19   8 O    1.889 --    18 C    1.580    16 N    0.133
    20   6 C    3.916 --     9 C    1.475    21 O    1.114    18 C    1.075
    21   8 O    2.080 --    20 C    1.114    45 H    0.782
    22   6 C    3.900 --    23 C    1.394     4 C    1.318    46 H    0.964
    23   6 C    3.981 --    24 C    1.475    22 C    1.394    47 H    0.956
    24   6 C    3.806 --    23 C    1.475     2 C    1.065    25 F    1.027
    25   9 F    1.189 --    24 C    1.027
    26   1 H    0.993 --     1 C    0.982
    27   1 H    0.996 --     1 C    0.982
    28   1 H    0.995 --     1 C    0.985
    29   1 H    0.971 --     2 C    0.847
    30   1 H    1.004 --     3 C    0.954
    31   1 H    1.001 --     5 C    0.963
    32   1 H    0.996 --     5 C    0.974
    33   1 H    0.952 --     6 N    0.887
    34   1 H    1.010 --    13 C    0.982
    35   1 H    1.008 --    13 C    0.984
    36   1 H    1.002 --    13 C    0.984
    37   1 H    1.002 --    14 C    0.982
    38   1 H    1.002 --    14 C    0.985
    39   1 H    0.999 --    14 C    0.982
    40   1 H    0.949 --    15 N    0.933
    41   1 H    0.946 --    15 N    0.932
    42   1 H    1.003 --    17 C    0.976
    43   1 H    1.008 --    17 C    0.976
    44   1 H    1.023 --    17 C    0.966
    45   1 H    0.856 --    21 O    0.782
    46   1 H    0.990 --    22 C    0.964
    47   1 H    0.985 --    23 C    0.956
 ---------------------------------------------------------------------------

           -------------------------------------------------
          | TOTAL ENERGY              -79.489503118268 Eh   |
          | GRADIENT NORM               0.000793485486 Eh/α |
          | HOMO-LUMO GAP               0.164062477051 eV   |
           -------------------------------------------------

 * finished run on 2023/06/20 at 15:29:57.510
