   * xtb version 6.5.1 (579679a) compiled by 'ehlert@majestix' on 2022-07-11
          program call               : /lustre/hpc/kemi/ree/PhD/git/ReactivityQM/dep/xtb-6.5.1/bin/xtb --gfn 1 /lustre/hpc/kemi/ree/PhD/git/ReactivityQM/calculations/RaltegravirCLI/reac01prodE05/conf07/RaltegravirCLI_reac01prodE05_conf07_gfn1.xyz --opt --vfukui --chrg -1 --uhf 0 --alpb DMSO

   ID    Z sym.   atoms
    1    6 C      1, 2, 5-7
    2    7 N      3, 4
    3    8 O      8, 10
    4   17 Cl     9
    5    1 H      11-16

      * Solvation model:               ALPB
        Solvent                        DMSO
        Solvent mass                       7.8130E+01 g/mol
          :  Hamiltonian                  GFN1-xTB          :
 * total energy  :   -34.1144311 Eh     change       -0.8952838E-12 Eh
 * total energy  :   -34.1251340 Eh     change       -0.1070287E-01 Eh
 * total energy  :   -34.1303004 Eh     change       -0.5166422E-02 Eh
 * total energy  :   -34.1323988 Eh     change       -0.2098411E-02 Eh
 * total energy  :   -34.1340856 Eh     change       -0.1686817E-02 Eh
 * total energy  :   -34.1354812 Eh     change       -0.1395558E-02 Eh
 * total energy  :   -34.1374993 Eh     change       -0.2018098E-02 Eh
 * total energy  :   -34.1412896 Eh     change       -0.3790351E-02 Eh
 * total energy  :   -34.1483561 Eh     change       -0.7066456E-02 Eh
 * total energy  :   -34.1523201 Eh     change       -0.3964046E-02 Eh
 * total energy  :   -34.1586451 Eh     change       -0.8715023E-04 Eh
 * total energy  :   -34.1586928 Eh     change       -0.4775397E-04 Eh
 * total energy  :   -34.1587063 Eh     change       -0.1348043E-04 Eh
 * total energy  :   -34.1587163 Eh     change       -0.9971385E-05 Eh
 * total energy  :   -34.1587283 Eh     change       -0.1202743E-04 Eh
 * total energy  :   -34.1587428 Eh     change       -0.1448103E-04 Eh
 * total energy  :   -34.1587598 Eh     change       -0.1700039E-04 Eh
 * total energy  :   -34.1587683 Eh     change       -0.8526057E-05 Eh
 * total energy  :   -34.1587726 Eh     change       -0.4322678E-05 Eh
   *** GEOMETRY OPTIMIZATION CONVERGED AFTER 30 ITERATIONS ***

 final structure:
================
16
 xtb: 6.5.1 (579679a)
C            2.73015312337320       -0.18284911990661       -0.08783849239112
C            1.27206919280043       -0.08763314828379        0.17968458053757
N            0.73828703559891       -0.03769294386995        1.33114777991792
N           -0.67748419242437        0.07881064979082        1.14023804624441
C           -0.87050300475487        0.05045234576817       -0.34419331565458
C           -1.72931761301178        1.09022467854313       -1.00929254007852
C           -1.18584410873511       -1.11854010904544        0.49664686418451
O           -0.88539035661312       -2.29214971612546        0.57312132574448
Cl          -3.30080631582824       -0.88634711463689        0.93755464748259
O            0.43865216019464       -0.03139401423338       -0.89281036853700
H            3.05250043445403        0.66465334152424       -0.69137226526328
H            2.94729353756041       -1.09403452888223       -0.64456844381723
H            3.27765641071549       -0.19057303373513        0.85129147454022
H           -1.17708795630351        2.02628256300644       -1.08024684718282
H           -1.99427722000485        0.76153236843343       -2.01312702742761
H           -2.63590212702118        1.24925778165275       -0.43192041829959

          :  Hamiltonian                  GFN1-xTB          :
         :: total energy             -34.158772649175 Eh    ::
         :: gradient norm              0.000541909866 Eh/a0 ::
         :: HOMO-LUMO gap              3.370607624611 eV    ::
         :: SCC energy               -34.422287775602 Eh    ::
         :: -> Gsolv                  -0.098880675409 Eh    ::
         :: repulsion energy           0.271071330983 Eh    ::

    * Orbital Energies and Occupations

         #    Occupation            Energy/Eh            Energy/eV
      -------------------------------------------------------------
         1        2.0000           -0.8327703             -22.6608
       ...           ...                  ...                  ...
        16        2.0000           -0.5273645             -14.3503
        17        2.0000           -0.5221904             -14.2095
        18        2.0000           -0.5174901             -14.0816
        19        2.0000           -0.5107873             -13.8992
        20        2.0000           -0.5023079             -13.6685
        21        2.0000           -0.4781217             -13.0104
        22        2.0000           -0.4574020             -12.4465
        23        2.0000           -0.4517794             -12.2935
        24        2.0000           -0.4490421             -12.2191
        25        2.0000           -0.4430340             -12.0556
        26        2.0000           -0.4400000             -11.9730
        27        2.0000           -0.4230074             -11.5106
        28        2.0000           -0.3678468             -10.0096 (HOMO)
        29                         -0.2439793              -6.6390 (LUMO)
        30                         -0.2255688              -6.1380
        31                         -0.1310162              -3.5651
        32                         -0.1168275              -3.1790
        33                         -0.0831760              -2.2633
        34                         -0.0646222              -1.7585
        35                         -0.0635900              -1.7304
        36                         -0.0544043              -1.4804
        37                         -0.0452309              -1.2308
        38                         -0.0080532              -0.2191
        39                          0.0294310               0.8009
       ...                                ...                  ...
        57                          0.7521718              20.4676
      -------------------------------------------------------------
                  HL-Gap            0.1238676 Eh            3.3706 eV

Wiberg/Mayer (AO) data.
largest (>0.10) Wiberg bond orders for each atom

     #   Z sym  total        # sym  WBO       # sym  WBO       # sym  WBO
 ---------------------------------------------------------------------------
     1   6 C    3.991 --     2 C    1.020    13 H    0.985    11 H    0.969
                            12 H    0.968
     2   6 C    3.896 --     3 N    1.766    10 O    1.030     1 C    1.020
     3   7 N    2.970 --     2 C    1.766     4 N    0.978    10 O    0.117
     4   7 N    2.962 --     3 N    0.978     7 C    0.899     5 C    0.871
     5   6 C    3.812 --     6 C    1.001     7 C    0.904    10 O    0.903
                             4 N    0.871
     6   6 C    3.992 --     5 C    1.001    14 H    0.981    15 H    0.980
                            16 H    0.979
     7   6 C    3.858 --     8 O    1.614     5 C    0.904     4 N    0.899
                             9 Cl   0.359
     8   8 O    1.922 --     7 C    1.614     9 Cl   0.109
     9  17 Cl   0.541 --     7 C    0.359     8 O    0.109
    10   8 O    2.151 --     2 C    1.030     5 C    0.903     3 N    0.117
    11   1 H    1.001 --     1 C    0.969
    12   1 H    1.001 --     1 C    0.968
    13   1 H    1.003 --     1 C    0.985
    14   1 H    1.007 --     6 C    0.981
    15   1 H    1.007 --     6 C    0.980
    16   1 H    1.023 --     6 C    0.979
 ---------------------------------------------------------------------------

           -------------------------------------------------
          | TOTAL ENERGY              -34.158772649175 Eh   |
          | GRADIENT NORM               0.000541909866 Eh/α |
          | HOMO-LUMO GAP               3.370607624611 eV   |
           -------------------------------------------------

 * finished run on 2023/06/20 at 14:53:31.821
