   * xtb version 6.5.1 (579679a) compiled by 'ehlert@majestix' on 2022-07-11
          program call               : /lustre/hpc/kemi/ree/PhD/git/ReactivityQM/dep/xtb-6.5.1/bin/xtb --gfn 1 /lustre/hpc/kemi/ree/PhD/git/ReactivityQM/calculations/R02oxygendeprot/reac01prodN07/conf14/R02oxygendeprot_reac01prodN07_conf14_gfn1.xyz --opt --vfukui --chrg 0 --uhf 0 --alpb DMSO

   ID    Z sym.   atoms
    1    6 C      1, 3, 5, 7-10, 12, 14, 17-19, 22, 24
    2    8 O      2, 4, 13, 20, 23, 25
    3    7 N      6, 11, 15, 16, 21
    4    1 H      26-42

      * Solvation model:               ALPB
        Solvent                        DMSO
        Solvent mass                       7.8130E+01 g/mol
          :  Hamiltonian                  GFN1-xTB          :
 * total energy  :   -82.9461820 Eh     change       -0.5408651E-09 Eh
 * total energy  :   -82.9629890 Eh     change       -0.1680703E-01 Eh
 * total energy  :   -82.9700321 Eh     change       -0.7043144E-02 Eh
 * total energy  :   -82.9717667 Eh     change       -0.1734517E-02 Eh
 * total energy  :   -82.9728602 Eh     change       -0.1093550E-02 Eh
 * total energy  :   -82.9733018 Eh     change       -0.4415999E-03 Eh
 * total energy  :   -82.9737796 Eh     change       -0.4777510E-03 Eh
 * total energy  :   -82.9741648 Eh     change       -0.3852815E-03 Eh
 * total energy  :   -82.9744662 Eh     change       -0.3014079E-03 Eh
 * total energy  :   -82.9747301 Eh     change       -0.2638255E-03 Eh
 * total energy  :   -82.9832534 Eh     change       -0.2247554E-04 Eh
 * total energy  :   -82.9832743 Eh     change       -0.2086040E-04 Eh
 * total energy  :   -82.9832935 Eh     change       -0.1921151E-04 Eh
 * total energy  :   -82.9833080 Eh     change       -0.1454463E-04 Eh
 * total energy  :   -82.9833222 Eh     change       -0.1417968E-04 Eh
 * total energy  :   -82.9833370 Eh     change       -0.1482928E-04 Eh
 * total energy  :   -82.9833477 Eh     change       -0.1070214E-04 Eh
 * total energy  :   -82.9833538 Eh     change       -0.6079935E-05 Eh
 * total energy  :   -82.9833578 Eh     change       -0.4023958E-05 Eh
   *** GEOMETRY OPTIMIZATION CONVERGED AFTER 63 ITERATIONS ***

 final structure:
================
42
 xtb: 6.5.1 (579679a)
C           -6.30580865880603        1.33173894326119        0.88409172713917
O           -5.03079901785173        0.82894289608115        0.50773470258803
C           -4.74729745271157        0.87393234801787       -0.83002341681953
O           -5.55886061902943        1.33455766359757       -1.61673409294224
C           -3.43707215554066        0.32471626677388       -1.13998250485772
N           -2.70312517314284       -0.10680801081513       -0.05011082032035
C           -1.54380106146436       -0.61954903789384       -0.21550279739602
C           -0.74162928052017       -1.12259790486140        0.96533865788693
C           -0.80872945433413       -2.65060264871364        1.03217048060661
C           -1.25048891563481       -0.49141319667782        2.26270950824275
N            0.67582298546950       -0.76207843005397        0.76319254475803
C            1.07177977282779        0.49308976657749        0.52847281800749
O            0.36808321181395        1.47810202395980        0.43934585187828
C            2.56187967623361        0.60042078583013        0.34337462606040
N            3.23971924254330        1.67133525939489        0.06201570956759
N            4.52069660248561        1.26036352916043       -0.01218338011354
C            5.56388018728828        2.21698198919582       -0.31292869797304
C            4.59602116884620       -0.03175570514165        0.22045774895198
C            5.77463204977433       -0.91335046638997        0.24654826380232
O            3.37359988747504       -0.47217888760378        0.44651191641188
N           -0.98032319561827       -0.78428586455553       -1.46515891612408
C           -1.57870887785393       -0.37154425141914       -2.62959171024010
O           -0.99690434157303       -0.52433388392534       -3.70009017264152
C           -2.95076383038089        0.24941042561260       -2.47381015168500
O           -3.54646683241806        0.63888729353132       -3.49247902413701
H           -7.10482753791066        0.78708237519368        0.37039564423823
H           -6.39098373281599        2.39640868023367        0.64276646792499
H           -6.39800565412926        1.19062342451406        1.96012771103594
H           -0.40664977274110       -3.08468091870845        0.11859379600905
H           -1.84510623056403       -2.96565481156306        1.14774264091483
H           -0.23161260547238       -3.01596514199537        1.87920834603432
H           -2.29151605822491       -0.77647513226586        2.41072648066646
H           -0.65541959395644       -0.83965597798040        3.10383206539377
H           -1.18931242644507        0.59454649176541        2.20322292156193
H            1.36561316034397       -1.48323188675334        0.86410488045273
H            5.45074208651170        3.06958246248364        0.35422729432957
H            6.52595392674109        1.73770002245578       -0.16191928637690
H            5.45772663910593        2.53716664713716       -1.34892742211638
H            6.50817180463570       -0.53685174897131        0.96018041366317
H            6.24502562351596       -0.93927331939708       -0.73766865750640
H            5.46679374151540       -1.91765752862698        0.53013624878417
H           -0.07192928798503       -1.20564354041037       -1.53934141561987

          :  Hamiltonian                  GFN1-xTB          :
         :: total energy             -82.983357844962 Eh    ::
         :: gradient norm              0.000339730966 Eh/a0 ::
         :: HOMO-LUMO gap              0.427764384981 eV    ::
         :: SCC energy               -83.773739960654 Eh    ::
         :: -> Gsolv                  -0.150999198240 Eh    ::
         :: repulsion energy           0.815819429953 Eh    ::

    * Orbital Energies and Occupations

         #    Occupation            Energy/Eh            Energy/eV
      -------------------------------------------------------------
         1        2.0000           -0.9352780             -25.4502
       ...           ...                  ...                  ...
        55        2.0000           -0.5067489             -13.7893
        56        2.0000           -0.5037607             -13.7080
        57        2.0000           -0.4970075             -13.5243
        58        2.0000           -0.4884433             -13.2912
        59        2.0000           -0.4825977             -13.1322
        60        2.0000           -0.4683772             -12.7452
        61        2.0000           -0.4676755             -12.7261
        62        2.0000           -0.4606126             -12.5339
        63        2.0000           -0.4446128             -12.0985
        64        2.0000           -0.4405638             -11.9883
        65        2.0000           -0.4220832             -11.4855
        66        2.0000           -0.3820547             -10.3962
        67        1.9995           -0.3701393             -10.0720 (HOMO)
        68        0.0005           -0.3544192              -9.6442 (LUMO)
        69                         -0.3410661              -9.2809
        70                         -0.2742148              -7.4618
        71                         -0.2445917              -6.6557
        72                         -0.2355566              -6.4098
        73                         -0.2003559              -5.4520
        74                         -0.1833595              -4.9895
        75                         -0.1713348              -4.6623
        76                         -0.1341712              -3.6510
        77                         -0.1241299              -3.3777
        78                         -0.1227003              -3.3388
       ...                                ...                  ...
       134                          0.7636596              20.7802
      -------------------------------------------------------------
                  HL-Gap            0.0157201 Eh            0.4278 eV

Wiberg/Mayer (AO) data.
largest (>0.10) Wiberg bond orders for each atom

     #   Z sym  total        # sym  WBO       # sym  WBO       # sym  WBO
 ---------------------------------------------------------------------------
     1   6 C    3.898 --    28 H    0.987    27 H    0.981    26 H    0.980
                             2 O    0.925
     2   8 O    2.138 --     3 C    1.027     1 C    0.925     4 O    0.109
     3   6 C    3.850 --     4 O    1.596     5 C    1.115     2 O    1.027
     4   8 O    1.870 --     3 C    1.596     2 O    0.109
     5   6 C    3.912 --    24 C    1.264     6 N    1.155     3 C    1.115
                            25 O    0.129
     6   7 N    3.030 --     7 C    1.635     5 C    1.155
     7   6 C    3.933 --     6 N    1.635    21 N    1.090     8 C    0.972
     8   6 C    3.916 --    10 C    0.991     9 C    0.989     7 C    0.972
                            11 N    0.899
     9   6 C    3.989 --     8 C    0.989    29 H    0.984    31 H    0.983
                            30 H    0.983
    10   6 C    3.989 --     8 C    0.991    33 H    0.987    32 H    0.982
                            34 H    0.982
    11   7 N    3.387 --    12 C    1.300     8 C    0.899    35 H    0.891
                            13 O    0.201
    12   6 C    3.927 --    13 O    1.599    11 N    1.300    14 C    0.955
    13   8 O    1.918 --    12 C    1.599    11 N    0.201
    14   6 C    3.833 --    15 N    1.616    20 O    1.051    12 C    0.955
    15   7 N    2.975 --    14 C    1.616    16 N    1.146
    16   7 N    3.632 --    18 C    1.430    15 N    1.146    17 C    0.912
    17   6 C    3.888 --    37 H    0.981    36 H    0.970    38 H    0.965
                            16 N    0.912
    18   6 C    3.840 --    16 N    1.430    20 O    1.144    19 C    1.040
    19   6 C    3.961 --    18 C    1.040    41 H    0.972    39 H    0.948
                            40 H    0.944
    20   8 O    2.372 --    18 C    1.144    14 C    1.051
    21   7 N    3.421 --    22 C    1.157     7 C    1.090    42 H    0.899
                            23 O    0.135
    22   6 C    3.875 --    23 O    1.582    21 N    1.157    24 C    0.965
    23   8 O    1.860 --    22 C    1.582    21 N    0.135
    24   6 C    3.941 --    25 O    1.529     5 C    1.264    22 C    0.965
    25   8 O    1.831 --    24 C    1.529     5 C    0.129
    26   1 H    1.014 --     1 C    0.980
    27   1 H    1.013 --     1 C    0.981
    28   1 H    1.016 --     1 C    0.987
    29   1 H    0.999 --     9 C    0.984
    30   1 H    1.001 --     9 C    0.983
    31   1 H    0.997 --     9 C    0.983
    32   1 H    1.012 --    10 C    0.982
    33   1 H    1.002 --    10 C    0.987
    34   1 H    1.011 --    10 C    0.982
    35   1 H    0.929 --    11 N    0.891
    36   1 H    0.991 --    17 C    0.970
    37   1 H    0.990 --    17 C    0.981
    38   1 H    0.990 --    17 C    0.965
    39   1 H    0.987 --    19 C    0.948
    40   1 H    0.986 --    19 C    0.944
    41   1 H    0.986 --    19 C    0.972
    42   1 H    0.948 --    21 N    0.899
 ---------------------------------------------------------------------------

           -------------------------------------------------
          | TOTAL ENERGY              -82.983357844962 Eh   |
          | GRADIENT NORM               0.000339730966 Eh/α |
          | HOMO-LUMO GAP               0.427764384981 eV   |
           -------------------------------------------------

 * finished run on 2023/06/21 at 17:23:01.323
