   * xtb version 6.5.1 (579679a) compiled by 'ehlert@majestix' on 2022-07-11
          program call               : /lustre/hpc/kemi/ree/PhD/git/ReactivityQM/dep/xtb-6.5.1/bin/xtb --gfn 1 /lustre/hpc/kemi/ree/PhD/git/ReactivityQM/calculations/R03/reac01prodN06/conf11/R03_reac01prodN06_conf11_gfn1.xyz --opt --vfukui --chrg 1 --uhf 0 --alpb DMSO

   ID    Z sym.   atoms
    1    6 C      1, 3-7, 9, 10
    2    9 F      2
    3    7 N      8
    4    1 H      11-21

      * Solvation model:               ALPB
        Solvent                        DMSO
        Solvent mass                       7.8130E+01 g/mol
          :  Hamiltonian                  GFN1-xTB          :
 * total energy  :   -30.7186079 Eh     change       -0.3620215E-11 Eh
 * total energy  :   -30.7297634 Eh     change       -0.1115555E-01 Eh
 * total energy  :   -30.7330734 Eh     change       -0.3309948E-02 Eh
 * total energy  :   -30.7334948 Eh     change       -0.4213632E-03 Eh
 * total energy  :   -30.7337302 Eh     change       -0.2354133E-03 Eh
 * total energy  :   -30.7338713 Eh     change       -0.1411258E-03 Eh
 * total energy  :   -30.7339927 Eh     change       -0.1213690E-03 Eh
 * total energy  :   -30.7341108 Eh     change       -0.1181584E-03 Eh
 * total energy  :   -30.7342297 Eh     change       -0.1189287E-03 Eh
 * total energy  :   -30.7343772 Eh     change       -0.1474084E-03 Eh
 * total energy  :   -30.7348094 Eh     change       -0.3234587E-04 Eh
 * total energy  :   -30.7348205 Eh     change       -0.1107453E-04 Eh
 * total energy  :   -30.7348552 Eh     change       -0.3471938E-04 Eh
 * total energy  :   -30.7348730 Eh     change       -0.1781116E-04 Eh
 * total energy  :   -30.7348953 Eh     change       -0.2233028E-04 Eh
 * total energy  :   -30.7349056 Eh     change       -0.1024183E-04 Eh
 * total energy  :   -30.7349176 Eh     change       -0.1198214E-04 Eh
 * total energy  :   -30.7349234 Eh     change       -0.5874639E-05 Eh
 * total energy  :   -30.7349269 Eh     change       -0.3478048E-05 Eh
   *** GEOMETRY OPTIMIZATION CONVERGED AFTER 23 ITERATIONS ***

 final structure:
================
21
 xtb: 6.5.1 (579679a)
C           -3.84256283881291        0.49341221706407        0.29425576297603
F           -2.88230768883338       -0.44880817307867       -0.21772993044967
C           -1.41619144772816       -0.37855297115290       -0.11535457283513
C           -0.85282087683881       -0.90102480834023        1.02016006829714
C            0.53497657040184       -0.85565431048249        1.08345806720174
C            1.28069490172289       -0.30397040220627        0.04049631540338
C            2.78588491865230       -0.27812124341974        0.11782062560561
N            3.33414542720326        0.74852283016969       -0.76124490599099
C            0.62915704336647        0.20723944180217       -1.08201810124184
C           -0.75666990774152        0.18211963581162       -1.17837465635408
H           -3.57633339974541        1.45655038647449       -0.13079248762922
H           -4.79330163530493        0.11231305975918       -0.06592994177193
H           -3.74765801388781        0.46173435524452        1.37532334729795
H           -1.45122312317300       -1.32209568703393        1.81532841704272
H            1.03287499711399       -1.25262589210340        1.95996581393307
H            3.10120428771970       -0.13481691602055        1.16055873447788
H            3.16221650135591       -1.25262091361985       -0.21368635943928
H            4.32996930971193        0.59956382536131       -0.84839102764027
H            3.19542510232592        1.65368809221474       -0.33227649698821
H            1.21629023850315        0.63770889193051       -1.88544937350582
H           -1.28377036600494        0.57543758162321       -2.03612029839295

          :  Hamiltonian                  GFN1-xTB          :
         :: total energy             -30.734926923891 Eh    ::
         :: gradient norm              0.000550432974 Eh/a0 ::
         :: HOMO-LUMO gap              2.896650286275 eV    ::
         :: SCC energy               -31.143723644627 Eh    ::
         :: -> Gsolv                  -0.082703318458 Eh    ::
         :: repulsion energy           0.418191330423 Eh    ::

    * Orbital Energies and Occupations

         #    Occupation            Energy/Eh            Energy/eV
      -------------------------------------------------------------
         1        2.0000           -1.0070098             -27.4021
       ...           ...                  ...                  ...
        15        2.0000           -0.5899366             -16.0530
        16        2.0000           -0.5827230             -15.8567
        17        2.0000           -0.5778020             -15.7228
        18        2.0000           -0.5727903             -15.5864
        19        2.0000           -0.5702710             -15.5179
        20        2.0000           -0.5582893             -15.1918
        21        2.0000           -0.5378739             -14.6363
        22        2.0000           -0.5259416             -14.3116
        23        2.0000           -0.5099465             -13.8764
        24        2.0000           -0.5040088             -13.7148
        25        2.0000           -0.4873811             -13.2623
        26        2.0000           -0.4756831             -12.9440
        27        2.0000           -0.4172485             -11.3539 (HOMO)
        28                         -0.3107985              -8.4573 (LUMO)
        29                         -0.3092267              -8.4145
        30                         -0.2579047              -7.0179
        31                         -0.1880955              -5.1183
        32                         -0.1810837              -4.9275
        33                         -0.1428635              -3.8875
        34                         -0.1408446              -3.8326
        35                         -0.1305293              -3.5519
        36                         -0.1300011              -3.5375
        37                         -0.1195599              -3.2534
        38                         -0.1153243              -3.1381
       ...                                ...                  ...
        62                          0.6145964              16.7240
      -------------------------------------------------------------
                  HL-Gap            0.1064499 Eh            2.8967 eV

Wiberg/Mayer (AO) data.
largest (>0.10) Wiberg bond orders for each atom

     #   Z sym  total        # sym  WBO       # sym  WBO       # sym  WBO
 ---------------------------------------------------------------------------
     1   6 C    3.679 --    11 H    0.980    13 H    0.980    12 H    0.974
                             2 F    0.719
     2   9 F    1.436 --     1 C    0.719     3 C    0.630
     3   6 C    3.685 --    10 C    1.431     4 C    1.430     2 F    0.630
     4   6 C    3.985 --     3 C    1.430     5 C    1.428    14 H    0.961
                             9 C    0.108
     5   6 C    3.988 --     4 C    1.428     6 C    1.410    15 H    0.967
                            10 C    0.108
     6   6 C    3.980 --     9 C    1.410     5 C    1.410     7 C    1.010
     7   6 C    3.980 --     6 C    1.010     8 N    1.003    16 H    0.966
                            17 H    0.956
     8   7 N    2.952 --     7 C    1.003    19 H    0.945    18 H    0.938
     9   6 C    3.986 --    10 C    1.426     6 C    1.410    20 H    0.962
                             4 C    0.108
    10   6 C    3.985 --     3 C    1.431     9 C    1.426    21 H    0.962
                             5 C    0.108
    11   1 H    0.993 --     1 C    0.980
    12   1 H    0.992 --     1 C    0.974
    13   1 H    0.993 --     1 C    0.980
    14   1 H    0.990 --     4 C    0.961
    15   1 H    0.994 --     5 C    0.967
    16   1 H    1.000 --     7 C    0.966
    17   1 H    1.007 --     7 C    0.956
    18   1 H    0.952 --     8 N    0.938
    19   1 H    0.956 --     8 N    0.945
    20   1 H    1.013 --     9 C    0.962
    21   1 H    0.991 --    10 C    0.962
 ---------------------------------------------------------------------------

           -------------------------------------------------
          | TOTAL ENERGY              -30.734926923891 Eh   |
          | GRADIENT NORM               0.000550432974 Eh/α |
          | HOMO-LUMO GAP               2.896650286275 eV   |
           -------------------------------------------------

 * finished run on 2023/06/20 at 15:14:59.123
