   * xtb version 6.5.1 (579679a) compiled by 'ehlert@majestix' on 2022-07-11
          program call               : /lustre/hpc/kemi/ree/PhD/git/ReactivityQM/dep/xtb-6.5.1/bin/xtb --gfn 1 /lustre/hpc/kemi/ree/PhD/git/ReactivityQM/calculations/R03/reac02prodE09/conf08/R03_reac02prodE09_conf08_gfn1.xyz --opt --vfukui --chrg -1 --uhf 0 --alpb DMSO

   ID    Z sym.   atoms
    1    6 C      1, 3, 5, 7-10, 12, 14, 16, 17, 20, 22, 23, 25
    2    8 O      2, 4, 13, 15, 24, 26
    3    7 N      6, 11, 18, 19, 21
    4    1 H      27-46

      * Solvation model:               ALPB
        Solvent                        DMSO
        Solvent mass                       7.8130E+01 g/mol
          :  Hamiltonian                  GFN1-xTB          :
 * total energy  :   -87.0063067 Eh     change       -0.6437517E-11 Eh
 * total energy  :   -87.0172959 Eh     change       -0.1098921E-01 Eh
 * total energy  :   -87.0214031 Eh     change       -0.4107247E-02 Eh
 * total energy  :   -87.0223000 Eh     change       -0.8969026E-03 Eh
 * total energy  :   -87.0230560 Eh     change       -0.7559552E-03 Eh
 * total energy  :   -87.0237808 Eh     change       -0.7248524E-03 Eh
 * total energy  :   -87.0249767 Eh     change       -0.1195890E-02 Eh
 * total energy  :   -87.0260374 Eh     change       -0.1060646E-02 Eh
 * total energy  :   -87.0275014 Eh     change       -0.1464060E-02 Eh
 * total energy  :   -87.0279977 Eh     change       -0.4962307E-03 Eh
 * total energy  :   -87.0349824 Eh     change       -0.1368868E-04 Eh
 * total energy  :   -87.0350233 Eh     change       -0.4090203E-04 Eh
 * total energy  :   -87.0350425 Eh     change       -0.1923112E-04 Eh
 * total energy  :   -87.0350231 Eh     change        0.1942719E-04 Eh
 * total energy  :   -87.0350491 Eh     change       -0.2602286E-04 Eh
 * total energy  :   -87.0350593 Eh     change       -0.1018718E-04 Eh
 * total energy  :   -87.0350486 Eh     change        0.1069563E-04 Eh
 * total energy  :   -87.0350611 Eh     change       -0.1243587E-04 Eh
 * total energy  :   -87.0350658 Eh     change       -0.4725796E-05 Eh
   *** GEOMETRY OPTIMIZATION CONVERGED AFTER 54 ITERATIONS ***

 final structure:
================
46
 xtb: 6.5.1 (579679a)
C           -5.28394822825830        1.28231981807769       -2.83077759229883
O           -4.26140892632477        0.88862373341222       -1.91810031380778
C           -4.41816210085090        1.29546980928109       -0.64831514830129
O           -5.38146376179368        1.97267084298473       -0.29619274739127
C           -3.35994256204671        0.86058097095013        0.26007340135248
N           -2.33861413008577        0.10913486330595       -0.25408146541812
C           -1.37698598025314       -0.31906624371508        0.50092440589149
C           -0.33498261325054       -1.20903743682554       -0.18280524462928
C           -0.54516391114301       -2.64999718656793        0.31373459341309
C           -0.56991001081296       -1.15580685838998       -1.70408600370704
N            0.99859364298377       -0.70622868978841        0.15265209289170
C            2.14764446531583       -1.32958442405116       -0.47720913335500
O            2.07293588859140       -2.48401109847210       -0.96490133433457
C            3.29925745007568       -0.58527952721549       -0.28355040916476
O            4.49583722127721       -0.84863793874003       -0.98794060073209
C            5.12926173837875        0.32733115424618       -1.04139545981472
C            6.43678729349526        0.39717735251516       -1.74883578444418
N            4.55459390351941        1.31661079964316       -0.46778741577964
N            3.33051846176540        0.81507367030434        0.09321205459578
C            3.40343644412166        1.02932296115334        1.54992369606865
N           -1.34371008120076       -0.03652172987048        1.84465893718800
C           -0.30778036192551       -0.49550072420101        2.77108585083064
C           -2.34680598489646        0.70711668023630        2.48193654676767
O           -2.28498134939697        0.90607541655692        3.69637442345559
C           -3.39427528202961        1.17764606465235        1.60749628615913
O           -4.37824190976313        1.90474933546348        2.17467493376035
H           -6.24699776729828        0.86539637697177       -2.52431056635129
H           -5.00177490116729        0.89394115034323       -3.80774918993361
H           -5.36272211159787        2.37208512338374       -2.86724395825017
H           -0.24245630816423       -2.75645690241809        1.35318580321932
H           -1.60001885284438       -2.91003650574985        0.22747554170655
H            0.03759081871875       -3.34445751590620       -0.28873578848284
H           -0.46832177403423       -0.13265563672947       -2.06458120014688
H           -1.57217203241050       -1.51062888211339       -1.94015857626618
H            0.15648643009799       -1.78855127350262       -2.21128289114425
H            1.03896307918614        0.30128659293134        0.02193383698860
H            6.31238752466571        0.12595059880914       -2.79712983641389
H            6.83947374473224        1.40479598646255       -1.68106161655776
H            7.13800570256211       -0.30517547027028       -1.29897781714780
H            3.45324865697466        2.10071288506113        1.73941675171700
H            4.28215520149352        0.53793875761650        1.97666277145971
H            2.50095685146434        0.61753688982684        1.99598318813232
H            0.54467108771654       -0.89364338532574        2.22974024147604
H            0.01303128253138        0.35356359737271        3.37688464082226
H           -0.72736533635714       -1.25736788585215        3.43028627467960
H           -5.03762861177070        2.15553688414429        1.48889382131507

          :  Hamiltonian                  GFN1-xTB          :
         :: total energy             -87.035065780210 Eh    ::
         :: gradient norm              0.000834370218 Eh/a0 ::
         :: HOMO-LUMO gap              0.099956780663 eV    ::
         :: SCC energy               -87.825462154442 Eh    ::
         :: -> Gsolv                  -0.104582672037 Eh    ::
         :: repulsion energy           0.819875276741 Eh    ::

    * Orbital Energies and Occupations

         #    Occupation            Energy/Eh            Energy/eV
      -------------------------------------------------------------
         1        2.0000           -0.8222563             -22.3747
       ...           ...                  ...                  ...
        59        2.0000           -0.4733078             -12.8794
        60        2.0000           -0.4697693             -12.7831
        61        2.0000           -0.4652102             -12.6590
        62        2.0000           -0.4495029             -12.2316
        63        2.0000           -0.4364112             -11.8754
        64        2.0000           -0.4352319             -11.8433
        65        2.0000           -0.4294146             -11.6850
        66        2.0000           -0.4207780             -11.4500
        67        2.0000           -0.4052045             -11.0262
        68        2.0000           -0.4039251             -10.9914
        69        2.0000           -0.4010075             -10.9120
        70        2.0000           -0.3853524             -10.4860
        71        1.7472           -0.3103719              -8.4456 (HOMO)
        72        0.2528           -0.3066985              -8.3457 (LUMO)
        73                         -0.2583144              -7.0291
        74                         -0.2213939              -6.0244
        75                         -0.2197853              -5.9807
        76                         -0.1582809              -4.3070
        77                         -0.1344120              -3.6575
        78                         -0.1301580              -3.5418
        79                         -0.1276037              -3.4723
        80                         -0.1263171              -3.4373
        81                         -0.1075443              -2.9264
        82                         -0.0989388              -2.6923
       ...                                ...                  ...
       144                          0.7078991              19.2629
      -------------------------------------------------------------
                  HL-Gap            0.0036733 Eh            0.1000 eV

Wiberg/Mayer (AO) data.
largest (>0.10) Wiberg bond orders for each atom

     #   Z sym  total        # sym  WBO       # sym  WBO       # sym  WBO
 ---------------------------------------------------------------------------
     1   6 C    3.881 --    28 H    0.987    27 H    0.980    29 H    0.980
                             2 O    0.908
     2   8 O    2.169 --     3 C    1.086     1 C    0.908     4 O    0.114
     3   6 C    3.783 --     4 O    1.554     2 O    1.086     5 C    1.070
     4   8 O    1.869 --     3 C    1.554     2 O    0.114
     5   6 C    3.902 --    25 C    1.403     6 N    1.178     3 C    1.070
     6   7 N    3.016 --     7 C    1.569     5 C    1.178
     7   6 C    3.910 --     6 N    1.569    21 N    1.167     8 C    0.971
     8   6 C    3.959 --    10 C    0.990     9 C    0.982     7 C    0.971
                            11 N    0.960
     9   6 C    3.992 --    31 H    0.988    30 H    0.982     8 C    0.982
                            32 H    0.976
    10   6 C    3.993 --     8 C    0.990    33 H    0.986    34 H    0.986
                            35 H    0.981
    11   7 N    3.096 --    12 C    0.963     8 C    0.960    36 H    0.930
    12   6 C    3.878 --    13 O    1.407    14 C    1.398    11 N    0.963
    13   8 O    1.717 --    12 C    1.407    14 C    0.130
    14   6 C    3.538 --    12 C    1.398    19 N    0.971    15 O    0.906
                            13 O    0.130
    15   8 O    2.188 --    16 C    1.088    14 C    0.906    18 N    0.122
    16   6 C    3.901 --    18 N    1.701    15 O    1.088    17 C    1.017
    17   6 C    3.993 --    16 C    1.017    38 H    0.986    39 H    0.971
                            37 H    0.971
    18   7 N    2.924 --    16 C    1.701    19 N    0.991    15 O    0.122
    19   7 N    3.064 --    18 N    0.991    14 C    0.971    20 C    0.954
    20   6 C    3.960 --    40 H    0.988    42 H    0.985    41 H    0.983
                            19 N    0.954
    21   7 N    3.449 --     7 C    1.167    23 C    1.087    22 C    0.935
                            24 O    0.124
    22   6 C    3.929 --    45 H    0.978    44 H    0.977    43 H    0.970
                            21 N    0.935
    23   6 C    3.878 --    24 O    1.533    25 C    1.122    21 N    1.087
    24   8 O    1.830 --    23 C    1.533    21 N    0.124
    25   6 C    3.833 --     5 C    1.403    23 C    1.122    26 O    1.086
    26   8 O    2.039 --    25 C    1.086    46 H    0.789
    27   1 H    1.009 --     1 C    0.980
    28   1 H    1.013 --     1 C    0.987
    29   1 H    1.009 --     1 C    0.980
    30   1 H    1.007 --     9 C    0.982
    31   1 H    1.006 --     9 C    0.988
    32   1 H    1.025 --     9 C    0.976
    33   1 H    1.012 --    10 C    0.986
    34   1 H    1.017 --    10 C    0.986
    35   1 H    1.018 --    10 C    0.981
    36   1 H    0.974 --    11 N    0.930
    37   1 H    1.002 --    17 C    0.971
    38   1 H    1.004 --    17 C    0.986
    39   1 H    1.002 --    17 C    0.971
    40   1 H    1.020 --    20 C    0.988
    41   1 H    1.013 --    20 C    0.983
    42   1 H    1.024 --    20 C    0.985
    43   1 H    1.028 --    22 C    0.970
    44   1 H    1.011 --    22 C    0.977
    45   1 H    1.006 --    22 C    0.978
    46   1 H    0.866 --    26 O    0.789
 ---------------------------------------------------------------------------

           -------------------------------------------------
          | TOTAL ENERGY              -87.035065780210 Eh   |
          | GRADIENT NORM               0.000834370218 Eh/α |
          | HOMO-LUMO GAP               0.099956780663 eV   |
           -------------------------------------------------

 * finished run on 2023/06/20 at 15:28:14.747
