   * xtb version 6.5.1 (579679a) compiled by 'ehlert@majestix' on 2022-07-11
          program call               : /lustre/hpc/kemi/ree/PhD/git/ReactivityQM/dep/xtb-6.5.1/bin/xtb --gfn 1 /lustre/hpc/kemi/ree/PhD/git/ReactivityQM/calculations/R03/reac02prodN13/conf11/R03_reac02prodN13_conf11_gfn1.xyz --opt --vfukui --chrg 1 --uhf 0 --alpb DMSO

   ID    Z sym.   atoms
    1    6 C      1, 3, 5, 7-10, 12, 14, 17-19, 22, 23, 25
    2    8 O      2, 4, 13, 20, 24, 26
    3    7 N      6, 11, 15, 16, 21
    4    1 H      27-46

      * Solvation model:               ALPB
        Solvent                        DMSO
        Solvent mass                       7.8130E+01 g/mol
          :  Hamiltonian                  GFN1-xTB          :
 * total energy  :   -86.2800097 Eh     change       -0.1199396E-10 Eh
 * total energy  :   -86.2929240 Eh     change       -0.1291433E-01 Eh
 * total energy  :   -86.2976706 Eh     change       -0.4746567E-02 Eh
 * total energy  :   -86.2984724 Eh     change       -0.8017882E-03 Eh
 * total energy  :   -86.2990725 Eh     change       -0.6001465E-03 Eh
 * total energy  :   -86.2993270 Eh     change       -0.2544447E-03 Eh
 * total energy  :   -86.2995764 Eh     change       -0.2494493E-03 Eh
 * total energy  :   -86.2997768 Eh     change       -0.2003333E-03 Eh
 * total energy  :   -86.2998964 Eh     change       -0.1196055E-03 Eh
 * total energy  :   -86.2999615 Eh     change       -0.6512428E-04 Eh
 * total energy  :   -86.3000794 Eh     change       -0.3301070E-04 Eh
 * total energy  :   -86.3001104 Eh     change       -0.3098141E-04 Eh
 * total energy  :   -86.3001294 Eh     change       -0.1899119E-04 Eh
 * total energy  :   -86.3001478 Eh     change       -0.1837159E-04 Eh
 * total energy  :   -86.3001606 Eh     change       -0.1282462E-04 Eh
 * total energy  :   -86.3001733 Eh     change       -0.1269240E-04 Eh
 * total energy  :   -86.3001818 Eh     change       -0.8527354E-05 Eh
 * total energy  :   -86.3001898 Eh     change       -0.8021541E-05 Eh
 * total energy  :   -86.3001942 Eh     change       -0.4383771E-05 Eh
   *** GEOMETRY OPTIMIZATION CONVERGED AFTER 21 ITERATIONS ***

 final structure:
================
46
 xtb: 6.5.1 (579679a)
C            4.94928274690317        1.16867032501952        3.56586920506176
O            4.07217939368622        0.74678577192584        2.51434955137396
C            4.41550204693415        1.09874955434956        1.27853314539467
O            5.40674164422259        1.73414563530707        1.01354709246381
C            3.42551299670047        0.61262012502368        0.26584439861472
N            2.35403427658155       -0.07436921848175        0.74299288138038
C            1.42794355609392       -0.53935419071415       -0.03995864425667
C            0.33463753158345       -1.34465907350924        0.64578989109598
C            0.50049399827429       -2.83004804896482        0.29267108019024
C            0.42950886626215       -1.15055095289229        2.16603858339629
N           -0.97697655623531       -0.82877236748826        0.21863524252737
C           -2.13666257832911       -1.43155138914519        0.53387957390768
O           -2.29194908808287       -2.48772164785919        1.10434834190459
C           -3.32424183402592       -0.62619466783357        0.07693789113296
N           -4.62356435602070       -0.98320694024495        0.30051598575235
N           -5.36183647906164       -0.08362847287612       -0.19378052559918
C           -4.56576802232815        0.93929261672115       -0.78284851049027
C           -4.82216684396611        1.02350483564539       -2.29217379400266
C           -4.78568111569097        2.28063174810673       -0.07362062119831
O           -3.22844185621825        0.48659251140037       -0.54937807375194
N            1.48026402712032       -0.37523083603195       -1.39418952960523
C            0.50282954201928       -0.87315667587713       -2.36267651645629
C            2.53346310934620        0.30626617622238       -1.99242334858378
O            2.60024262025064        0.45517160128360       -3.20335191089210
C            3.55134396268395        0.82416860709404       -1.08589764539366
O            4.55807465137211        1.47686430724972       -1.65243951861199
H            5.03833525036083        2.25746100585673        3.56317258874365
H            4.50212411519077        0.82641175329585        4.49649553046702
H            5.93723636357510        0.72204998654726        3.43036404611929
H           -0.13337349697177       -3.44369352982618        0.92891180080295
H            0.24228395183825       -3.01778820518521       -0.74578062934170
H            1.53964408407287       -3.11198329307505        0.45548024409434
H            0.33749101173193       -0.09446802634081        2.41129813679257
H            1.39277985888632       -1.51442684045119        2.51869383753710
H           -0.36841177671875       -1.70618755865051        2.65461905959523
H           -1.01654355351351        0.10609902266013       -0.15216624554586
H           -4.15445897934415        1.76734590434344       -2.71928017572947
H           -5.85760996730764        1.31180634397243       -2.45728044432844
H           -4.62927964384267        0.05233273789103       -2.74220218654956
H           -4.10593419351405        3.01598365505913       -0.49691387114655
H           -5.81590551762658        2.59341755564176       -0.22582081386365
H           -4.58551319501609        2.16184156606942        0.98899060461284
H           -0.37973000894005       -1.24948980018941       -1.86327411598792
H            0.23462425499452       -0.04618599477354       -3.01906876989450
H            0.97027794574434       -1.66052155880806       -2.95422776591171
H            4.42719725634886        1.50497394252602       -2.61864105583175

          :  Hamiltonian                  GFN1-xTB          :
         :: total energy             -86.300194220426 Eh    ::
         :: gradient norm              0.000666238388 Eh/a0 ::
         :: HOMO-LUMO gap              0.129264580222 eV    ::
         :: SCC energy               -87.123808045917 Eh    ::
         :: -> Gsolv                  -0.120509681623 Eh    ::
         :: repulsion energy           0.852581764892 Eh    ::

    * Orbital Energies and Occupations

         #    Occupation            Energy/Eh            Energy/eV
      -------------------------------------------------------------
         1        2.0000           -0.9331251             -25.3916
       ...           ...                  ...                  ...
        58        2.0000           -0.5331627             -14.5081
        59        2.0000           -0.5279724             -14.3669
        60        2.0000           -0.5206663             -14.1681
        61        2.0000           -0.5199738             -14.1492
        62        2.0000           -0.5126552             -13.9501
        63        2.0000           -0.5037350             -13.7073
        64        2.0000           -0.5001731             -13.6104
        65        2.0000           -0.4976458             -13.5416
        66        2.0000           -0.4936606             -13.4332
        67        2.0000           -0.4893842             -13.3168
        68        2.0000           -0.4773501             -12.9894
        69        2.0000           -0.4633702             -12.6089
        70        1.8483           -0.4461927             -12.1415 (HOMO)
        71        0.1517           -0.4414424             -12.0123 (LUMO)
        72                         -0.3573533              -9.7241
        73                         -0.3390118              -9.2250
        74                         -0.3053813              -8.3098
        75                         -0.2578036              -7.0152
        76                         -0.2538291              -6.9070
        77                         -0.1750376              -4.7630
        78                         -0.1611217              -4.3843
        79                         -0.1558149              -4.2399
        80                         -0.1541621              -4.1950
        81                         -0.1419181              -3.8618
       ...                                ...                  ...
       144                          0.7342480              19.9799
      -------------------------------------------------------------
                  HL-Gap            0.0047504 Eh            0.1293 eV

Wiberg/Mayer (AO) data.
largest (>0.10) Wiberg bond orders for each atom

     #   Z sym  total        # sym  WBO       # sym  WBO       # sym  WBO
 ---------------------------------------------------------------------------
     1   6 C    3.866 --    28 H    0.986    27 H    0.979    29 H    0.979
                             2 O    0.892
     2   8 O    2.206 --     3 C    1.122     1 C    0.892     4 O    0.139
     3   6 C    3.855 --     4 O    1.669     2 O    1.122     5 C    0.988
     4   8 O    1.931 --     3 C    1.669     2 O    0.139
     5   6 C    3.925 --    25 C    1.443     6 N    1.224     3 C    0.988
     6   7 N    2.995 --     7 C    1.527     5 C    1.224
     7   6 C    3.903 --     6 N    1.527    21 N    1.198     8 C    0.978
     8   6 C    3.911 --    10 C    0.979     7 C    0.978     9 C    0.976
                            11 N    0.908
     9   6 C    3.979 --    32 H    0.982    31 H    0.980    30 H    0.976
                             8 C    0.976
    10   6 C    3.979 --    33 H    0.984    35 H    0.982    34 H    0.980
                             8 C    0.979
    11   7 N    3.400 --    12 C    1.272     8 C    0.908    36 H    0.885
                            13 O    0.209
    12   6 C    3.923 --    13 O    1.615    11 N    1.272    14 C    0.952
    13   8 O    1.945 --    12 C    1.615    11 N    0.209
    14   6 C    3.726 --    20 O    1.305    15 N    1.226    12 C    0.952
    15   7 N    3.012 --    16 N    1.646    14 C    1.226
    16   7 N    2.895 --    15 N    1.646    17 C    1.054
    17   6 C    3.815 --    16 N    1.054    19 C    0.908    18 C    0.907
                            20 O    0.858
    18   6 C    3.940 --    39 H    0.979    38 H    0.977    37 H    0.976
                            17 C    0.907
    19   6 C    3.941 --    42 H    0.979    41 H    0.977    40 H    0.976
                            17 C    0.908
    20   8 O    2.344 --    14 C    1.305    17 C    0.858
    21   7 N    3.499 --     7 C    1.198    23 C    1.109    22 C    0.923
                            24 O    0.123
    22   6 C    3.910 --    43 H    0.977    44 H    0.972    45 H    0.971
                            21 N    0.923
    23   6 C    3.896 --    24 O    1.585    21 N    1.109    25 C    1.064
    24   8 O    1.888 --    23 C    1.585    21 N    0.123
    25   6 C    3.860 --     5 C    1.443    26 O    1.141    23 C    1.064
    26   8 O    2.088 --    25 C    1.141    46 H    0.797
    27   1 H    1.006 --     1 C    0.979
    28   1 H    1.010 --     1 C    0.986
    29   1 H    1.005 --     1 C    0.979
    30   1 H    1.006 --     9 C    0.976
    31   1 H    0.998 --     9 C    0.980
    32   1 H    0.998 --     9 C    0.982
    33   1 H    1.004 --    10 C    0.984
    34   1 H    1.007 --    10 C    0.980
    35   1 H    1.001 --    10 C    0.982
    36   1 H    0.925 --    11 N    0.885
    37   1 H    0.991 --    18 C    0.976
    38   1 H    0.992 --    18 C    0.977
    39   1 H    0.991 --    18 C    0.979
    40   1 H    0.991 --    19 C    0.976
    41   1 H    0.992 --    19 C    0.977
    42   1 H    0.991 --    19 C    0.979
    43   1 H    1.004 --    22 C    0.977
    44   1 H    1.000 --    22 C    0.972
    45   1 H    0.996 --    22 C    0.971
    46   1 H    0.835 --    26 O    0.797
 ---------------------------------------------------------------------------

           -------------------------------------------------
          | TOTAL ENERGY              -86.300194220426 Eh   |
          | GRADIENT NORM               0.000666238388 Eh/α |
          | HOMO-LUMO GAP               0.129264580222 eV   |
           -------------------------------------------------

 * finished run on 2023/06/20 at 15:48:57.852
