   * xtb version 6.5.1 (579679a) compiled by 'ehlert@majestix' on 2022-07-11
          program call               : /lustre/hpc/kemi/ree/PhD/git/ReactivityQM/dep/xtb-6.5.1/bin/xtb --gfn 1 /lustre/hpc/kemi/ree/PhD/git/ReactivityQM/calculations/R02oxygendeprot/reac01prodN09/conf12/R02oxygendeprot_reac01prodN09_conf12_gfn1.xyz --opt --vfukui --chrg 0 --uhf 0 --alpb DMSO

   ID    Z sym.   atoms
    1    6 C      1, 3, 4, 6, 8-11, 13, 15, 18, 19, 22, 24
    2    8 O      2, 5, 14, 20, 23, 25
    3    7 N      7, 12, 16, 17, 21
    4    1 H      26-42

      * Solvation model:               ALPB
        Solvent                        DMSO
        Solvent mass                       7.8130E+01 g/mol
          :  Hamiltonian                  GFN1-xTB          :
 * total energy  :   -82.8678762 Eh     change       -0.2025331E-09 Eh
 * total energy  :   -82.8825258 Eh     change       -0.1464964E-01 Eh
 * total energy  :   -82.8996723 Eh     change       -0.1714646E-01 Eh
 * total energy  :   -82.9125926 Eh     change       -0.1292035E-01 Eh
 * total energy  :   -82.9317453 Eh     change       -0.1915269E-01 Eh
 * total energy  :   -82.9521184 Eh     change       -0.2037309E-01 Eh
 * total energy  :   -82.9536517 Eh     change       -0.1533358E-02 Eh
 * total energy  :   -82.9639228 Eh     change       -0.1027108E-01 Eh
 * total energy  :   -82.9644621 Eh     change       -0.5392618E-03 Eh
 * total energy  :   -82.9672173 Eh     change       -0.2755219E-02 Eh
 * total energy  :   -82.9784721 Eh     change       -0.3052756E-04 Eh
 * total energy  :   -82.9784992 Eh     change       -0.2716375E-04 Eh
 * total energy  :   -82.9785208 Eh     change       -0.2153665E-04 Eh
 * total energy  :   -82.9785443 Eh     change       -0.2354914E-04 Eh
 * total energy  :   -82.9785695 Eh     change       -0.2520268E-04 Eh
 * total energy  :   -82.9785853 Eh     change       -0.1577953E-04 Eh
 * total energy  :   -82.9785959 Eh     change       -0.1063131E-04 Eh
 * total energy  :   -82.9786033 Eh     change       -0.7375203E-05 Eh
 * total energy  :   -82.9786078 Eh     change       -0.4457157E-05 Eh
   *** GEOMETRY OPTIMIZATION CONVERGED AFTER 63 ITERATIONS ***

 final structure:
================
42
 xtb: 6.5.1 (579679a)
C           -3.74896612701415       -0.17435197444370        2.04570628600492
O           -3.63597454712106        0.97980924833467        1.21384342234105
C           -3.79679115593835        0.85079164520399       -0.12955869489973
C           -4.39041903580374        2.10349233103188       -0.72774379204223
O           -4.15768649155959       -0.37331316852362       -0.64007449864075
C           -2.80968369336728       -0.03089516249869       -0.93401497802570
N           -1.84513111305541       -0.70883072890300       -0.16149762858889
C           -0.63791051992236       -0.76075173515928       -0.55797682506471
C            0.42477369562273       -1.46999618066093        0.25547062103808
C            0.70261498363515       -2.83535719675765       -0.38076117784984
C           -0.00661798677297       -1.62029493647593        1.71556652429736
N            1.65534478036216       -0.68085246085888        0.18071750336565
C            1.65586493923619        0.63566513444143        0.49436144078370
O            0.64917071880791        1.28886482885603        0.71165278849093
C            3.01349110556929        1.22727285489656        0.50266879562102
N            3.34367389013829        2.46114334998228        0.72680551387601
N            4.69921172857670        2.53163111885361        0.61508810502027
C            5.11408924847645        1.33643870041209        0.32976016693377
C            6.50398155051574        0.88450512876813        0.10592885694209
O            4.09701090521831        0.46344294124499        0.24448803446670
N           -0.21038905601731       -0.25373667306835       -1.77150638977125
C           -1.02543919674662        0.29313858078059       -2.71841332131742
O           -0.60400061782383        0.68702548249424       -3.78445754615998
C           -2.50450151137312        0.32755573731598       -2.33661848892428
O           -3.34013502018630        0.67513684400871       -3.14373749354687
H           -2.86064635341812       -0.80398006546964        1.95698830503268
H           -3.83921312964539        0.19496629024053        3.06651049395743
H           -4.63360857683353       -0.75728075374322        1.77779229486795
H           -3.71736005740057        2.94307150888333       -0.56620959053237
H           -5.32995065121369        2.30474439490740       -0.21557628009065
H           -4.58431920951093        1.97717917503959       -1.78866093932067
H            1.47403685554723       -3.35446542408537        0.18428874459892
H           -0.20566911747120       -3.43604171327361       -0.37391092733587
H            1.03988448387534       -2.71121810091023       -1.40819225092999
H           -0.90042981686050       -2.23939672164405        1.76941384204552
H            0.79066103985191       -2.09368342802513        2.28423969411027
H           -0.22221360848178       -0.64266833481968        2.14530298021405
H            2.52856739290297       -1.17434031869806        0.11600142317233
H            6.77973126255576        0.14782146299538        0.86041289239313
H            7.18110694910857        1.73359884710346        0.16040537236438
H            6.58569390993044        0.40972819218050       -0.87132620820153
H            0.76814715360838       -0.33556771995386       -2.00327007069014

          :  Hamiltonian                  GFN1-xTB          :
         :: total energy             -82.978607753182 Eh    ::
         :: gradient norm              0.000686998720 Eh/a0 ::
         :: HOMO-LUMO gap              2.335215754883 eV    ::
         :: SCC energy               -83.744564928048 Eh    ::
         :: -> Gsolv                  -0.063005004826 Eh    ::
         :: repulsion energy           0.792818732579 Eh    ::

    * Orbital Energies and Occupations

         #    Occupation            Energy/Eh            Energy/eV
      -------------------------------------------------------------
         1        2.0000           -0.8669109             -23.5898
       ...           ...                  ...                  ...
        55        2.0000           -0.5085697             -13.8389
        56        2.0000           -0.5073497             -13.8057
        57        2.0000           -0.5066551             -13.7868
        58        2.0000           -0.5017976             -13.6546
        59        2.0000           -0.4824711             -13.1287
        60        2.0000           -0.4810934             -13.0912
        61        2.0000           -0.4718769             -12.8404
        62        2.0000           -0.4689026             -12.7595
        63        2.0000           -0.4624859             -12.5849
        64        2.0000           -0.4545057             -12.3677
        65        2.0000           -0.4533396             -12.3360
        66        2.0000           -0.4458160             -12.1313
        67        2.0000           -0.4337431             -11.8028 (HOMO)
        68                         -0.3479255              -9.4675 (LUMO)
        69                         -0.3145558              -8.5595
        70                         -0.2860293              -7.7833
        71                         -0.2578120              -7.0154
        72                         -0.2305675              -6.2741
        73                         -0.2015131              -5.4835
        74                         -0.1435601              -3.9065
        75                         -0.1416472              -3.8544
        76                         -0.1351835              -3.6785
        77                         -0.1334949              -3.6326
        78                         -0.1217918              -3.3141
       ...                                ...                  ...
       134                          0.7524878              20.4762
      -------------------------------------------------------------
                  HL-Gap            0.0858176 Eh            2.3352 eV

Wiberg/Mayer (AO) data.
largest (>0.10) Wiberg bond orders for each atom

     #   Z sym  total        # sym  WBO       # sym  WBO       # sym  WBO
 ---------------------------------------------------------------------------
     1   6 C    3.876 --    27 H    0.984    28 H    0.981    26 H    0.973
                             2 O    0.900
     2   8 O    2.102 --     3 C    1.028     1 C    0.900
     3   6 C    3.830 --     2 O    1.028     4 C    0.989     5 O    0.940
                             6 C    0.731
     4   6 C    3.983 --     3 C    0.989    29 H    0.979    31 H    0.977
                            30 H    0.970
     5   8 O    1.982 --     3 C    0.940     6 C    0.856
     6   6 C    3.846 --     7 N    1.037    24 C    1.037     5 O    0.856
                             3 C    0.731
     7   7 N    3.042 --     8 C    1.705     6 C    1.037
     8   6 C    3.927 --     7 N    1.705    21 N    1.087     9 C    0.975
     9   6 C    3.937 --    11 C    0.990    10 C    0.982     8 C    0.975
                            12 N    0.927
    10   6 C    3.987 --    34 H    0.983    33 H    0.983     9 C    0.982
                            32 H    0.981
    11   6 C    3.988 --     9 C    0.990    36 H    0.984    35 H    0.982
                            37 H    0.981
    12   7 N    3.336 --    13 C    1.242     9 C    0.927    38 H    0.889
                            14 O    0.173
    13   6 C    3.915 --    14 O    1.590    12 N    1.242    15 C    0.997
    14   8 O    1.893 --    13 C    1.590    12 N    0.173
    15   6 C    3.874 --    16 N    1.619    20 O    1.048    13 C    0.997
    16   7 N    3.001 --    15 C    1.619    17 N    1.201
    17   7 N    2.982 --    18 C    1.607    16 N    1.201
    18   6 C    3.867 --    17 N    1.607    20 O    1.074    19 C    1.032
    19   6 C    3.986 --    18 C    1.032    40 H    0.982    41 H    0.964
                            39 H    0.961
    20   8 O    2.317 --    18 C    1.074    15 C    1.048
    21   7 N    3.437 --    22 C    1.179     8 C    1.087    42 H    0.880
                            23 O    0.147
    22   6 C    3.893 --    23 O    1.659    21 N    1.179    24 C    0.922
    23   8 O    1.942 --    22 C    1.659    21 N    0.147
    24   6 C    3.886 --    25 O    1.733     6 C    1.037    22 C    0.922
    25   8 O    1.994 --    24 C    1.733
    26   1 H    1.031 --     1 C    0.973
    27   1 H    1.011 --     1 C    0.984
    28   1 H    1.009 --     1 C    0.981
    29   1 H    1.000 --     4 C    0.979
    30   1 H    0.998 --     4 C    0.970
    31   1 H    1.009 --     4 C    0.977
    32   1 H    0.996 --    10 C    0.981
    33   1 H    0.999 --    10 C    0.983
    34   1 H    0.998 --    10 C    0.983
    35   1 H    1.007 --    11 C    0.982
    36   1 H    1.000 --    11 C    0.984
    37   1 H    1.008 --    11 C    0.981
    38   1 H    0.930 --    12 N    0.889
    39   1 H    0.996 --    19 C    0.961
    40   1 H    0.998 --    19 C    0.982
    41   1 H    0.996 --    19 C    0.964
    42   1 H    0.930 --    21 N    0.880
 ---------------------------------------------------------------------------

           -------------------------------------------------
          | TOTAL ENERGY              -82.978607753182 Eh   |
          | GRADIENT NORM               0.000686998720 Eh/α |
          | HOMO-LUMO GAP               2.335215754883 eV   |
           -------------------------------------------------

 * finished run on 2023/06/21 at 17:24:57.672
