   * xtb version 6.5.1 (579679a) compiled by 'ehlert@majestix' on 2022-07-11
          program call               : /lustre/hpc/kemi/ree/PhD/git/ReactivityQM/dep/xtb-6.5.1/bin/xtb --gfn 1 /lustre/hpc/kemi/ree/PhD/git/ReactivityQM/calculations/R02oxygendeprot/reac01prodN09/conf11/R02oxygendeprot_reac01prodN09_conf11_gfn1.xyz --opt --vfukui --chrg 0 --uhf 0 --alpb DMSO

   ID    Z sym.   atoms
    1    6 C      1, 3, 4, 6, 8-11, 13, 15, 18, 19, 22, 24
    2    8 O      2, 5, 14, 20, 23, 25
    3    7 N      7, 12, 16, 17, 21
    4    1 H      26-42

      * Solvation model:               ALPB
        Solvent                        DMSO
        Solvent mass                       7.8130E+01 g/mol
          :  Hamiltonian                  GFN1-xTB          :
 * total energy  :   -82.8609995 Eh     change       -0.2762690E-08 Eh
 * total energy  :   -82.8760858 Eh     change       -0.1508622E-01 Eh
 * total energy  :   -82.8939956 Eh     change       -0.1790985E-01 Eh
 * total energy  :   -82.9076030 Eh     change       -0.1360743E-01 Eh
 * total energy  :   -82.9304354 Eh     change       -0.2283240E-01 Eh
 * total energy  :   -82.9412185 Eh     change       -0.1078310E-01 Eh
 * total energy  :   -82.9462126 Eh     change       -0.4994022E-02 Eh
 * total energy  :   -82.9583212 Eh     change       -0.1210866E-01 Eh
 * total energy  :   -82.9618517 Eh     change       -0.3530489E-02 Eh
 * total energy  :   -82.9630567 Eh     change       -0.1205028E-02 Eh
 * total energy  :   -82.9708704 Eh     change       -0.3301513E-04 Eh
 * total energy  :   -82.9709002 Eh     change       -0.2979667E-04 Eh
 * total energy  :   -82.9709153 Eh     change       -0.1512494E-04 Eh
 * total energy  :   -82.9709378 Eh     change       -0.2249016E-04 Eh
 * total energy  :   -82.9709562 Eh     change       -0.1841900E-04 Eh
 * total energy  :   -82.9709699 Eh     change       -0.1371736E-04 Eh
 * total energy  :   -82.9709942 Eh     change       -0.2426250E-04 Eh
 * total energy  :   -82.9710007 Eh     change       -0.6493413E-05 Eh
 * total energy  :   -82.9710048 Eh     change       -0.4168284E-05 Eh
   *** GEOMETRY OPTIMIZATION CONVERGED AFTER 52 ITERATIONS ***

 final structure:
================
42
 xtb: 6.5.1 (579679a)
C           -4.25871485574693        1.77824665093940        0.40751641796388
O           -4.50163140477165        0.37210650601530        0.47375449637731
C           -4.25456926459410       -0.38735404220418       -0.62659093932007
C           -5.24212646360528       -1.52200150491274       -0.74570616328361
O           -3.79119164762419        0.22945274485507       -1.76332625957962
C           -2.79272927362174       -0.54494783913172       -1.11500272309046
N           -1.84028559282150        0.20097801996963       -0.39234301452510
C           -0.73650979692995       -0.33311566511113       -0.05395022962225
C            0.25235017999215        0.41209719261735        0.81747028148081
C           -0.03477714702871        1.91542097492587        0.80283856851239
C            0.14496608931019       -0.15943808707634        2.23944488130771
N            1.58782657350333        0.15669180983657        0.26802873797696
C            2.72437295330902        0.61468989711803        0.84611420790717
O            2.80053550153268        1.15686803762271        1.93194495993530
C            3.89617211562639        0.34980459469341       -0.02616770824518
N            3.86734472339415       -0.19620796101001       -1.20506097501007
N            5.15335912198716       -0.23448624864218       -1.65141199343170
C            5.88530275889073        0.29298640127405       -0.71642215084797
C            7.35161395535765        0.48912056900753       -0.71803270720952
O            5.14859296343061        0.68174012420515        0.33420660693095
N           -0.38003502856761       -1.62368610304753       -0.40405200509566
C           -1.08633453880474       -2.42060805802205       -1.26205702048057
O           -0.69225469692131       -3.51696986006279       -1.59193682506056
C           -2.38529463605951       -1.80279785233628       -1.77708260421778
O           -3.04135809867503       -2.36390533112679       -2.62773345278505
H           -4.64237376387151        2.19404075341485        1.33835139977894
H           -4.78388591334099        2.21609388412567       -0.44623087582244
H           -3.18855537641770        1.98415908004550        0.32181910466370
H           -5.06111615865173       -2.10779171742498       -1.64212561365994
H           -5.17729157987516       -2.15473135788360        0.13697953074480
H           -6.24149375688537       -1.09202475171377       -0.79518000759445
H           -1.03571989852090        2.09845629988428        1.18885891270954
H            0.02874000745113        2.29866936317419       -0.21410976347840
H            0.68771015350483        2.43474997018071        1.42963008185563
H            0.80004430673870        0.38660405514404        2.91482016099049
H           -0.88246200698315       -0.06407421428762        2.58695199193500
H            0.42614786129720       -1.21085510414626        2.24289396694769
H            1.65362284140487       -0.15119734767202       -0.69092546448996
H            7.58425093319178        1.54888187347318       -0.61352571765050
H            7.79882626464460       -0.03862583288248        0.12427100356010
H            7.77039563348297        0.11357548890128       -1.64832696929532
H            0.48853496226534       -2.00061041273384       -0.05512712778002

          :  Hamiltonian                  GFN1-xTB          :
         :: total energy             -82.971004841084 Eh    ::
         :: gradient norm              0.000546839606 Eh/a0 ::
         :: HOMO-LUMO gap              2.363163451630 eV    ::
         :: SCC energy               -83.736198516131 Eh    ::
         :: -> Gsolv                  -0.051830506085 Eh    ::
         :: repulsion energy           0.791284168587 Eh    ::

    * Orbital Energies and Occupations

         #    Occupation            Energy/Eh            Energy/eV
      -------------------------------------------------------------
         1        2.0000           -0.8651335             -23.5415
       ...           ...                  ...                  ...
        55        2.0000           -0.5107904             -13.8993
        56        2.0000           -0.5077035             -13.8153
        57        2.0000           -0.5073956             -13.8069
        58        2.0000           -0.5038944             -13.7117
        59        2.0000           -0.4845144             -13.1843
        60        2.0000           -0.4834882             -13.1564
        61        2.0000           -0.4733032             -12.8792
        62        2.0000           -0.4662337             -12.6869
        63        2.0000           -0.4633826             -12.6093
        64        2.0000           -0.4541508             -12.3581
        65        2.0000           -0.4511425             -12.2762
        66        2.0000           -0.4509394             -12.2707
        67        2.0000           -0.4377892             -11.9129 (HOMO)
        68                         -0.3509445              -9.5497 (LUMO)
        69                         -0.3138130              -8.5393
        70                         -0.2913035              -7.9268
        71                         -0.2581404              -7.0244
        72                         -0.2342919              -6.3754
        73                         -0.2016740              -5.4878
        74                         -0.1443074              -3.9268
        75                         -0.1424015              -3.8749
        76                         -0.1343630              -3.6562
        77                         -0.1300081              -3.5377
        78                         -0.1238758              -3.3708
       ...                                ...                  ...
       134                          0.7522422              20.4696
      -------------------------------------------------------------
                  HL-Gap            0.0868447 Eh            2.3632 eV

Wiberg/Mayer (AO) data.
largest (>0.10) Wiberg bond orders for each atom

     #   Z sym  total        # sym  WBO       # sym  WBO       # sym  WBO
 ---------------------------------------------------------------------------
     1   6 C    3.874 --    26 H    0.984    27 H    0.981    28 H    0.973
                             2 O    0.898
     2   8 O    2.098 --     3 C    1.028     1 C    0.898
     3   6 C    3.831 --     2 O    1.028     4 C    0.990     5 O    0.942
                             6 C    0.728
     4   6 C    3.982 --     3 C    0.990    30 H    0.979    29 H    0.977
                            31 H    0.969
     5   8 O    1.984 --     3 C    0.942     6 C    0.859
     6   6 C    3.847 --    24 C    1.037     7 N    1.037     5 O    0.859
                             3 C    0.728
     7   7 N    3.043 --     8 C    1.708     6 C    1.037
     8   6 C    3.927 --     7 N    1.708    21 N    1.088     9 C    0.979
     9   6 C    3.934 --    10 C    0.990     8 C    0.979    11 C    0.975
                            12 N    0.924
    10   6 C    3.989 --     9 C    0.990    33 H    0.985    34 H    0.981
                            32 H    0.981
    11   6 C    3.987 --    36 H    0.985    37 H    0.984    35 H    0.976
                             9 C    0.975
    12   7 N    3.325 --    13 C    1.233     9 C    0.924    38 H    0.894
                            14 O    0.172
    13   6 C    3.914 --    14 O    1.607    12 N    1.233    15 C    0.991
    14   8 O    1.922 --    13 C    1.607    12 N    0.172
    15   6 C    3.876 --    16 N    1.608    20 O    1.065    13 C    0.991
    16   7 N    3.019 --    15 C    1.608    17 N    1.202
    17   7 N    2.981 --    18 C    1.602    16 N    1.202
    18   6 C    3.870 --    17 N    1.602    20 O    1.084    19 C    1.032
    19   6 C    3.986 --    18 C    1.032    41 H    0.983    40 H    0.963
                            39 H    0.963
    20   8 O    2.332 --    18 C    1.084    15 C    1.065
    21   7 N    3.429 --    22 C    1.168     8 C    1.088    42 H    0.880
                            23 O    0.144
    22   6 C    3.891 --    23 O    1.668    21 N    1.168    24 C    0.921
    23   8 O    1.949 --    22 C    1.668    21 N    0.144
    24   6 C    3.888 --    25 O    1.735     6 C    1.037    22 C    0.921
    25   8 O    1.998 --    24 C    1.735
    26   1 H    1.011 --     1 C    0.984
    27   1 H    1.007 --     1 C    0.981
    28   1 H    1.031 --     1 C    0.973
    29   1 H    1.008 --     4 C    0.977
    30   1 H    0.999 --     4 C    0.979
    31   1 H    0.997 --     4 C    0.969
    32   1 H    1.009 --    10 C    0.981
    33   1 H    1.003 --    10 C    0.985
    34   1 H    1.005 --    10 C    0.981
    35   1 H    1.009 --    11 C    0.976
    36   1 H    1.001 --    11 C    0.985
    37   1 H    1.000 --    11 C    0.984
    38   1 H    0.951 --    12 N    0.894
    39   1 H    0.996 --    19 C    0.963
    40   1 H    0.996 --    19 C    0.963
    41   1 H    0.998 --    19 C    0.983
    42   1 H    0.926 --    21 N    0.880
 ---------------------------------------------------------------------------

           -------------------------------------------------
          | TOTAL ENERGY              -82.971004841084 Eh   |
          | GRADIENT NORM               0.000546839606 Eh/α |
          | HOMO-LUMO GAP               2.363163451630 eV   |
           -------------------------------------------------

 * finished run on 2023/06/21 at 17:25:04.446
