   * xtb version 6.5.1 (579679a) compiled by 'ehlert@majestix' on 2022-07-11
          program call               : /lustre/hpc/kemi/ree/PhD/git/ReactivityQM/dep/xtb-6.5.1/bin/xtb --gfn 1 /lustre/hpc/kemi/ree/PhD/git/ReactivityQM/calculations/R02/reac01prodE06/conf03/R02_reac01prodE06_conf03_gfn1.xyz --opt --vfukui --chrg -1 --uhf 0 --alpb DMSO

   ID    Z sym.   atoms
    1    6 C      1, 3, 5, 6, 8, 11-15, 17, 19, 22, 23
    2    8 O      2, 4, 7, 9, 18, 24
    3    7 N      10, 16, 20, 21, 25
    4    1 H      26-43

      * Solvation model:               ALPB
        Solvent                        DMSO
        Solvent mass                       7.8130E+01 g/mol
          :  Hamiltonian                  GFN1-xTB          :
 * total energy  :   -83.8610891 Eh     change       -0.1689671E-10 Eh
 * total energy  :   -83.8738109 Eh     change       -0.1272182E-01 Eh
 * total energy  :   -83.8793466 Eh     change       -0.5535688E-02 Eh
 * total energy  :   -83.8805273 Eh     change       -0.1180739E-02 Eh
 * total energy  :   -83.8813356 Eh     change       -0.8083065E-03 Eh
 * total energy  :   -83.8815961 Eh     change       -0.2604947E-03 Eh
 * total energy  :   -83.8817510 Eh     change       -0.1548450E-03 Eh
 * total energy  :   -83.8818665 Eh     change       -0.1154971E-03 Eh
 * total energy  :   -83.8819763 Eh     change       -0.1097772E-03 Eh
 * total energy  :   -83.8821071 Eh     change       -0.1308509E-03 Eh
 * total energy  :   -83.8826096 Eh     change       -0.1015659E-04 Eh
 * total energy  :   -83.8826208 Eh     change       -0.1124889E-04 Eh
 * total energy  :   -83.8826241 Eh     change       -0.3311664E-05 Eh
 * total energy  :   -83.8826296 Eh     change       -0.5507319E-05 Eh
 * total energy  :   -83.8826357 Eh     change       -0.6095515E-05 Eh
 * total energy  :   -83.8826435 Eh     change       -0.7737920E-05 Eh
 * total energy  :   -83.8826497 Eh     change       -0.6270924E-05 Eh
 * total energy  :   -83.8826548 Eh     change       -0.5117660E-05 Eh
 * total energy  :   -83.8826587 Eh     change       -0.3858346E-05 Eh
   *** GEOMETRY OPTIMIZATION CONVERGED AFTER 34 ITERATIONS ***

 final structure:
================
43
 xtb: 6.5.1 (579679a)
C           -4.33391791766131        2.49940565187997       -2.22971687842146
O           -3.84938553536261        1.75731578196159       -1.11145657969393
C           -2.68613654397643        1.10149183440414       -1.29480591340789
O           -2.09449480258896        1.15674330766979       -2.35435956266002
C           -2.21685332193124        0.33035512218846       -0.10719102607974
C           -2.63109064818319        0.60000266894877        1.20345146722074
O           -3.58757037253079        1.56857683514750        1.53467215013553
C           -1.91531199936138        0.02065725741229        2.29245539094519
O           -2.08087714965104        0.24729415370763        3.50111847012322
N           -0.84775864485782       -0.80776604741326        1.90548900069364
C           -0.90594126884282       -1.49840763715163        0.62224682996495
C           -1.87990046258407       -2.69375971082785        0.70942800218101
C            0.54663325863463       -1.93792581199810        0.24371422800850
C            0.57616696770569       -2.56276345990920       -1.15636358420547
C            1.18775777372628       -2.88770793642749        1.25957373218422
N            1.29376998010261       -0.67494696706582        0.21870621111690
C            2.58794400849722       -0.53224015926831       -0.07447228674736
O            3.37960663037900       -1.43011944531578       -0.33160787728337
C            2.98076040920617        0.90852646219661       -0.05287738975591
N            2.19737159001757        1.91441365993278        0.19318801795044
N            2.95946398011658        3.04212981417806        0.09650296896512
C            4.15973113113120        2.65060737762524       -0.20293757400528
C            5.36147927704143        3.49072189495939       -0.41560340681707
O            4.23817526593513        1.31630855290133       -0.31148847707401
N           -1.33803367143803       -0.60790207937934       -0.43207143092528
H           -5.23088931992677        3.02062196803990       -1.90150714735778
H           -3.58230524322860        3.22010911549291       -2.56472017318592
H           -4.57470959606778        1.82447115852982       -3.05549104763529
H           -4.33123225791410        1.53305376025494        0.92160925906260
H           -0.53214350860073       -1.39364970589741        2.66605902155958
H           -1.55917824151717       -3.40463364522334        1.46789215208136
H           -2.86982779776095       -2.32502980675631        0.97590144946588
H           -1.94629538301441       -3.19662802936890       -0.25286253864281
H            0.05192720380948       -1.91498516376147       -1.85992311219985
H            1.60473588343686       -2.69597672120070       -1.48833454567103
H            0.09207631475038       -3.53731669698602       -1.14058094879558
H            1.25185952072523       -2.42403745609508        2.24244844964972
H            0.60439488824375       -3.80269168576244        1.33786490858082
H            2.19452638308163       -3.15062064932468        0.93675928287299
H            0.74085224690632        0.16011989807101        0.39042626523283
H            5.16161216930298        4.24467774055015       -1.17581044108170
H            6.19448109186470        2.86837126915019       -0.73252801391798
H            5.62852571239069        4.00313452993685        0.50844669756778

          :  Hamiltonian                  GFN1-xTB          :
         :: total energy             -83.882658705097 Eh    ::
         :: gradient norm              0.000534202242 Eh/a0 ::
         :: HOMO-LUMO gap              0.777811875513 eV    ::
         :: SCC energy               -84.639019831018 Eh    ::
         :: -> Gsolv                  -0.115961284526 Eh    ::
         :: repulsion energy           0.784241396467 Eh    ::

    * Orbital Energies and Occupations

         #    Occupation            Energy/Eh            Energy/eV
      -------------------------------------------------------------
         1        2.0000           -0.8570840             -23.3224
       ...           ...                  ...                  ...
        56        2.0000           -0.4754532             -12.9377
        57        2.0000           -0.4741328             -12.9018
        58        2.0000           -0.4621527             -12.5758
        59        2.0000           -0.4518294             -12.2949
        60        2.0000           -0.4510046             -12.2725
        61        2.0000           -0.4457206             -12.1287
        62        2.0000           -0.4398876             -11.9700
        63        2.0000           -0.4315882             -11.7441
        64        2.0000           -0.4284527             -11.6588
        65        2.0000           -0.4071210             -11.0783
        66        2.0000           -0.3920479             -10.6682
        67        2.0000           -0.3801200             -10.3436
        68        2.0000           -0.3259879              -8.8706 (HOMO)
        69        0.0000           -0.2974039              -8.0928 (LUMO)
        70                         -0.2695637              -7.3352
        71                         -0.2515390              -6.8447
        72                         -0.1950672              -5.3080
        73                         -0.1858941              -5.0584
        74                         -0.1413600              -3.8466
        75                         -0.1276096              -3.4724
        76                         -0.1211797              -3.2975
        77                         -0.1165688              -3.1720
        78                         -0.1096435              -2.9836
        79                         -0.0991739              -2.6987
       ...                                ...                  ...
       136                          0.7334272              19.9576
      -------------------------------------------------------------
                  HL-Gap            0.0285841 Eh            0.7778 eV

Wiberg/Mayer (AO) data.
largest (>0.10) Wiberg bond orders for each atom

     #   Z sym  total        # sym  WBO       # sym  WBO       # sym  WBO
 ---------------------------------------------------------------------------
     1   6 C    3.885 --    26 H    0.987    28 H    0.980    27 H    0.980
                             2 O    0.907
     2   8 O    2.189 --     3 C    1.074     1 C    0.907     4 O    0.122
     3   6 C    3.817 --     4 O    1.650     2 O    1.074     5 C    1.000
     4   8 O    1.902 --     3 C    1.650     2 O    0.122
     5   6 C    3.970 --    25 N    1.428     6 C    1.329     3 C    1.000
     6   6 C    3.858 --     5 C    1.329     8 C    1.197     7 O    0.967
                            25 N    0.180
     7   8 O    1.934 --     6 C    0.967    29 H    0.856
     8   6 C    3.914 --     9 O    1.499     6 C    1.197    10 N    1.067
     9   8 O    1.798 --     8 C    1.499    10 N    0.101
    10   7 N    3.186 --     8 C    1.067    11 C    0.944    30 H    0.920
                             9 O    0.101
    11   6 C    3.946 --    25 N    1.000    12 C    0.975    13 C    0.949
                            10 N    0.944
    12   6 C    3.995 --    32 H    0.984    31 H    0.983    33 H    0.983
                            11 C    0.975
    13   6 C    3.923 --    15 C    0.998    14 C    0.995    11 C    0.949
                            16 N    0.914
    14   6 C    3.994 --    13 C    0.995    36 H    0.984    35 H    0.983
                            34 H    0.981
    15   6 C    3.994 --    13 C    0.998    38 H    0.983    37 H    0.982
                            39 H    0.980
    16   7 N    3.396 --    17 C    1.307    13 C    0.914    40 H    0.891
                            18 O    0.189
    17   6 C    3.925 --    18 O    1.558    16 N    1.307    19 C    0.979
    18   8 O    1.882 --    17 C    1.558    16 N    0.189
    19   6 C    3.868 --    20 N    1.617    24 O    1.060    17 C    0.979
    20   7 N    3.011 --    19 C    1.617    21 N    1.193
    21   7 N    2.978 --    22 C    1.612    20 N    1.193
    22   6 C    3.874 --    21 N    1.612    24 O    1.083    23 C    1.028
    23   6 C    3.988 --    22 C    1.028    42 H    0.983    41 H    0.967
                            43 H    0.964
    24   8 O    2.326 --    22 C    1.083    19 C    1.060
    25   7 N    2.929 --     5 C    1.428    11 C    1.000     6 C    0.180
    26   1 H    1.013 --     1 C    0.987
    27   1 H    1.012 --     1 C    0.980
    28   1 H    1.010 --     1 C    0.980
    29   1 H    0.897 --     7 O    0.856
    30   1 H    0.968 --    10 N    0.920
    31   1 H    1.005 --    12 C    0.983
    32   1 H    1.007 --    12 C    0.984
    33   1 H    1.010 --    12 C    0.983
    34   1 H    1.027 --    14 C    0.981
    35   1 H    1.011 --    14 C    0.983
    36   1 H    1.005 --    14 C    0.984
    37   1 H    1.005 --    15 C    0.982
    38   1 H    1.005 --    15 C    0.983
    39   1 H    1.012 --    15 C    0.980
    40   1 H    0.985 --    16 N    0.891
    41   1 H    0.999 --    23 C    0.967
    42   1 H    0.998 --    23 C    0.983
    43   1 H    0.999 --    23 C    0.964
 ---------------------------------------------------------------------------

           -------------------------------------------------
          | TOTAL ENERGY              -83.882658705097 Eh   |
          | GRADIENT NORM               0.000534202242 Eh/α |
          | HOMO-LUMO GAP               0.777811875513 eV   |
           -------------------------------------------------

 * finished run on 2023/06/20 at 15:00:26.885
