   * xtb version 6.5.1 (579679a) compiled by 'ehlert@majestix' on 2022-07-11
          program call               : /lustre/hpc/kemi/ree/PhD/git/ReactivityQM/dep/xtb-6.5.1/bin/xtb --gfn 1 /lustre/hpc/kemi/ree/PhD/git/ReactivityQM/calculations/R03/reac02prodE02/conf01/R03_reac02prodE02_conf01_gfn1.xyz --opt --vfukui --chrg -1 --uhf 0 --alpb DMSO

   ID    Z sym.   atoms
    1    6 C      1, 3, 4, 6, 8-11, 13, 15, 18, 19, 22, 23, 25
    2    8 O      2, 5, 14, 20, 24, 26
    3    7 N      7, 12, 16, 17, 21
    4    1 H      27-46

      * Solvation model:               ALPB
        Solvent                        DMSO
        Solvent mass                       7.8130E+01 g/mol
          :  Hamiltonian                  GFN1-xTB          :
 * total energy  :   -87.0358434 Eh     change       -0.4305889E-11 Eh
 * total energy  :   -87.0489484 Eh     change       -0.1310503E-01 Eh
 * total energy  :   -87.0550542 Eh     change       -0.6105772E-02 Eh
 * total energy  :   -87.0580117 Eh     change       -0.2957512E-02 Eh
 * total energy  :   -87.0606361 Eh     change       -0.2624438E-02 Eh
 * total energy  :   -87.0628519 Eh     change       -0.2215757E-02 Eh
 * total energy  :   -87.0658899 Eh     change       -0.3038080E-02 Eh
 * total energy  :   -87.0682288 Eh     change       -0.2338835E-02 Eh
 * total energy  :   -87.0687544 Eh     change       -0.5255750E-03 Eh
 * total energy  :   -87.0707399 Eh     change       -0.1985550E-02 Eh
 * total energy  :   -87.0741333 Eh     change       -0.1417698E-04 Eh
 * total energy  :   -87.0741498 Eh     change       -0.1648769E-04 Eh
 * total energy  :   -87.0741620 Eh     change       -0.1222336E-04 Eh
 * total energy  :   -87.0741712 Eh     change       -0.9152900E-05 Eh
 * total energy  :   -87.0741825 Eh     change       -0.1126074E-04 Eh
 * total energy  :   -87.0741976 Eh     change       -0.1514057E-04 Eh
 * total energy  :   -87.0742090 Eh     change       -0.1136042E-04 Eh
 * total energy  :   -87.0742147 Eh     change       -0.5756882E-05 Eh
 * total energy  :   -87.0742188 Eh     change       -0.4100190E-05 Eh
   *** GEOMETRY OPTIMIZATION CONVERGED AFTER 57 ITERATIONS ***

 final structure:
================
46
 xtb: 6.5.1 (579679a)
C           -5.18640088133404       -0.64478237296581       -1.54008014057820
O           -4.39859582500469        0.49592441400895       -1.81578778198905
C           -3.87067658849974        1.17327647181264       -0.65544931590002
C           -3.22085417340647        2.45133742400844       -1.21412764266586
O           -4.89460342552370        1.51990037387068        0.22171851014050
C           -2.82566472211540        0.29468878435430        0.04170347630255
N           -1.65715493817860        0.13021840902279       -0.63540281732662
C           -0.68516769389260       -0.57395438504492       -0.15054574641147
C            0.54829742750757       -0.73401795249136       -1.03166265885890
C            0.37414855562211        0.11364595252198       -2.30103350163499
C            0.75213053310695       -2.20192251592248       -1.43446300683125
N            1.71561110997014       -0.21109442940336       -0.29757553741309
C            2.98247968139430       -0.27554173466620       -0.75084388348509
O            3.36710729415181       -0.88846339485805       -1.73183620077737
C            3.89545195211424        0.50158161947975        0.13277086223008
N            3.54453587997945        1.20538214718422        1.16658417048380
N            4.68439831092997        1.75574527443403        1.67339393335829
C            5.65729873794700        1.35290787979598        0.91459950325638
C            7.09601806410878        1.67161881964797        1.04623400575237
O            5.22363687197413        0.55963394093415       -0.07631240713206
N           -0.79763655314208       -1.18092922262747        1.08799444176414
C            0.26612247241448       -1.96420706790202        1.71399067878170
C           -1.96334126936652       -1.10989412877338        1.84357145781937
O           -2.01568033100613       -1.70301829712772        2.92754912106174
C           -3.07002309640163       -0.30198453792597        1.27549108804243
O           -4.16464791647687       -0.18992035870587        1.92612352131465
H           -4.60985714136664       -1.41625655663563       -1.00950876512052
H           -5.51440808097081       -1.04797662385643       -2.50061848746887
H           -6.07047997976073       -0.38862640344556       -0.94094908362708
H           -2.81946898415661        3.03924870855349       -0.39108063227577
H           -3.97252654871863        3.03525451598482       -1.74271469456817
H           -2.41713019159509        2.18635874292275       -1.89831665882746
H            0.22391007639701        1.15947366274713       -2.03779911521137
H            1.26036581430651        0.02576752764406       -2.92695372802324
H           -0.49324204852443       -0.23547691635714       -2.85887598687848
H           -0.20011570089588       -2.60885488995600       -1.77263364528825
H            1.11495012731705       -2.80132702691554       -0.60388161436433
H            1.47072652547078       -2.27522064778225       -2.24840803691793
H            1.53272020323576        0.43993954433758        0.45338533581147
H            7.46482635031102        2.12095629462010        0.12494981432494
H            7.66477091146692        0.76000256960289        1.22701853427753
H            7.24307354182801        2.36057518335721        1.87382981558579
H            1.23126291482734       -1.72736265856573        1.28122291516516
H            0.28696796718712       -1.72778088928193        2.77938036031735
H            0.05745301223638       -3.02921762616608        1.59871477001416
H           -4.81058924546097        0.88439437652428        1.02008577377078

          :  Hamiltonian                  GFN1-xTB          :
         :: total energy             -87.074218811174 Eh    ::
         :: gradient norm              0.000587367908 Eh/a0 ::
         :: HOMO-LUMO gap              1.287276250248 eV    ::
         :: SCC energy               -87.860569600028 Eh    ::
         :: -> Gsolv                  -0.110926100179 Eh    ::
         :: repulsion energy           0.816169169483 Eh    ::

    * Orbital Energies and Occupations

         #    Occupation            Energy/Eh            Energy/eV
      -------------------------------------------------------------
         1        2.0000           -0.8601382             -23.4056
       ...           ...                  ...                  ...
        59        2.0000           -0.4747587             -12.9188
        60        2.0000           -0.4612426             -12.5510
        61        2.0000           -0.4574131             -12.4468
        62        2.0000           -0.4553553             -12.3908
        63        2.0000           -0.4472901             -12.1714
        64        2.0000           -0.4416079             -12.0168
        65        2.0000           -0.4381711             -11.9232
        66        2.0000           -0.4370170             -11.8918
        67        2.0000           -0.4274645             -11.6319
        68        2.0000           -0.4219820             -11.4827
        69        2.0000           -0.4103885             -11.1672
        70        2.0000           -0.3668053              -9.9813
        71        2.0000           -0.3524120              -9.5896 (HOMO)
        72                         -0.3051055              -8.3023 (LUMO)
        73                         -0.2538067              -6.9064
        74                         -0.2468875              -6.7182
        75                         -0.2315749              -6.3015
        76                         -0.1936331              -5.2690
        77                         -0.1409005              -3.8341
        78                         -0.1259148              -3.4263
        79                         -0.1209625              -3.2916
        80                         -0.1146788              -3.1206
        81                         -0.1117197              -3.0400
        82                         -0.1089505              -2.9647
       ...                                ...                  ...
       144                          0.7315613              19.9068
      -------------------------------------------------------------
                  HL-Gap            0.0473065 Eh            1.2873 eV

Wiberg/Mayer (AO) data.
largest (>0.10) Wiberg bond orders for each atom

     #   Z sym  total        # sym  WBO       # sym  WBO       # sym  WBO
 ---------------------------------------------------------------------------
     1   6 C    3.921 --    28 H    0.986    29 H    0.981    27 H    0.980
                             2 O    0.952
     2   8 O    1.983 --     1 C    0.952     3 C    0.889
     3   6 C    3.863 --     5 O    0.993     4 C    0.976     6 C    0.958
                             2 O    0.889
     4   6 C    3.996 --    30 H    0.988    31 H    0.986    32 H    0.986
                             3 C    0.976
     5   8 O    1.877 --     3 C    0.993    46 H    0.725
     6   6 C    3.936 --    25 C    1.378     7 N    1.227     3 C    0.958
                            26 O    0.135
     7   7 N    3.044 --     8 C    1.554     6 C    1.227
     8   6 C    3.929 --     7 N    1.554    21 N    1.117     9 C    0.976
     9   6 C    3.928 --    10 C    0.991    11 C    0.989     8 C    0.976
                            12 N    0.907
    10   6 C    3.993 --     9 C    0.991    33 H    0.985    35 H    0.984
                            34 H    0.984
    11   6 C    3.991 --     9 C    0.989    36 H    0.986    37 H    0.981
                            38 H    0.980
    12   7 N    3.358 --    13 C    1.261     9 C    0.907    39 H    0.898
                            14 O    0.179
    13   6 C    3.919 --    14 O    1.589    12 N    1.261    15 C    0.984
    14   8 O    1.906 --    13 C    1.589    12 N    0.179
    15   6 C    3.872 --    16 N    1.614    20 O    1.064    13 C    0.984
    16   7 N    3.016 --    15 C    1.614    17 N    1.196
    17   7 N    2.980 --    18 C    1.609    16 N    1.196
    18   6 C    3.872 --    17 N    1.609    20 O    1.082    19 C    1.031
    19   6 C    3.987 --    18 C    1.031    42 H    0.983    40 H    0.965
                            41 H    0.963
    20   8 O    2.329 --    18 C    1.082    15 C    1.064
    21   7 N    3.468 --    23 C    1.130     8 C    1.117    22 C    0.945
                            24 O    0.133
    22   6 C    3.946 --    43 H    0.980    45 H    0.979    44 H    0.977
                            21 N    0.945
    23   6 C    3.892 --    24 O    1.532    21 N    1.130    25 C    1.031
    24   8 O    1.843 --    23 C    1.532    21 N    0.133
    25   6 C    3.956 --     6 C    1.378    26 O    1.352    23 C    1.031
    26   8 O    1.832 --    25 C    1.352    46 H    0.152     6 C    0.135
    27   1 H    1.016 --     1 C    0.980
    28   1 H    1.020 --     1 C    0.986
    29   1 H    1.021 --     1 C    0.981
    30   1 H    1.012 --     4 C    0.988
    31   1 H    1.011 --     4 C    0.986
    32   1 H    1.020 --     4 C    0.986
    33   1 H    1.015 --    10 C    0.985
    34   1 H    1.007 --    10 C    0.984
    35   1 H    1.014 --    10 C    0.984
    36   1 H    1.005 --    11 C    0.986
    37   1 H    1.004 --    11 C    0.981
    38   1 H    1.014 --    11 C    0.980
    39   1 H    0.959 --    12 N    0.898
    40   1 H    0.997 --    19 C    0.965
    41   1 H    0.997 --    19 C    0.963
    42   1 H    0.999 --    19 C    0.983
    43   1 H    1.012 --    22 C    0.980
    44   1 H    1.015 --    22 C    0.977
    45   1 H    1.008 --    22 C    0.979
    46   1 H    0.888 --     5 O    0.725    26 O    0.152
 ---------------------------------------------------------------------------

           -------------------------------------------------
          | TOTAL ENERGY              -87.074218811174 Eh   |
          | GRADIENT NORM               0.000587367908 Eh/α |
          | HOMO-LUMO GAP               1.287276250248 eV   |
           -------------------------------------------------

 * finished run on 2023/06/20 at 15:15:42.002
