   * xtb version 6.5.1 (579679a) compiled by 'ehlert@majestix' on 2022-07-11
          program call               : /lustre/hpc/kemi/ree/PhD/git/ReactivityQM/dep/xtb-6.5.1/bin/xtb --gfn 1 /lustre/hpc/kemi/ree/PhD/git/ReactivityQM/calculations/R03/reac02prodN19/conf13/R03_reac02prodN19_conf13_gfn1.xyz --opt --vfukui --chrg 1 --uhf 0 --alpb DMSO

   ID    Z sym.   atoms
    1    6 C      1, 3, 5, 7-10, 12, 14, 17, 18, 21, 22, 24, 25
    2    8 O      2, 4, 13, 19, 23, 26
    3    7 N      6, 11, 15, 16, 20
    4    1 H      27-46

      * Solvation model:               ALPB
        Solvent                        DMSO
        Solvent mass                       7.8130E+01 g/mol
          :  Hamiltonian                  GFN1-xTB          :
 * total energy  :   -86.3292231 Eh     change       -0.2555112E-10 Eh
 * total energy  :   -86.3501050 Eh     change       -0.2088192E-01 Eh
 * total energy  :   -86.3580544 Eh     change       -0.7949418E-02 Eh
 * total energy  :   -86.3539118 Eh     change        0.4142619E-02 Eh
 * total energy  :   -86.3603137 Eh     change       -0.6401900E-02 Eh
 * total energy  :   -86.3614630 Eh     change       -0.1149321E-02 Eh
 * total energy  :   -86.3628566 Eh     change       -0.1393534E-02 Eh
 * total energy  :   -86.3636925 Eh     change       -0.8359063E-03 Eh
 * total energy  :   -86.3643236 Eh     change       -0.6311536E-03 Eh
 * total energy  :   -86.3647926 Eh     change       -0.4689290E-03 Eh
 * total energy  :   -86.3673183 Eh     change       -0.2382769E-04 Eh
 * total energy  :   -86.3673408 Eh     change       -0.2251113E-04 Eh
 * total energy  :   -86.3673582 Eh     change       -0.1739288E-04 Eh
 * total energy  :   -86.3673735 Eh     change       -0.1530554E-04 Eh
 * total energy  :   -86.3673865 Eh     change       -0.1304124E-04 Eh
 * total energy  :   -86.3674006 Eh     change       -0.1407763E-04 Eh
 * total energy  :   -86.3674169 Eh     change       -0.1633153E-04 Eh
 * total energy  :   -86.3674330 Eh     change       -0.1605611E-04 Eh
 * total energy  :   -86.3674365 Eh     change       -0.3490259E-05 Eh
   *** GEOMETRY OPTIMIZATION CONVERGED AFTER 44 ITERATIONS ***

 final structure:
================
46
 xtb: 6.5.1 (579679a)
C           -4.67935486415012        3.64420293424180       -0.60723299340573
O           -3.64015841238101        2.65231742775594       -0.56586807690571
C           -3.81037342253513        1.64701326357199        0.25938371221527
O           -4.77427304811904        1.50795071686091        0.98645084797991
C           -2.69858345435004        0.64712121509254        0.23082040705524
N           -1.64687693775172        0.88197472010559       -0.56463304517113
C           -0.65227034229006        0.04200270294591       -0.64124471114338
C            0.47216011666837        0.42864321412361       -1.58659922487775
C            0.36657428681974       -0.37013451200737       -2.89056152425045
C            0.38252085265559        1.93170711054943       -1.89063286592377
N            1.76371779211642        0.16560593559018       -0.95823545462454
C            1.97887084567239        0.53543060441417        0.32791315450273
O            1.09671530015354        0.94115280005075        1.06761780522077
C            3.37556753828061        0.33942494309974        0.76200079483620
N            3.90106618363027        0.60689661172473        1.91700447129080
N            5.20830983318199        0.23865713514208        1.84789984909545
C            5.40342422881357       -0.23429137186434        0.65503877773140
C            6.65613198569445       -0.77432840408900        0.08557623989237
O            4.28235885720625       -0.19667883747863       -0.08339941246942
N           -0.68990050823895       -1.14194667658247        0.05128909404645
C            0.33154007881467       -2.18924095815950       -0.05112586432353
C           -1.70214027302695       -1.42052778324628        0.90216597172185
O           -1.58235278513290       -2.57251781487001        1.52143374046069
C           -2.54351509737812       -3.08365092280884        2.46029273178011
C           -2.76677685282043       -0.49276821723926        1.02329645443437
O           -3.77109451474984       -0.75118025914676        1.85279766926283
H           -4.77722439043395        4.11577023931892        0.37236196571519
H           -4.37834484232042        4.37178506551928       -1.35751948808724
H           -5.62449130951470        3.17298606206263       -0.88270519204818
H           -0.59721767215116       -0.17317620690547       -3.35750617402692
H            1.15854196460772       -0.05765112825836       -3.56866281885944
H            0.45868057139511       -1.43868341795328       -2.71376103376910
H            0.39596863147771        2.50187316509475       -0.96279486796994
H            1.23333081565954        2.22040559780802       -2.50406868673510
H           -0.53847023480616        2.14798810618683       -2.42812684796680
H            2.54292455128197       -0.05970487830609       -1.55377988975306
H            7.43968508042163       -0.75844492473848        0.83968412668956
H            6.96053468081161       -0.17762876515152       -0.77424984410011
H            6.49439907455385       -1.79603624428195       -0.25683875108137
H           -0.16174710119336       -3.11319382958093       -0.34772909281674
H            1.08315363444719       -1.91626655139516       -0.77889844839310
H            0.78940515284314       -2.32057511335811        0.92864125416784
H           -2.63721210542993       -2.41001622959024        3.31279369682200
H           -3.51038758773920       -3.21961400512552        1.97542918951401
H           -2.14279096868625       -4.04487844951674        2.77971511006925
H           -4.45002433201024       -0.02777106960695        1.80506724419948

          :  Hamiltonian                  GFN1-xTB          :
         :: total energy             -86.367436476095 Eh    ::
         :: gradient norm              0.000349511152 Eh/a0 ::
         :: HOMO-LUMO gap              2.317624295456 eV    ::
         :: SCC energy               -87.195702968937 Eh    ::
         :: -> Gsolv                  -0.103690938626 Eh    ::
         :: repulsion energy           0.857710640383 Eh    ::

    * Orbital Energies and Occupations

         #    Occupation            Energy/Eh            Energy/eV
      -------------------------------------------------------------
         1        2.0000           -0.8905505             -24.2331
       ...           ...                  ...                  ...
        58        2.0000           -0.5258330             -14.3086
        59        2.0000           -0.5230791             -14.2337
        60        2.0000           -0.5179660             -14.0946
        61        2.0000           -0.5148017             -14.0085
        62        2.0000           -0.5143460             -13.9961
        63        2.0000           -0.5086737             -13.8417
        64        2.0000           -0.4920206             -13.3886
        65        2.0000           -0.4847471             -13.1906
        66        2.0000           -0.4825019             -13.1295
        67        2.0000           -0.4743904             -12.9088
        68        2.0000           -0.4711665             -12.8211
        69        2.0000           -0.4617106             -12.5638
        70        2.0000           -0.4595909             -12.5061 (HOMO)
        71                         -0.3744198             -10.1885 (LUMO)
        72                         -0.3293108              -8.9610
        73                         -0.3250419              -8.8448
        74                         -0.2850544              -7.7567
        75                         -0.2645270              -7.1981
        76                         -0.2118795              -5.7655
        77                         -0.2005826              -5.4581
        78                         -0.1649899              -4.4896
        79                         -0.1544266              -4.2022
        80                         -0.1484442              -4.0394
        81                         -0.1453053              -3.9540
       ...                                ...                  ...
       144                          0.7044953              19.1703
      -------------------------------------------------------------
                  HL-Gap            0.0851711 Eh            2.3176 eV

Wiberg/Mayer (AO) data.
largest (>0.10) Wiberg bond orders for each atom

     #   Z sym  total        # sym  WBO       # sym  WBO       # sym  WBO
 ---------------------------------------------------------------------------
     1   6 C    3.849 --    28 H    0.985    29 H    0.977    27 H    0.977
                             2 O    0.876
     2   8 O    2.243 --     3 C    1.173     1 C    0.876     4 O    0.141
     3   6 C    3.856 --     4 O    1.622     2 O    1.173     5 C    0.986
     4   8 O    1.970 --     3 C    1.622     2 O    0.141
     5   6 C    3.969 --    25 C    1.372     6 N    1.301     3 C    0.986
     6   7 N    3.051 --     7 C    1.498     5 C    1.301
     7   6 C    3.910 --     6 N    1.498    20 N    1.180     8 C    0.980
     8   6 C    3.934 --    10 C    0.985     7 C    0.980     9 C    0.979
                            11 N    0.933
     9   6 C    3.985 --    30 H    0.982    32 H    0.980    31 H    0.979
                             8 C    0.979
    10   6 C    3.985 --     8 C    0.985    34 H    0.984    35 H    0.983
                            33 H    0.982
    11   7 N    3.335 --    12 C    1.232     8 C    0.933    36 H    0.885
                            13 O    0.167
    12   6 C    3.913 --    13 O    1.585    11 N    1.232    14 C    1.005
    13   8 O    1.898 --    12 C    1.585    11 N    0.167
    14   6 C    3.877 --    15 N    1.614    19 O    1.047    12 C    1.005
    15   7 N    3.004 --    14 C    1.614    16 N    1.207
    16   7 N    2.982 --    17 C    1.601    15 N    1.207
    17   6 C    3.865 --    16 N    1.601    19 O    1.074    18 C    1.033
    18   6 C    3.985 --    17 C    1.033    37 H    0.982    39 H    0.962
                            38 H    0.960
    19   8 O    2.318 --    17 C    1.074    14 C    1.047
    20   7 N    3.582 --    22 C    1.265     7 C    1.180    21 C    0.912
    21   6 C    3.894 --    41 H    0.974    40 H    0.969    42 H    0.968
                            20 N    0.912
    22   6 C    3.896 --    20 N    1.265    25 C    1.214    23 O    1.161
    23   8 O    2.249 --    22 C    1.161    24 C    0.861
    24   6 C    3.830 --    45 H    0.981    43 H    0.976    44 H    0.976
                            23 O    0.861
    25   6 C    3.933 --     5 C    1.372    22 C    1.214    26 O    1.133
    26   8 O    2.094 --    25 C    1.133    46 H    0.745
    27   1 H    1.002 --     1 C    0.977
    28   1 H    1.007 --     1 C    0.985
    29   1 H    1.002 --     1 C    0.977
    30   1 H    0.998 --     9 C    0.982
    31   1 H    0.993 --     9 C    0.979
    32   1 H    0.998 --     9 C    0.980
    33   1 H    1.005 --    10 C    0.982
    34   1 H    0.999 --    10 C    0.984
    35   1 H    1.007 --    10 C    0.983
    36   1 H    0.925 --    11 N    0.885
    37   1 H    0.997 --    18 C    0.982
    38   1 H    0.995 --    18 C    0.960
    39   1 H    0.996 --    18 C    0.962
    40   1 H    0.996 --    21 C    0.969
    41   1 H    1.005 --    21 C    0.974
    42   1 H    0.996 --    21 C    0.968
    43   1 H    1.006 --    24 C    0.976
    44   1 H    1.006 --    24 C    0.976
    45   1 H    1.005 --    24 C    0.981
    46   1 H    0.829 --    26 O    0.745
 ---------------------------------------------------------------------------

           -------------------------------------------------
          | TOTAL ENERGY              -86.367436476095 Eh   |
          | GRADIENT NORM               0.000349511152 Eh/α |
          | HOMO-LUMO GAP               2.317624295456 eV   |
           -------------------------------------------------

 * finished run on 2023/06/20 at 15:56:19.765
