   * xtb version 6.5.1 (579679a) compiled by 'ehlert@majestix' on 2022-07-11
          program call               : /lustre/hpc/kemi/ree/PhD/git/ReactivityQM/dep/xtb-6.5.1/bin/xtb --gfn 1 /lustre/hpc/kemi/ree/PhD/git/ReactivityQM/calculations/R02methylcation/reac01prodE04/conf02/R02methylcation_reac01prodE04_conf02_gfn1.xyz --opt --vfukui --chrg -2 --uhf 0 --alpb DMSO

   ID    Z sym.   atoms
    1    6 C      1, 3, 5, 6, 8-11, 13, 15, 18, 19, 22, 24
    2    8 O      2, 4, 14, 20, 23, 25
    3    7 N      7, 12, 16, 17, 21
    4    1 H      26-42

      * Solvation model:               ALPB
        Solvent                        DMSO
        Solvent mass                       7.8130E+01 g/mol
          :  Hamiltonian                  GFN1-xTB          :
 * total energy  :   -83.5809452 Eh     change       -0.1409461E-08 Eh
 * total energy  :   -83.6011364 Eh     change       -0.2019112E-01 Eh
 * total energy  :   -83.6075068 Eh     change       -0.6370398E-02 Eh
 * total energy  :   -83.6088088 Eh     change       -0.1301989E-02 Eh
 * total energy  :   -83.6098185 Eh     change       -0.1009760E-02 Eh
 * total energy  :   -83.6103736 Eh     change       -0.5550642E-03 Eh
 * total energy  :   -83.6107905 Eh     change       -0.4169314E-03 Eh
 * total energy  :   -83.6111852 Eh     change       -0.3946438E-03 Eh
 * total energy  :   -83.6115860 Eh     change       -0.4008750E-03 Eh
 * total energy  :   -83.6119285 Eh     change       -0.3424364E-03 Eh
 * total energy  :   -83.6138834 Eh     change       -0.2739589E-04 Eh
 * total energy  :   -83.6139044 Eh     change       -0.2101703E-04 Eh
 * total energy  :   -83.6139226 Eh     change       -0.1816106E-04 Eh
 * total energy  :   -83.6139393 Eh     change       -0.1669011E-04 Eh
 * total energy  :   -83.6139525 Eh     change       -0.1327600E-04 Eh
 * total energy  :   -83.6139613 Eh     change       -0.8773108E-05 Eh
 * total energy  :   -83.6139691 Eh     change       -0.7792958E-05 Eh
 * total energy  :   -83.6139763 Eh     change       -0.7217051E-05 Eh
 * total energy  :   -83.6139787 Eh     change       -0.2410712E-05 Eh
   *** GEOMETRY OPTIMIZATION CONVERGED AFTER 44 ITERATIONS ***

 final structure:
================
42
 xtb: 6.5.1 (579679a)
C            2.71896495483674        2.00457176348498        2.33882788333934
O            2.22567155438829        1.17132763301538        1.29823364655548
C            2.61674811439338        1.50203201217735        0.04100170009946
O            3.34457844357737        2.46392175934000       -0.16404550035690
C            2.18029389840908        0.50735907402311       -1.01968504378827
C            2.05623879649701        1.21485727502890       -2.37247423547162
N            0.91299978446813       -0.12044200320464       -0.68046167959690
C            0.93684261587604       -1.13104448057792        0.10988436764969
C           -0.37619779259063       -1.75172306776191        0.57766123325548
C           -0.45942707126372       -3.20848472283339        0.09410158694194
C           -0.44647230273859       -1.68391299995046        2.11393272311947
N           -1.45511522598592       -0.97539575206960       -0.01887846190421
C           -2.78455019603444       -1.16517158961950        0.30703612602510
O           -3.20421487928010       -2.19009328586982        0.89206516938556
C           -3.65411746049648       -0.11094788068425       -0.12873412944314
N           -4.97905004472682       -0.03795539634339        0.01882019610448
N           -5.36312912007500        1.16214988147440       -0.51099149803012
C           -4.29915565229883        1.75510719681623       -0.94500990448957
C           -4.22217425432272        3.08844075226949       -1.59238707521812
O           -3.17133041409085        1.02756913034566       -0.75010707406887
N            2.08453523428456       -1.68771431593122        0.57903625451764
C            3.33834859781954       -1.53920320908206       -0.11595348170800
O            4.20846222048540       -2.43148270904228        0.11561479559722
C            3.40181940533243       -0.45946072263458       -1.01799747964932
O            4.37463870850823       -0.20328226324916       -1.80920869137424
H            3.80926229169896        1.93578603800870        2.40987617328231
H            2.44340878200199        3.04840674155830        2.15971865008149
H            2.26668868309614        1.66033688544199        3.26765843213214
H            1.25344363833651        1.95029333679789       -2.34235131067067
H            1.83638870439481        0.48432010061329       -3.15034684959948
H            2.99265511081103        1.71768304142830       -2.61402787265225
H           -1.37563656295568       -3.67268985352820        0.45564162831498
H           -0.45456136068108       -3.23782457453733       -0.99548488883363
H            0.38966776676122       -3.77880524314318        0.46730971522702
H           -1.38067869226344       -2.11640705154170        2.46867574931179
H           -0.38635224828967       -0.64663771828367        2.44245016139599
H            0.38016945811499       -2.24005591596300        2.55224813018708
H           -1.18146472029759       -0.05470489013405       -0.34809488763359
H           -3.83599954185909        3.00002100070462       -2.60828393713425
H           -5.21535604482032        3.52979005612964       -1.62574901344556
H           -3.55597314533183        3.74583865441224       -1.03305215914506
H            2.02913196630724       -2.52636968708587        1.13353385169423

          :  Hamiltonian                  GFN1-xTB          :
         :: total energy             -83.613978728067 Eh    ::
         :: gradient norm              0.000307697898 Eh/a0 ::
         :: HOMO-LUMO gap              0.041094333577 eV    ::
         :: SCC energy               -84.340878028866 Eh    ::
         :: -> Gsolv                  -0.267561437014 Eh    ::
         :: repulsion energy           0.753955412266 Eh    ::

    * Orbital Energies and Occupations

         #    Occupation            Energy/Eh            Energy/eV
      -------------------------------------------------------------
         1        2.0000           -0.8047546             -21.8985
       ...           ...                  ...                  ...
        56        2.0000           -0.4449618             -12.1080
        57        2.0000           -0.4418733             -12.0240
        58        2.0000           -0.4298017             -11.6955
        59        2.0000           -0.4234751             -11.5233
        60        2.0000           -0.4091601             -11.1338
        61        2.0000           -0.4050922             -11.0231
        62        2.0000           -0.4032165             -10.9721
        63        2.0000           -0.3985378             -10.8448
        64        2.0000           -0.3887331             -10.5780
        65        2.0000           -0.3795737             -10.3287
        66        2.0000           -0.3742222             -10.1831
        67        2.0000           -0.3435672              -9.3489
        68        1.3777           -0.2676538              -7.2832 (HOMO)
        69        0.6223           -0.2661436              -7.2421 (LUMO)
        70                         -0.2209577              -6.0126
        71                         -0.2120541              -5.7703
        72                         -0.2021588              -5.5010
        73                         -0.1409974              -3.8367
        74                         -0.1251274              -3.4049
        75                         -0.1208961              -3.2898
        76                         -0.1129903              -3.0746
        77                         -0.1036432              -2.8203
        78                         -0.0974821              -2.6526
        79                         -0.0856922              -2.3318
       ...                                ...                  ...
       134                          0.7167181              19.5029
      -------------------------------------------------------------
                  HL-Gap            0.0015102 Eh            0.0411 eV

Wiberg/Mayer (AO) data.
largest (>0.10) Wiberg bond orders for each atom

     #   Z sym  total        # sym  WBO       # sym  WBO       # sym  WBO
 ---------------------------------------------------------------------------
     1   6 C    3.898 --    28 H    0.987    26 H    0.981    27 H    0.981
                             2 O    0.922
     2   8 O    2.150 --     3 C    1.049     1 C    0.922     4 O    0.108
     3   6 C    3.782 --     4 O    1.596     2 O    1.049     5 C    0.948
     4   8 O    1.862 --     3 C    1.596     2 O    0.108
     5   6 C    3.957 --     6 C    0.991     7 N    0.978     3 C    0.948
                            24 C    0.874
     6   6 C    3.991 --     5 C    0.991    29 H    0.988    30 H    0.987
                            31 H    0.984
     7   7 N    2.960 --     8 C    1.652     5 C    0.978    21 N    0.149
     8   6 C    3.933 --     7 N    1.652    21 N    1.178     9 C    0.970
     9   6 C    3.952 --    10 C    0.985    11 C    0.981     8 C    0.970
                            12 N    0.950
    10   6 C    3.992 --    33 H    0.987     9 C    0.985    34 H    0.985
                            32 H    0.980
    11   6 C    3.991 --    36 H    0.987    37 H    0.985    35 H    0.981
                             9 C    0.981
    12   7 N    3.189 --    13 C    1.133     9 C    0.950    38 H    0.897
                            14 O    0.121
    13   6 C    3.771 --    14 O    1.435    15 C    1.136    12 N    1.133
    14   8 O    1.690 --    13 C    1.435    12 N    0.121
    15   6 C    3.689 --    16 N    1.412    13 C    1.136    20 O    0.971
    16   7 N    2.740 --    15 C    1.412    17 N    1.190
    17   7 N    2.981 --    18 C    1.627    16 N    1.190
    18   6 C    3.814 --    17 N    1.627    20 O    1.043    19 C    1.024
    19   6 C    3.994 --    18 C    1.024    40 H    0.986    41 H    0.971
                            39 H    0.970
    20   8 O    2.183 --    18 C    1.043    15 C    0.971
    21   7 N    3.315 --     8 C    1.178    22 C    0.945    42 H    0.914
                             7 N    0.149
    22   6 C    3.743 --    23 O    1.380    24 C    1.262    21 N    0.945
    23   8 O    1.595 --    22 C    1.380
    24   6 C    3.740 --    25 O    1.363    22 C    1.262     5 C    0.874
    25   8 O    1.572 --    24 C    1.363
    26   1 H    1.013 --     1 C    0.981
    27   1 H    1.014 --     1 C    0.981
    28   1 H    1.016 --     1 C    0.987
    29   1 H    1.010 --     6 C    0.988
    30   1 H    1.012 --     6 C    0.987
    31   1 H    1.027 --     6 C    0.984
    32   1 H    1.021 --    10 C    0.980
    33   1 H    1.009 --    10 C    0.987
    34   1 H    1.006 --    10 C    0.985
    35   1 H    1.016 --    11 C    0.981
    36   1 H    1.007 --    11 C    0.987
    37   1 H    1.005 --    11 C    0.985
    38   1 H    0.983 --    12 N    0.897
    39   1 H    1.000 --    19 C    0.970
    40   1 H    1.004 --    19 C    0.986
    41   1 H    1.000 --    19 C    0.971
    42   1 H    0.970 --    21 N    0.914
 ---------------------------------------------------------------------------

           -------------------------------------------------
          | TOTAL ENERGY              -83.613978728067 Eh   |
          | GRADIENT NORM               0.000307697898 Eh/α |
          | HOMO-LUMO GAP               0.041094333577 eV   |
           -------------------------------------------------

 * finished run on 2023/06/21 at 17:10:36.765
