   * xtb version 6.5.1 (579679a) compiled by 'ehlert@majestix' on 2022-07-11
          program call               : /lustre/hpc/kemi/ree/PhD/git/ReactivityQM/dep/xtb-6.5.1/bin/xtb --gfn 1 /lustre/hpc/kemi/ree/PhD/git/ReactivityQM/calculations/RaltegravirCLI/reac02prodE09/conf10/RaltegravirCLI_reac02prodE09_conf10_gfn1.xyz --opt --vfukui --chrg -1 --uhf 0 --alpb DMSO

   ID    Z sym.   atoms
    1    6 C      1, 3-6, 9, 10, 13-18, 20-22, 24
    2    7 N      2, 7, 8, 12
    3    8 O      11, 23, 25
    4    9 F      19
    5    1 H      26-47

      * Solvation model:               ALPB
        Solvent                        DMSO
        Solvent mass                       7.8130E+01 g/mol
          :  Hamiltonian                  GFN1-xTB          :
 * total energy  :   -80.1802100 Eh     change       -0.5344702E-10 Eh
 * total energy  :   -80.1900627 Eh     change       -0.9852613E-02 Eh
 * total energy  :   -80.1939529 Eh     change       -0.3890246E-02 Eh
 * total energy  :   -80.1952670 Eh     change       -0.1314096E-02 Eh
 * total energy  :   -80.1965861 Eh     change       -0.1319131E-02 Eh
 * total energy  :   -80.1980891 Eh     change       -0.1502980E-02 Eh
 * total energy  :   -80.2012538 Eh     change       -0.3164725E-02 Eh
 * total energy  :   -80.2047547 Eh     change       -0.3500871E-02 Eh
 * total energy  :   -80.2058153 Eh     change       -0.1060592E-02 Eh
 * total energy  :   -80.2099674 Eh     change       -0.4152058E-02 Eh
 * total energy  :   -80.2247980 Eh     change       -0.3100572E-04 Eh
 * total energy  :   -80.2248208 Eh     change       -0.2277300E-04 Eh
 * total energy  :   -80.2248325 Eh     change       -0.1168555E-04 Eh
 * total energy  :   -80.2248396 Eh     change       -0.7133618E-05 Eh
 * total energy  :   -80.2248503 Eh     change       -0.1070468E-04 Eh
 * total energy  :   -80.2248642 Eh     change       -0.1391354E-04 Eh
 * total energy  :   -80.2248771 Eh     change       -0.1286559E-04 Eh
 * total energy  :   -80.2248858 Eh     change       -0.8717652E-05 Eh
 * total energy  :   -80.2248898 Eh     change       -0.4046971E-05 Eh
   *** GEOMETRY OPTIMIZATION CONVERGED AFTER 63 ITERATIONS ***

 final structure:
================
47
 xtb: 6.5.1 (579679a)
C           -4.19959882100800        0.62823409280662        2.74654994737468
N           -3.12051081673276        0.07631088940752        1.92876968351406
C           -3.04301627560364        0.20296799111049        0.56169612394576
C           -4.07627020372331        0.95239801517505       -0.29171359117133
C           -5.52810931660965        0.54686069102692       -0.00569752858873
C           -3.87448711190132        2.46906828109939       -0.15053147374754
N           -3.82527593236856        0.62043043564998       -1.69032823587111
N           -2.05132603195328       -0.29602695422980       -0.10531340379157
C           -1.03342816930212       -0.98032070689414        0.49617602581743
C            0.01409761553235       -1.47796873042002       -0.46182662181940
O           -0.17995143623800       -1.48229378851982       -1.67188299836905
N            1.16271239479589       -1.90710987654680        0.09353079558929
C            2.24713361451791       -2.42329124681372       -0.72860115049456
C            3.31623729396790       -1.38638447079628       -1.00939568466880
C            3.02423559950621       -0.02666822951133       -1.06143016472223
C            4.01382886709162        0.89536502512148       -1.36790590820497
C            5.31967641811368        0.48464978275531       -1.63440243061276
C            6.38944965977194        1.48626622353189       -1.94687506148214
F            7.55132013669242        2.57932945070935        0.63790633312523
C            5.60737816436717       -0.87888151406041       -1.57890498156128
C            4.61962123025988       -1.80263077684590       -1.27046579559303
C           -1.07238972811892       -1.17091235477221        1.84584548838978
O           -0.14263853016742       -1.85207514439114        2.55034801624949
C           -2.16739949864378       -0.63943321291402        2.63252245530836
O           -2.22910196996702       -0.80924212938490        3.84966403737105
H           -5.06148686616856       -0.03719687371847        2.72052412894307
H           -3.83909166234741        0.70113143977455        3.77242990943557
H           -4.47605693581222        1.61664656382563        2.39538371658778
H           -5.94160347758510        1.07365143866946        0.84996750839623
H           -6.13155586214559        0.79868710994324       -0.87780451018918
H           -5.60006181797812       -0.52606077012899        0.16655185510703
H           -2.83614691146946        2.72689651178504       -0.35837428936113
H           -4.12830775882808        2.81938148670901        0.84711773579265
H           -4.51426168597742        2.97703512357898       -0.87133714500535
H           -2.85049287449616        0.81370231715404       -1.90585048076919
H           -3.96779928154135       -0.37475805349812       -1.81790800960461
H            1.29368565885069       -1.90022461900989        1.09069600013412
H            2.68287021376986       -3.28812283604247       -0.21969398056380
H            1.81396623211474       -2.76686866927639       -1.67671565220233
H            2.01523574440954        0.31793737855216       -0.86263438907927
H            3.75998120196603        1.95017826668287       -1.40942319257834
H            7.19140132818323        1.03149385372755       -2.52850756327518
H            6.82147131780170        1.87338847469673       -1.00861107790377
H            5.98155757055398        2.33058351374729       -2.50359519315785
H            6.61346906204555       -1.22922344981021       -1.78763714686051
H            4.86293807215780       -2.85932898908067       -1.23919326459302
H           -0.41189941996556       -1.85757096061043        3.48829416484593

          :  Hamiltonian                  GFN1-xTB          :
         :: total energy             -80.224889835035 Eh    ::
         :: gradient norm              0.000677692883 Eh/a0 ::
         :: HOMO-LUMO gap              0.678472510150 eV    ::
         :: SCC energy               -81.117007883507 Eh    ::
         :: -> Gsolv                  -0.155814430567 Eh    ::
         :: repulsion energy           0.921373026191 Eh    ::

    * Orbital Energies and Occupations

         #    Occupation            Energy/Eh            Energy/eV
      -------------------------------------------------------------
         1        2.0000           -0.8243376             -22.4314
       ...           ...                  ...                  ...
        56        2.0000           -0.4630605             -12.6005
        57        2.0000           -0.4575696             -12.4511
        58        2.0000           -0.4502111             -12.2509
        59        2.0000           -0.4419999             -12.0274
        60        2.0000           -0.4307731             -11.7219
        61        2.0000           -0.4287891             -11.6679
        62        2.0000           -0.4240779             -11.5397
        63        2.0000           -0.4171120             -11.3502
        64        2.0000           -0.4092611             -11.1366
        65        2.0000           -0.4075897             -11.0911
        66        2.0000           -0.3320293              -9.0350
        67        2.0000           -0.3320264              -9.0349
        68        2.0000           -0.3314713              -9.0198 (HOMO)
        69        0.0000           -0.3065378              -8.3413 (LUMO)
        70                         -0.2702965              -7.3551
        71                         -0.2459046              -6.6914
        72                         -0.2422257              -6.5913
        73                         -0.2220641              -6.0427
        74                         -0.1455680              -3.9611
        75                         -0.1443005              -3.9266
        76                         -0.1259615              -3.4276
        77                         -0.1216662              -3.3107
        78                         -0.1163099              -3.1650
        79                         -0.1134120              -3.0861
       ...                                ...                  ...
       144                          0.7203021              19.6004
      -------------------------------------------------------------
                  HL-Gap            0.0249334 Eh            0.6785 eV

Wiberg/Mayer (AO) data.
largest (>0.10) Wiberg bond orders for each atom

     #   Z sym  total        # sym  WBO       # sym  WBO       # sym  WBO
 ---------------------------------------------------------------------------
     1   6 C    3.926 --    28 H    0.977    26 H    0.977    27 H    0.973
                             2 N    0.932
     2   7 N    3.506 --     3 C    1.164    24 C    1.132     1 C    0.932
                            25 O    0.132
     3   6 C    3.919 --     8 N    1.570     2 N    1.164     4 C    0.963
     4   6 C    3.969 --     7 N    0.997     5 C    0.992     6 C    0.983
                             3 C    0.963
     5   6 C    3.994 --     4 C    0.992    31 H    0.986    30 H    0.983
                            29 H    0.982
     6   6 C    3.994 --    32 H    0.985    34 H    0.983     4 C    0.983
                            33 H    0.979
     7   7 N    2.960 --     4 C    0.997    36 H    0.946    35 H    0.939
     8   7 N    3.042 --     3 C    1.570     9 C    1.198
     9   6 C    3.964 --    22 C    1.510     8 N    1.198    10 C    0.985
    10   6 C    3.908 --    11 O    1.573    12 N    1.269     9 C    0.985
    11   8 O    1.871 --    10 C    1.573    12 N    0.175
    12   7 N    3.356 --    10 C    1.269    13 C    0.947    37 H    0.892
                            11 O    0.175
    13   6 C    3.945 --    14 C    0.992    38 H    0.974    39 H    0.961
                            12 N    0.947
    14   6 C    3.985 --    15 C    1.415    21 C    1.412    13 C    0.992
                            17 C    0.105
    15   6 C    3.995 --    16 C    1.452    14 C    1.415    40 H    0.972
                            20 C    0.107
    16   6 C    3.995 --    15 C    1.452    17 C    1.405    41 H    0.973
                            21 C    0.108
    17   6 C    3.987 --    16 C    1.405    20 C    1.404    18 C    1.032
                            14 C    0.105
    18   6 C    3.988 --    17 C    1.032    42 H    0.985    44 H    0.983
                            43 H    0.926
    19   9 F    0.101
    20   6 C    3.995 --    21 C    1.452    17 C    1.404    45 H    0.973
                            15 C    0.107
    21   6 C    3.995 --    20 C    1.452    14 C    1.412    46 H    0.973
                            16 C    0.108
    22   6 C    3.917 --     9 C    1.510    24 C    1.095    23 O    1.068
    23   8 O    2.060 --    22 C    1.068    47 H    0.803
    24   6 C    3.916 --    25 O    1.536     2 N    1.132    22 C    1.095
    25   8 O    1.887 --    24 C    1.536     2 N    0.132
    26   1 H    1.003 --     1 C    0.977
    27   1 H    1.008 --     1 C    0.973
    28   1 H    1.008 --     1 C    0.977
    29   1 H    1.004 --     5 C    0.982
    30   1 H    1.007 --     5 C    0.983
    31   1 H    1.001 --     5 C    0.986
    32   1 H    1.003 --     6 C    0.985
    33   1 H    1.005 --     6 C    0.979
    34   1 H    1.006 --     6 C    0.983
    35   1 H    0.978 --     7 N    0.939
    36   1 H    0.967 --     7 N    0.946
    37   1 H    0.947 --    12 N    0.892
    38   1 H    1.006 --    13 C    0.974
    39   1 H    1.015 --    13 C    0.961
    40   1 H    1.005 --    15 C    0.972
    41   1 H    1.003 --    16 C    0.973
    42   1 H    1.006 --    18 C    0.985
    43   1 H    1.038 --    18 C    0.926
    44   1 H    1.007 --    18 C    0.983
    45   1 H    1.003 --    20 C    0.973
    46   1 H    1.001 --    21 C    0.973
    47   1 H    0.847 --    23 O    0.803
 ---------------------------------------------------------------------------

           -------------------------------------------------
          | TOTAL ENERGY              -80.224889835035 Eh   |
          | GRADIENT NORM               0.000677692883 Eh/α |
          | HOMO-LUMO GAP               0.678472510150 eV   |
           -------------------------------------------------

 * finished run on 2023/06/20 at 15:09:30.356
