   * xtb version 6.5.1 (579679a) compiled by 'ehlert@majestix' on 2022-07-11
          program call               : /lustre/hpc/kemi/ree/PhD/git/ReactivityQM/dep/xtb-6.5.1/bin/xtb --gfn 1 /lustre/hpc/kemi/ree/PhD/git/ReactivityQM/calculations/R02oxygendeprot/reac01prodE02/conf18/R02oxygendeprot_reac01prodE02_conf18_gfn1.xyz --opt --vfukui --chrg -2 --uhf 0 --alpb DMSO

   ID    Z sym.   atoms
    1    6 C      1, 3, 4, 6, 8-11, 13, 15, 18, 19, 22, 24
    2    8 O      2, 5, 14, 20, 23, 25
    3    7 N      7, 12, 16, 17, 21
    4    1 H      26-42

      * Solvation model:               ALPB
        Solvent                        DMSO
        Solvent mass                       7.8130E+01 g/mol
          :  Hamiltonian                  GFN1-xTB          :
 * total energy  :   -83.5953325 Eh     change       -0.5338592E-09 Eh
 * total energy  :   -83.6080393 Eh     change       -0.1270673E-01 Eh
 * total energy  :   -83.6134661 Eh     change       -0.5426842E-02 Eh
 * total energy  :   -83.6149233 Eh     change       -0.1457144E-02 Eh
 * total energy  :   -83.6161201 Eh     change       -0.1196858E-02 Eh
 * total energy  :   -83.6168238 Eh     change       -0.7037132E-03 Eh
 * total energy  :   -83.6173335 Eh     change       -0.5096954E-03 Eh
 * total energy  :   -83.6176514 Eh     change       -0.3178559E-03 Eh
 * total energy  :   -83.6178367 Eh     change       -0.1852975E-03 Eh
 * total energy  :   -83.6179980 Eh     change       -0.1613208E-03 Eh
 * total energy  :   -83.6196720 Eh     change       -0.2302091E-04 Eh
 * total energy  :   -83.6196794 Eh     change       -0.7467201E-05 Eh
 * total energy  :   -83.6196921 Eh     change       -0.1265970E-04 Eh
 * total energy  :   -83.6196804 Eh     change        0.1174272E-04 Eh
 * total energy  :   -83.6196992 Eh     change       -0.1884791E-04 Eh
 * total energy  :   -83.6197070 Eh     change       -0.7793775E-05 Eh
 * total energy  :   -83.6197063 Eh     change        0.7116281E-06 Eh
 * total energy  :   -83.6197125 Eh     change       -0.6220687E-05 Eh
 * total energy  :   -83.6197171 Eh     change       -0.4618492E-05 Eh
   *** GEOMETRY OPTIMIZATION CONVERGED AFTER 68 ITERATIONS ***

 final structure:
================
42
 xtb: 6.5.1 (579679a)
C           -4.09694851528130       -1.90505535957081        1.86777226366374
O           -3.37188318437539       -1.79218696567099        0.68223765111616
C           -3.89507793958066       -0.66804408565949       -0.31179315360204
C           -4.72152791151178       -1.51839721570039       -1.33183819885454
O           -4.57869251128366        0.24981296307472        0.28739915148863
C           -2.53635204166805       -0.16655721921237       -0.92519314635112
N           -1.66711255666348        0.27538705228476        0.03127184404156
C           -0.52541696819995        0.78585535853404       -0.28045468965263
C            0.41531946478921        1.30432926271024        0.78740471817266
C            0.47228091128436        2.83900540827825        0.72796230183018
C           -0.05810124370646        0.82543448807748        2.16295107831246
N            1.76176169727958        0.76085061930232        0.50893190481867
C            2.84735295691284        1.03537109791273        1.24440566962621
O            2.87974960622045        1.73416557776502        2.24877276325259
C            4.08251219280642        0.38605743257118        0.72121759360004
N            5.27956979492505        0.45605670718071        1.21871422342225
N            6.08755703170920       -0.28720193835724        0.40809007854172
C            5.33397009468741       -0.76338255380540       -0.53344881599399
C            5.73692986719976       -1.62677801291634       -1.66505487812404
O            4.05506062855288       -0.37693010004243       -0.39371152914458
N           -0.14335932457552        0.93167349224265       -1.59937038900941
C           -0.93111826863137        0.53590742570951       -2.65655404652797
O           -0.49876285223092        0.70222695690881       -3.81063156242825
C           -2.25262035317577       -0.06399499870188       -2.30008431797938
O           -3.00910003098471       -0.43552312030130       -3.25170500414265
H           -4.55989963037389       -0.94645714480192        2.16636500603368
H           -4.90490033009439       -2.65812866072558        1.79984883347038
H           -3.42363426487165       -2.21566754473710        2.68008501881961
H           -4.11931027609833       -2.29756408823528       -1.79633457047120
H           -5.54924584770132       -1.97882314246212       -0.79132731966509
H           -5.13245137549716       -0.86459960419313       -2.09961021171903
H           -0.53473778591693        3.24070728740079        0.83487421927445
H            0.88060608963599        3.15956601566595       -0.22887064761732
H            1.09587464919294        3.23511406472149        1.52702249812009
H            0.57754972541408        1.22426789212616        2.95032773950957
H           -1.08210290704965        1.16247145560966        2.32373425268774
H           -0.03932845958496       -0.26333471869066        2.20337539536539
H            1.87708399177854        0.17165281415781       -0.30087490417571
H            6.78415720921313       -1.89817053601286       -1.56088362613204
H            5.12452191769973       -2.52779305845325       -1.68568237350784
H            5.59289290070998       -1.09761731882186       -2.60728734544685
H            0.74693384903626        1.33629201485113       -1.82718647461470

          :  Hamiltonian                  GFN1-xTB          :
         :: total energy             -83.619717132564 Eh    ::
         :: gradient norm              0.000486292537 Eh/a0 ::
         :: HOMO-LUMO gap              0.317790960055 eV    ::
         :: SCC energy               -84.358817862002 Eh    ::
         :: -> Gsolv                  -0.303157844658 Eh    ::
         :: repulsion energy           0.764726364063 Eh    ::

    * Orbital Energies and Occupations

         #    Occupation            Energy/Eh            Energy/eV
      -------------------------------------------------------------
         1        2.0000           -0.8571133             -23.3232
       ...           ...                  ...                  ...
        56        2.0000           -0.4427273             -12.0472
        57        2.0000           -0.4382475             -11.9253
        58        2.0000           -0.4309602             -11.7270
        59        2.0000           -0.4276373             -11.6366
        60        2.0000           -0.4133462             -11.2477
        61        2.0000           -0.4064464             -11.0600
        62        2.0000           -0.4011411             -10.9156
        63        2.0000           -0.3793169             -10.3217
        64        2.0000           -0.3750681             -10.2061
        65        2.0000           -0.3489466              -9.4953
        66        2.0000           -0.3347839              -9.1099
        67        2.0000           -0.3163057              -8.6071
        68        1.9957           -0.3100935              -8.4381 (HOMO)
        69        0.0043           -0.2984148              -8.1203 (LUMO)
        70                         -0.2497486              -6.7960
        71                         -0.2162123              -5.8834
        72                         -0.2001613              -5.4467
        73                         -0.1865938              -5.0775
        74                         -0.1384582              -3.7676
        75                         -0.1080602              -2.9405
        76                         -0.1034425              -2.8148
        77                         -0.0916072              -2.4928
        78                         -0.0893378              -2.4310
        79                         -0.0825608              -2.2466
       ...                                ...                  ...
       134                          0.7457081              20.2917
      -------------------------------------------------------------
                  HL-Gap            0.0116786 Eh            0.3178 eV

Wiberg/Mayer (AO) data.
largest (>0.10) Wiberg bond orders for each atom

     #   Z sym  total        # sym  WBO       # sym  WBO       # sym  WBO
 ---------------------------------------------------------------------------
     1   6 C    3.948 --     2 O    1.002    28 H    0.982    27 H    0.978
                            26 H    0.967
     2   8 O    1.899 --     1 C    1.002     3 C    0.701
     3   6 C    3.887 --     5 O    1.269     4 C    0.946     6 C    0.914
                             2 O    0.701
     4   6 C    3.989 --    29 H    0.990    30 H    0.987    31 H    0.984
                             3 C    0.946
     5   8 O    1.554 --     3 C    1.269
     6   6 C    3.924 --    24 C    1.347     7 N    1.242     3 C    0.914
                            25 O    0.138
     7   7 N    3.036 --     8 C    1.563     6 C    1.242
     8   6 C    3.923 --     7 N    1.563    21 N    1.091     9 C    0.978
     9   6 C    3.922 --    11 C    0.995    10 C    0.983     8 C    0.978
                            12 N    0.900
    10   6 C    3.991 --    32 H    0.986    33 H    0.985     9 C    0.983
                            34 H    0.982
    11   6 C    3.993 --     9 C    0.995    37 H    0.986    35 H    0.985
                            36 H    0.983
    12   7 N    3.371 --    13 C    1.293     9 C    0.900    38 H    0.898
                            14 O    0.184
    13   6 C    3.921 --    14 O    1.563    12 N    1.293    15 C    0.985
    14   8 O    1.883 --    13 C    1.563    12 N    0.184
    15   6 C    3.866 --    16 N    1.624    20 O    1.047    13 C    0.985
    16   7 N    2.993 --    15 C    1.624    17 N    1.193
    17   7 N    2.980 --    18 C    1.616    16 N    1.193
    18   6 C    3.870 --    17 N    1.616    20 O    1.072    19 C    1.031
    19   6 C    3.988 --    18 C    1.031    39 H    0.983    40 H    0.966
                            41 H    0.962
    20   8 O    2.315 --    18 C    1.072    15 C    1.047
    21   7 N    3.413 --    22 C    1.143     8 C    1.091    42 H    0.907
                            23 O    0.127
    22   6 C    3.879 --    23 O    1.503    21 N    1.143    24 C    1.024
    23   8 O    1.796 --    22 C    1.503    21 N    0.127
    24   6 C    3.956 --    25 O    1.395     6 C    1.347    22 C    1.024
    25   8 O    1.737 --    24 C    1.395     6 C    0.138
    26   1 H    1.038 --     1 C    0.967
    27   1 H    1.022 --     1 C    0.978
    28   1 H    1.027 --     1 C    0.982
    29   1 H    1.028 --     4 C    0.990
    30   1 H    1.021 --     4 C    0.987
    31   1 H    1.038 --     4 C    0.984
    32   1 H    1.006 --    10 C    0.986
    33   1 H    1.006 --    10 C    0.985
    34   1 H    1.011 --    10 C    0.982
    35   1 H    1.013 --    11 C    0.985
    36   1 H    1.020 --    11 C    0.983
    37   1 H    1.012 --    11 C    0.986
    38   1 H    0.948 --    12 N    0.898
    39   1 H    0.999 --    19 C    0.983
    40   1 H    0.997 --    19 C    0.966
    41   1 H    0.997 --    19 C    0.962
    42   1 H    0.957 --    21 N    0.907
 ---------------------------------------------------------------------------

           -------------------------------------------------
          | TOTAL ENERGY              -83.619717132564 Eh   |
          | GRADIENT NORM               0.000486292537 Eh/α |
          | HOMO-LUMO GAP               0.317790960055 eV   |
           -------------------------------------------------

 * finished run on 2023/06/21 at 17:02:39.671
