   * xtb version 6.5.1 (579679a) compiled by 'ehlert@majestix' on 2022-07-11
          program call               : /lustre/hpc/kemi/ree/PhD/git/ReactivityQM/dep/xtb-6.5.1/bin/xtb --gfn 1 /lustre/hpc/kemi/ree/PhD/git/ReactivityQM/calculations/RaltegravirCLI/reac02prodN11/conf01/RaltegravirCLI_reac02prodN11_conf01_gfn1.xyz --opt --vfukui --chrg 1 --uhf 0 --alpb DMSO

   ID    Z sym.   atoms
    1    6 C      1, 3-6, 9, 10, 13-18, 20-22, 24
    2    7 N      2, 7, 8, 12
    3    8 O      11, 23, 25
    4    9 F      19
    5    1 H      26-47

      * Solvation model:               ALPB
        Solvent                        DMSO
        Solvent mass                       7.8130E+01 g/mol
          :  Hamiltonian                  GFN1-xTB          :
 * total energy  :   -79.4547088 Eh     change       -0.1244558E-08 Eh
 * total energy  :   -79.4624785 Eh     change       -0.7769685E-02 Eh
 * total energy  :   -79.4647791 Eh     change       -0.2300640E-02 Eh
 * total energy  :   -79.4654785 Eh     change       -0.6993369E-03 Eh
 * total energy  :   -79.4663390 Eh     change       -0.8605739E-03 Eh
 * total energy  :   -79.4670189 Eh     change       -0.6798247E-03 Eh
 * total energy  :   -79.4675921 Eh     change       -0.5732686E-03 Eh
 * total energy  :   -79.4680478 Eh     change       -0.4556715E-03 Eh
 * total energy  :   -79.4684081 Eh     change       -0.3602968E-03 Eh
 * total energy  :   -79.4687863 Eh     change       -0.3782321E-03 Eh
 * total energy  :   -79.4745245 Eh     change       -0.2141336E-04 Eh
 * total energy  :   -79.4745401 Eh     change       -0.1561668E-04 Eh
 * total energy  :   -79.4745538 Eh     change       -0.1370381E-04 Eh
 * total energy  :   -79.4745638 Eh     change       -0.9946711E-05 Eh
 * total energy  :   -79.4745715 Eh     change       -0.7727021E-05 Eh
 * total energy  :   -79.4745787 Eh     change       -0.7198130E-05 Eh
 * total energy  :   -79.4745860 Eh     change       -0.7304701E-05 Eh
 * total energy  :   -79.4745922 Eh     change       -0.6243100E-05 Eh
 * total energy  :   -79.4745970 Eh     change       -0.4817204E-05 Eh
   *** GEOMETRY OPTIMIZATION CONVERGED AFTER 57 ITERATIONS ***

 final structure:
================
47
 xtb: 6.5.1 (579679a)
C           -4.24377374444225       -2.37927040962504       -0.87268385995706
N           -3.10749036301042       -1.49080574714584       -0.61061533967583
C           -3.23003239439516       -0.26031844339445       -0.01896086734674
C           -4.58167632979330        0.31636844899652        0.38340011699508
C           -5.23920875101318        0.94102038727649       -0.85586869899418
C           -4.36794604935773        1.40489669639751        1.45084641576570
N           -5.44572514978539       -0.71750429309835        0.92629106300049
N           -2.20516577123314        0.50940553514375        0.18529267289653
C           -0.94875333450169        0.13560798452581       -0.18648693164858
C            0.13674640673029        1.11258624413797        0.13357821293789
O            0.06357367061099        1.92646860329002        1.03781659713310
N            1.23167351636016        1.01923708721853       -0.66637053616182
C            2.38017167172999        1.85972485586780       -0.42784864378826
C            3.62840379581618        1.07617144038272       -0.25620003682383
C            4.87710585309498        1.71817025836800       -0.46024764500706
C            6.04262885550523        1.03060757482309       -0.35300580754600
C            6.05059439872968       -0.35514613112232        0.16586717014524
C            6.47309319140887       -0.25726067119114        1.66560931025780
F            7.01534718224971       -1.11361207934849       -0.43997204962112
C            4.73419687186587       -1.03167978444190        0.14742652040890
C            3.58914819937453       -0.31175178444618        0.02546234953499
C           -0.75075020669110       -1.09145529395274       -0.74747119148172
O            0.45907881459319       -1.56916657440864       -1.10960542035366
C           -1.86749229951920       -1.98878075476261       -0.97199591844415
O           -1.70999123774208       -3.10226121886153       -1.46404144181831
H           -5.08101877846490       -1.81092812248625       -1.26476625113781
H           -4.54107019804548       -2.87470106607125        0.05008520074589
H           -3.92780883254648       -3.12300312974470       -1.60381548964073
H           -4.57995578536357        1.69758765124289       -1.27936227062516
H           -5.44044477058087        0.18749883059412       -1.61503613143776
H           -6.18028491478949        1.41026723580089       -0.57285391944887
H           -5.33437827440557        1.79498805791836        1.76473678832825
H           -3.76685531759794        2.21676394067316        1.04384331949876
H           -3.85514926638737        0.98521547047834        2.31481828574860
H           -5.13495419138328       -1.00918977173696        1.84191574448666
H           -6.39975344987217       -0.39466189142892        0.98347966577495
H            1.27259820429367        0.36793179878184       -1.43082631318061
H            2.50194244320313        2.59329024548296       -1.23293472972129
H            2.17942576184675        2.42887367040941        0.49411601095370
H            4.88308063067500        2.75762507926091       -0.76840092586693
H            7.00067172265082        1.48952367607444       -0.56578737992428
H            6.51356742690303       -1.26541527606307        2.07153602737630
H            7.46113106475187        0.19555853455210        1.70651055517776
H            5.76410543313367        0.34406119783251        2.22678608450540
H            4.72310290585904       -2.10219210442206        0.31321363600147
H            2.62396658180280       -0.80371997569938        0.08246019942026
H            0.33432680773152       -2.46662898207792       -1.47678814743374

          :  Hamiltonian                  GFN1-xTB          :
         :: total energy             -79.474597049826 Eh    ::
         :: gradient norm              0.000565031526 Eh/a0 ::
         :: HOMO-LUMO gap              0.140173076167 eV    ::
         :: SCC energy               -80.356157662844 Eh    ::
         :: -> Gsolv                  -0.104943563353 Eh    ::
         :: repulsion energy           0.911371893939 Eh    ::

    * Orbital Energies and Occupations

         #    Occupation            Energy/Eh            Energy/eV
      -------------------------------------------------------------
         1        2.0000           -0.8931386             -24.3035
       ...           ...                  ...                  ...
        55        2.0000           -0.5187877             -14.1169
        56        2.0000           -0.5181903             -14.1007
        57        2.0000           -0.5122951             -13.9403
        58        2.0000           -0.5088338             -13.8461
        59        2.0000           -0.5038692             -13.7110
        60        2.0000           -0.4961299             -13.5004
        61        2.0000           -0.4829483             -13.1417
        62        2.0000           -0.4768393             -12.9755
        63        2.0000           -0.4656001             -12.6696
        64        2.0000           -0.4622258             -12.5778
        65        2.0000           -0.4481249             -12.1941
        66        1.9999           -0.4327853             -11.7767
        67        1.8754           -0.4261728             -11.5968 (HOMO)
        68        0.1247           -0.4210215             -11.4566 (LUMO)
        69                         -0.3247129              -8.8359
        70                         -0.3229857              -8.7889
        71                         -0.2858754              -7.7791
        72                         -0.2519038              -6.8547
        73                         -0.2456781              -6.6852
        74                         -0.1656182              -4.5067
        75                         -0.1574377              -4.2841
        76                         -0.1543443              -4.1999
        77                         -0.1410707              -3.8387
        78                         -0.1379829              -3.7547
       ...                                ...                  ...
       144                          0.7050921              19.1865
      -------------------------------------------------------------
                  HL-Gap            0.0051513 Eh            0.1402 eV

Wiberg/Mayer (AO) data.
largest (>0.10) Wiberg bond orders for each atom

     #   Z sym  total        # sym  WBO       # sym  WBO       # sym  WBO
 ---------------------------------------------------------------------------
     1   6 C    3.914 --    26 H    0.977    28 H    0.974    27 H    0.974
                             2 N    0.925
     2   7 N    3.516 --     3 C    1.182    24 C    1.131     1 C    0.925
                            25 O    0.132
     3   6 C    3.917 --     8 N    1.552     2 N    1.182     4 C    0.975
     4   6 C    3.952 --     7 N    0.984     5 C    0.980     6 C    0.977
                             3 C    0.975
     5   6 C    3.991 --    29 H    0.985    31 H    0.982     4 C    0.980
                            30 H    0.979
     6   6 C    3.972 --    32 H    0.985    34 H    0.984    33 H    0.980
                             4 C    0.977
     7   7 N    2.935 --     4 C    0.984    35 H    0.930    36 H    0.927
     8   7 N    3.023 --     3 C    1.552     9 C    1.204
     9   6 C    3.963 --    22 C    1.503     8 N    1.204    10 C    0.990
    10   6 C    3.895 --    11 O    1.608    12 N    1.216     9 C    0.990
    11   8 O    1.906 --    10 C    1.608    12 N    0.158
    12   7 N    3.325 --    10 C    1.216    13 C    0.967    37 H    0.885
                            11 O    0.158
    13   6 C    3.954 --    14 C    1.062    12 N    0.967    38 H    0.936
                            39 H    0.900
    14   6 C    3.857 --    21 C    1.278    15 C    1.272    13 C    1.062
    15   6 C    3.987 --    16 C    1.649    14 C    1.272    40 H    0.961
    16   6 C    3.893 --    15 C    1.649    17 C    1.037    41 H    0.961
    17   6 C    3.883 --    16 C    1.037    20 C    1.036    19 F    0.897
                            18 C    0.861
    18   6 C    3.940 --    44 H    0.982    42 H    0.975    43 H    0.974
                            17 C    0.861
    19   9 F    1.005 --    17 C    0.897
    20   6 C    3.889 --    21 C    1.641    17 C    1.036    45 H    0.961
    21   6 C    3.985 --    20 C    1.641    14 C    1.278    46 H    0.955
    22   6 C    3.909 --     9 C    1.503    24 C    1.088    23 O    1.070
    23   8 O    2.062 --    22 C    1.070    47 H    0.797
    24   6 C    3.916 --    25 O    1.549     2 N    1.131    22 C    1.088
    25   8 O    1.894 --    24 C    1.549     2 N    0.132
    26   1 H    1.016 --     1 C    0.977
    27   1 H    1.012 --     1 C    0.974
    28   1 H    1.006 --     1 C    0.974
    29   1 H    1.003 --     5 C    0.985
    30   1 H    1.002 --     5 C    0.979
    31   1 H    0.998 --     5 C    0.982
    32   1 H    1.002 --     6 C    0.985
    33   1 H    1.011 --     6 C    0.980
    34   1 H    1.005 --     6 C    0.984
    35   1 H    0.946 --     7 N    0.930
    36   1 H    0.942 --     7 N    0.927
    37   1 H    0.934 --    12 N    0.885
    38   1 H    0.988 --    13 C    0.936
    39   1 H    0.992 --    13 C    0.900
    40   1 H    0.989 --    15 C    0.961
    41   1 H    0.989 --    16 C    0.961
    42   1 H    0.993 --    18 C    0.975
    43   1 H    0.993 --    18 C    0.974
    44   1 H    0.995 --    18 C    0.982
    45   1 H    0.989 --    20 C    0.961
    46   1 H    1.005 --    21 C    0.955
    47   1 H    0.840 --    23 O    0.797
 ---------------------------------------------------------------------------

           -------------------------------------------------
          | TOTAL ENERGY              -79.474597049826 Eh   |
          | GRADIENT NORM               0.000565031526 Eh/α |
          | HOMO-LUMO GAP               0.140173076167 eV   |
           -------------------------------------------------

 * finished run on 2023/06/20 at 15:31:38.892
