   * xtb version 6.5.1 (579679a) compiled by 'ehlert@majestix' on 2022-07-11
          program call               : /lustre/hpc/kemi/ree/PhD/git/ReactivityQM/dep/xtb-6.5.1/bin/xtb --gfn 1 /lustre/hpc/kemi/ree/PhD/git/ReactivityQM/calculations/R03/reac02prodE03/conf12/R03_reac02prodE03_conf12_gfn1.xyz --opt --vfukui --chrg -1 --uhf 0 --alpb DMSO

   ID    Z sym.   atoms
    1    6 C      1, 3, 5, 6, 8-11, 13, 15, 18, 19, 22, 23, 25
    2    8 O      2, 4, 14, 20, 24, 26
    3    7 N      7, 12, 16, 17, 21
    4    1 H      27-46

      * Solvation model:               ALPB
        Solvent                        DMSO
        Solvent mass                       7.8130E+01 g/mol
          :  Hamiltonian                  GFN1-xTB          :
 * total energy  :   -86.9918217 Eh     change       -0.1634248E-11 Eh
 * total energy  :   -87.0073093 Eh     change       -0.1548764E-01 Eh
 * total energy  :   -87.0136184 Eh     change       -0.6309086E-02 Eh
 * total energy  :   -87.0150321 Eh     change       -0.1413706E-02 Eh
 * total energy  :   -87.0157417 Eh     change       -0.7095888E-03 Eh
 * total energy  :   -87.0160725 Eh     change       -0.3307713E-03 Eh
 * total energy  :   -87.0163824 Eh     change       -0.3098908E-03 Eh
 * total energy  :   -87.0166720 Eh     change       -0.2896176E-03 Eh
 * total energy  :   -87.0169512 Eh     change       -0.2792177E-03 Eh
 * total energy  :   -87.0172471 Eh     change       -0.2958420E-03 Eh
 * total energy  :   -87.0226724 Eh     change       -0.3806302E-04 Eh
 * total energy  :   -87.0227227 Eh     change       -0.5025047E-04 Eh
 * total energy  :   -87.0227496 Eh     change       -0.2694625E-04 Eh
 * total energy  :   -87.0227744 Eh     change       -0.2474963E-04 Eh
 * total energy  :   -87.0227871 Eh     change       -0.1276886E-04 Eh
 * total energy  :   -87.0228032 Eh     change       -0.1606126E-04 Eh
 * total energy  :   -87.0228131 Eh     change       -0.9882999E-05 Eh
 * total energy  :   -87.0228197 Eh     change       -0.6610820E-05 Eh
 * total energy  :   -87.0228243 Eh     change       -0.4562469E-05 Eh
   *** GEOMETRY OPTIMIZATION CONVERGED AFTER 81 ITERATIONS ***

 final structure:
================
46
 xtb: 6.5.1 (579679a)
C           -3.52727485125053       -0.92105814950734       -2.64127275481566
O           -3.10879537508369        0.43009683908534       -2.77791028048715
C           -3.32760869274184        1.26634992522836       -1.67658294352955
O           -4.35162375638226        2.18629149573803       -1.85585909911846
C           -5.64712023985118        1.80309831241621       -1.40575331912128
C           -2.55316811558485        1.19563992416269       -0.54871535574595
N           -1.51486228103801        0.25228321907123       -0.55809062541381
C           -0.68650050397173        0.14374142458580        0.42325012036263
C            0.38608486940106       -0.93926688576520        0.25952320349156
C            0.26997785581374       -1.56965459211223       -1.13686111602435
C            0.22328115127571       -2.04022452487831        1.31662589196631
N            1.70176980591105       -0.28730128900967        0.35378908280854
C            2.87766390859785       -0.95370863469275        0.32680847973268
O            3.01640085930401       -2.16603028614835        0.40329237457402
C            4.01334103246928       -0.00878773020576        0.20855754189149
N            3.92566128020596        1.28753045996821        0.10670659089960
N            5.20024464780133        1.75922552868631       -0.01483782509695
C            5.98246399690760        0.72532094759637        0.01787873781748
C            7.45859136171813        0.70786745559636       -0.08736732315694
O            5.29765712069539       -0.42144179207302        0.15692648035592
N           -0.72929782805781        0.93391281391707        1.53515090759920
C            0.14452862487622        0.81713888928165        2.69512601544894
C           -1.80476293879546        1.87974854750246        1.70006879772603
O           -1.87550026340472        2.53599720744242        2.77376421644545
C           -2.67282719752152        1.98892564612135        0.63142341460279
O           -3.73550217952325        2.89307536119197        0.77041322156315
H           -4.60622633061510       -0.99525897478687       -2.45691351685858
H           -3.28988328402837       -1.42752009351651       -3.57904839931577
H           -2.99262796330769       -1.41703739976800       -1.82089745218064
H           -6.04069223543701        0.95947371204061       -1.98601774324112
H           -6.30203599845509        2.66636353774299       -1.54442834562348
H           -5.63090589494444        1.53013942535630       -0.34422006131470
H            0.36001943784921       -0.80411930755087       -1.90644872783025
H           -0.69865253461172       -2.05611827360477       -1.23810745427804
H            1.05568988906948       -2.31077096494922       -1.27306658809189
H            0.55158415136040       -1.70908682191224        2.29819830090505
H            0.80536454133591       -2.91804533421686        1.04155510759904
H           -0.82728109961061       -2.32334407536529        1.37273060015664
H            1.73737893793554        0.70172486042719        0.14578641063671
H            7.76315759425417        0.13771631807863       -0.96503613721938
H            7.83122729071542        1.72585785233198       -0.16893032657292
H            7.89152225972153        0.22984741338280        0.79086221717240
H           -0.29918191692552        0.15361524418881        3.44205902020671
H            1.12527042330987        0.44684241881010        2.41225698224541
H            0.25661280230943        1.80842598870825        3.13969128567890
H           -3.65316236169211        3.26391036141073        1.66391739315149

          :  Hamiltonian                  GFN1-xTB          :
         :: total energy             -87.022824254096 Eh    ::
         :: gradient norm              0.000586832898 Eh/a0 ::
         :: HOMO-LUMO gap              0.166786995458 eV    ::
         :: SCC energy               -87.816105232557 Eh    ::
         :: -> Gsolv                  -0.113262532869 Eh    ::
         :: repulsion energy           0.822599796211 Eh    ::

    * Orbital Energies and Occupations

         #    Occupation            Energy/Eh            Energy/eV
      -------------------------------------------------------------
         1        2.0000           -0.8535465             -23.2262
       ...           ...                  ...                  ...
        59        2.0000           -0.4716607             -12.8345
        60        2.0000           -0.4695206             -12.7763
        61        2.0000           -0.4529844             -12.3263
        62        2.0000           -0.4498252             -12.2404
        63        2.0000           -0.4415695             -12.0157
        64        2.0000           -0.4342602             -11.8168
        65        2.0000           -0.4317247             -11.7478
        66        2.0000           -0.4308411             -11.7238
        67        2.0000           -0.4205846             -11.4447
        68        2.0000           -0.3962720             -10.7831
        69        2.0000           -0.3914453             -10.6518
        70        2.0000           -0.3724675             -10.1354
        71        1.9236           -0.3067385              -8.3468 (HOMO)
        72        0.0764           -0.3006092              -8.1800 (LUMO)
        73                         -0.2490890              -6.7781
        74                         -0.2329202              -6.3381
        75                         -0.1960293              -5.3342
        76                         -0.1872724              -5.0959
        77                         -0.1394096              -3.7935
        78                         -0.1240496              -3.3756
        79                         -0.1194773              -3.2511
        80                         -0.1140553              -3.1036
        81                         -0.1070576              -2.9132
        82                         -0.1003843              -2.7316
       ...                                ...                  ...
       144                          0.7248566              19.7244
      -------------------------------------------------------------
                  HL-Gap            0.0061293 Eh            0.1668 eV

Wiberg/Mayer (AO) data.
largest (>0.10) Wiberg bond orders for each atom

     #   Z sym  total        # sym  WBO       # sym  WBO       # sym  WBO
 ---------------------------------------------------------------------------
     1   6 C    3.916 --    28 H    0.985    27 H    0.981    29 H    0.978
                             2 O    0.936
     2   8 O    2.002 --     1 C    0.936     3 C    0.936
     3   6 C    3.722 --     6 C    1.514     4 O    0.954     2 O    0.936
     4   8 O    2.012 --     3 C    0.954     5 C    0.930
     5   6 C    3.915 --    31 H    0.985    30 H    0.981    32 H    0.981
                             4 O    0.930
     6   6 C    3.952 --     3 C    1.514    25 C    1.177     7 N    1.077
     7   7 N    3.012 --     8 C    1.608     6 C    1.077    21 N    0.134
     8   6 C    3.946 --     7 N    1.608    21 N    1.188     9 C    0.966
     9   6 C    3.929 --    10 C    0.992    11 C    0.990     8 C    0.966
                            12 N    0.912
    10   6 C    3.993 --     9 C    0.992    33 H    0.985    35 H    0.984
                            34 H    0.983
    11   6 C    3.992 --     9 C    0.990    38 H    0.986    36 H    0.981
                            37 H    0.980
    12   7 N    3.335 --    13 C    1.242     9 C    0.912    39 H    0.901
                            14 O    0.171
    13   6 C    3.894 --    14 O    1.571    12 N    1.242    15 C    1.000
    14   8 O    1.876 --    13 C    1.571    12 N    0.171
    15   6 C    3.841 --    16 N    1.586    20 O    1.053    13 C    1.000
    16   7 N    2.976 --    15 C    1.586    17 N    1.193
    17   7 N    2.980 --    18 C    1.613    16 N    1.193
    18   6 C    3.865 --    17 N    1.613    20 O    1.078    19 C    1.030
    19   6 C    3.988 --    18 C    1.030    41 H    0.983    42 H    0.965
                            40 H    0.964
    20   8 O    2.309 --    18 C    1.078    15 C    1.053
    21   7 N    3.402 --     8 C    1.188    23 C    0.955    22 C    0.952
                             7 N    0.134
    22   6 C    3.952 --    44 H    0.980    43 H    0.980    45 H    0.977
                            21 N    0.952
    23   6 C    3.902 --    24 O    1.388    25 C    1.385    21 N    0.955
    24   8 O    1.739 --    23 C    1.388    25 C    0.126
    25   6 C    3.822 --    23 C    1.385     6 C    1.177    26 O    0.968
                            24 O    0.126
    26   8 O    1.945 --    25 C    0.968    46 H    0.850
    27   1 H    1.018 --     1 C    0.981
    28   1 H    1.019 --     1 C    0.985
    29   1 H    1.032 --     1 C    0.978
    30   1 H    1.017 --     5 C    0.981
    31   1 H    1.020 --     5 C    0.985
    32   1 H    1.031 --     5 C    0.981
    33   1 H    1.017 --    10 C    0.985
    34   1 H    1.018 --    10 C    0.983
    35   1 H    1.008 --    10 C    0.984
    36   1 H    1.005 --    11 C    0.981
    37   1 H    1.015 --    11 C    0.980
    38   1 H    1.004 --    11 C    0.986
    39   1 H    0.961 --    12 N    0.901
    40   1 H    0.997 --    19 C    0.964
    41   1 H    0.999 --    19 C    0.983
    42   1 H    0.997 --    19 C    0.965
    43   1 H    1.007 --    22 C    0.980
    44   1 H    1.013 --    22 C    0.980
    45   1 H    1.020 --    22 C    0.977
    46   1 H    0.892 --    26 O    0.850
 ---------------------------------------------------------------------------

           -------------------------------------------------
          | TOTAL ENERGY              -87.022824254096 Eh   |
          | GRADIENT NORM               0.000586832898 Eh/α |
          | HOMO-LUMO GAP               0.166786995458 eV   |
           -------------------------------------------------

 * finished run on 2023/06/20 at 15:17:23.719
