   * xtb version 6.5.1 (579679a) compiled by 'ehlert@majestix' on 2022-07-11
          program call               : /lustre/hpc/kemi/ree/PhD/git/ReactivityQM/dep/xtb-6.5.1/bin/xtb --gfn 1 /lustre/hpc/kemi/ree/PhD/git/ReactivityQM/calculations/RaltegravirCLI/reac02prodN03/conf18/RaltegravirCLI_reac02prodN03_conf18_gfn1.xyz --opt --vfukui --chrg 1 --uhf 0 --alpb DMSO

   ID    Z sym.   atoms
    1    6 C      1, 3-5, 8-12, 14, 15, 17-20, 23, 24
    2    8 O      2, 6, 25
    3    7 N      7, 16, 21, 22
    4    9 F      13
    5    1 H      26-47

      * Solvation model:               ALPB
        Solvent                        DMSO
        Solvent mass                       7.8130E+01 g/mol
          :  Hamiltonian                  GFN1-xTB          :
 * total energy  :   -79.4796978 Eh     change       -0.4504841E-11 Eh
 * total energy  :   -79.4942302 Eh     change       -0.1453246E-01 Eh
 * total energy  :   -79.5017425 Eh     change       -0.7512249E-02 Eh
 * total energy  :   -79.5063503 Eh     change       -0.4607854E-02 Eh
 * total energy  :   -79.5118326 Eh     change       -0.5482263E-02 Eh
 * total energy  :   -79.5155842 Eh     change       -0.3751575E-02 Eh
 * total energy  :   -79.5214874 Eh     change       -0.5903222E-02 Eh
 * total energy  :   -79.5239118 Eh     change       -0.2424380E-02 Eh
 * total energy  :   -79.5269825 Eh     change       -0.3070695E-02 Eh
 * total energy  :   -79.5293258 Eh     change       -0.2343300E-02 Eh
 * total energy  :   -79.5367878 Eh     change       -0.2460730E-04 Eh
 * total energy  :   -79.5367968 Eh     change       -0.9006388E-05 Eh
 * total energy  :   -79.5368035 Eh     change       -0.6690203E-05 Eh
 * total energy  :   -79.5368104 Eh     change       -0.6897187E-05 Eh
 * total energy  :   -79.5368156 Eh     change       -0.5218575E-05 Eh
 * total energy  :   -79.5368219 Eh     change       -0.6306390E-05 Eh
 * total energy  :   -79.5368287 Eh     change       -0.6800668E-05 Eh
 * total energy  :   -79.5368352 Eh     change       -0.6503191E-05 Eh
 * total energy  :   -79.5368379 Eh     change       -0.2738194E-05 Eh
   *** GEOMETRY OPTIMIZATION CONVERGED AFTER 44 ITERATIONS ***

 final structure:
================
47
 xtb: 6.5.1 (579679a)
C           -0.85963717725544       -3.84284931937096        2.72348423111160
O           -0.26528686576366       -2.97203147491068        1.74422526527327
C           -0.93517337231683       -1.97464539831057        1.15248467216125
C           -0.27250013913309       -1.18801190173433        0.23704734819039
C            1.12081197933868       -1.35612625511317       -0.13871847698130
O            1.88642640538281       -2.30144739012153        0.33419029271584
N            1.62620871461701       -0.51721474503312       -0.99918495797453
C            3.00836279655144       -0.53878159807912       -1.47539576418995
C            3.83613294700116        0.47663342219038       -0.71680184764014
C            4.08061923070164        0.29529726152093        0.64336692006512
C            4.83637841430964        1.21804697203124        1.35046389699275
C            5.33749409999836        2.31501988069311        0.67086405637178
F            6.06919252991630        3.20941812432676        1.34636683885565
C            5.11187177762714        2.52367831005518       -0.67778714018814
C            4.35081934543294        1.59234391292305       -1.37090942976487
N           -0.89270431833870       -0.15012550585781       -0.39369983281372
C           -2.14833345892782        0.10759209801659       -0.17451129388728
C           -2.73346702355070        1.26286269542233       -0.97387469862564
C           -3.42766168959371        0.69201909345698       -2.22052721401333
C           -1.59571449363226        2.19956793033619       -1.41387218408968
N           -3.69458784037354        2.00741614539138       -0.17143854506259
N           -2.88595655615438       -0.65285452886524        0.68669314049592
C           -4.31534790419052       -0.41672161710473        0.93186653860063
C           -2.33885027895019       -1.68638734828985        1.44336871248995
O           -3.01705398912146       -2.28495981478813        2.26437538356871
H           -1.18340864452856       -3.27168443020677        3.59501612939223
H           -0.06991493686271       -4.53873697641647        3.00339571345018
H           -1.70235992243804       -4.38545840042935        2.29214101291178
H            1.41078652635512       -2.90772152643317        0.94086354059074
H            1.00594451390944        0.21406060551726       -1.33250076349335
H            2.98612726918900       -0.30612984884476       -2.54173373996388
H            3.39688786111482       -1.54931855080753       -1.32988090331888
H            3.67685535459803       -0.57086587938999        1.15213450946235
H            5.03271265917124        1.09069694905145        2.40712243396617
H            5.51877678125905        3.39551808107813       -1.17328807846230
H            4.15927011070423        1.73710851919793       -2.42720905219637
H           -2.71883956704217        0.09984630307086       -2.79736731266800
H           -3.78823674416867        1.51215338896442       -2.83958605307605
H           -4.27279443812868        0.06223575030429       -1.94835962519035
H           -2.01838795885353        3.05411664105317       -1.93960702267919
H           -1.04531193902951        2.55445615040765       -0.54433284063269
H           -0.90742492747335        1.67986553728557       -2.07792430116280
H           -3.19883069638984        2.53497104078172        0.53541259061503
H           -4.17481556924332        2.66836158326381       -0.76765786945496
H           -4.42806998333175        0.34862779775127        1.69812827352744
H           -4.79971225954000       -0.08984516684457        0.01914041430523
H           -4.76129862285241       -1.34999651714946        1.27401303240936

          :  Hamiltonian                  GFN1-xTB          :
         :: total energy             -79.536837927795 Eh    ::
         :: gradient norm              0.000246085419 Eh/a0 ::
         :: HOMO-LUMO gap              1.658834873011 eV    ::
         :: SCC energy               -80.431993304889 Eh    ::
         :: -> Gsolv                  -0.097418001598 Eh    ::
         :: repulsion energy           0.925145054760 Eh    ::

    * Orbital Energies and Occupations

         #    Occupation            Energy/Eh            Energy/eV
      -------------------------------------------------------------
         1        2.0000           -0.8771059             -23.8673
       ...           ...                  ...                  ...
        55        2.0000           -0.5193343             -14.1318
        56        2.0000           -0.5112225             -13.9111
        57        2.0000           -0.5062755             -13.7765
        58        2.0000           -0.5058176             -13.7640
        59        2.0000           -0.4952466             -13.4763
        60        2.0000           -0.4873278             -13.2609
        61        2.0000           -0.4838923             -13.1674
        62        2.0000           -0.4747341             -12.9182
        63        2.0000           -0.4701604             -12.7937
        64        2.0000           -0.4656165             -12.6701
        65        2.0000           -0.4529426             -12.3252
        66        2.0000           -0.4454629             -12.1217
        67        2.0000           -0.4231333             -11.5140 (HOMO)
        68                         -0.3621722              -9.8552 (LUMO)
        69                         -0.3036628              -8.2631
        70                         -0.2874180              -7.8210
        71                         -0.2835374              -7.7154
        72                         -0.2761732              -7.5151
        73                         -0.1863723              -5.0714
        74                         -0.1610826              -4.3833
        75                         -0.1461702              -3.9775
        76                         -0.1415199              -3.8510
        77                         -0.1409422              -3.8352
        78                         -0.1382108              -3.7609
       ...                                ...                  ...
       144                          0.6742638              18.3477
      -------------------------------------------------------------
                  HL-Gap            0.0609611 Eh            1.6588 eV

Wiberg/Mayer (AO) data.
largest (>0.10) Wiberg bond orders for each atom

     #   Z sym  total        # sym  WBO       # sym  WBO       # sym  WBO
 ---------------------------------------------------------------------------
     1   6 C    3.844 --    27 H    0.983    28 H    0.977    26 H    0.977
                             2 O    0.868
     2   8 O    2.214 --     3 C    1.098     1 C    0.868
     3   6 C    3.909 --     4 C    1.437     2 O    1.098    24 C    1.069
     4   6 C    3.962 --     3 C    1.437    16 N    1.187     5 C    1.092
     5   6 C    3.877 --     7 N    1.474     6 O    1.189     4 C    1.092
     6   8 O    2.155 --     5 C    1.189    29 H    0.762     7 N    0.103
     7   7 N    3.490 --     5 C    1.474     8 C    0.915    30 H    0.871
                             6 O    0.103
     8   6 C    3.914 --     9 C    0.986    31 H    0.970    32 H    0.966
                             7 N    0.915
     9   6 C    3.981 --    15 C    1.422    10 C    1.414     8 C    0.986
    10   6 C    3.993 --    11 C    1.450     9 C    1.414    33 H    0.971
                            14 C    0.111
    11   6 C    3.991 --    10 C    1.450    12 C    1.395    34 H    0.968
                            15 C    0.109
    12   6 C    3.864 --    14 C    1.401    11 C    1.395    13 F    0.935
    13   9 F    1.066 --    12 C    0.935
    14   6 C    3.990 --    15 C    1.441    12 C    1.401    35 H    0.968
                            10 C    0.111
    15   6 C    3.992 --    14 C    1.441     9 C    1.422    36 H    0.969
                            11 C    0.109
    16   7 N    3.046 --    17 C    1.533     4 C    1.187
    17   6 C    3.912 --    16 N    1.533    22 N    1.197    18 C    0.977
    18   6 C    3.964 --    21 N    0.988    20 C    0.987    19 C    0.977
                            17 C    0.977
    19   6 C    3.991 --    37 H    0.985    38 H    0.981    39 H    0.979
                            18 C    0.977
    20   6 C    3.993 --    18 C    0.987    41 H    0.985    40 H    0.984
                            42 H    0.982
    21   7 N    2.977 --    18 C    0.988    43 H    0.939    44 H    0.935
    22   7 N    3.525 --    17 C    1.197    24 C    1.122    23 C    0.920
                            25 O    0.137
    23   6 C    3.910 --    46 H    0.977    47 H    0.975    45 H    0.973
                            22 N    0.920
    24   6 C    3.918 --    25 O    1.579    22 N    1.122     3 C    1.069
    25   8 O    1.922 --    24 C    1.579    22 N    0.137
    26   1 H    1.010 --     1 C    0.977
    27   1 H    1.008 --     1 C    0.983
    28   1 H    1.010 --     1 C    0.977
    29   1 H    0.824 --     6 O    0.762
    30   1 H    0.947 --     7 N    0.871
    31   1 H    0.996 --     8 C    0.970
    32   1 H    1.001 --     8 C    0.966
    33   1 H    1.002 --    10 C    0.971
    34   1 H    0.996 --    11 C    0.968
    35   1 H    0.996 --    14 C    0.968
    36   1 H    0.997 --    15 C    0.969
    37   1 H    1.002 --    19 C    0.985
    38   1 H    0.998 --    19 C    0.981
    39   1 H    1.003 --    19 C    0.979
    40   1 H    1.001 --    20 C    0.984
    41   1 H    1.005 --    20 C    0.985
    42   1 H    1.011 --    20 C    0.982
    43   1 H    0.954 --    21 N    0.939
    44   1 H    0.950 --    21 N    0.935
    45   1 H    1.011 --    23 C    0.973
    46   1 H    1.022 --    23 C    0.977
    47   1 H    1.006 --    23 C    0.975
 ---------------------------------------------------------------------------

           -------------------------------------------------
          | TOTAL ENERGY              -79.536837927795 Eh   |
          | GRADIENT NORM               0.000246085419 Eh/α |
          | HOMO-LUMO GAP               1.658834873011 eV   |
           -------------------------------------------------

 * finished run on 2023/06/20 at 15:19:56.659
