   * xtb version 6.5.1 (579679a) compiled by 'ehlert@majestix' on 2022-07-11
          program call               : /lustre/hpc/kemi/ree/PhD/git/ReactivityQM/dep/xtb-6.5.1/bin/xtb --gfn 1 /lustre/hpc/kemi/ree/PhD/git/ReactivityQM/calculations/R01/reac02prodE08/conf08/R01_reac02prodE08_conf08_gfn1.xyz --opt --vfukui --chrg -1 --uhf 0 --alpb DMSO

   ID    Z sym.   atoms
    1    6 C      1, 3, 5, 7-10, 13, 15, 16
    2    8 O      2, 4, 14, 17
    3    7 N      6, 11, 12
    4    1 H      18-33

      * Solvation model:               ALPB
        Solvent                        DMSO
        Solvent mass                       7.8130E+01 g/mol
          :  Hamiltonian                  GFN1-xTB          :
 * total energy  :   -58.5549238 Eh     change       -0.9407586E-11 Eh
 * total energy  :   -58.5644108 Eh     change       -0.9486961E-02 Eh
 * total energy  :   -58.5671002 Eh     change       -0.2689426E-02 Eh
 * total energy  :   -58.5673715 Eh     change       -0.2712907E-03 Eh
 * total energy  :   -58.5675581 Eh     change       -0.1866551E-03 Eh
 * total energy  :   -58.5676133 Eh     change       -0.5515442E-04 Eh
 * total energy  :   -58.5676726 Eh     change       -0.5932394E-04 Eh
 * total energy  :   -58.5677111 Eh     change       -0.3851964E-04 Eh
 * total energy  :   -58.5677435 Eh     change       -0.3239538E-04 Eh
 * total energy  :   -58.5677767 Eh     change       -0.3311316E-04 Eh
 * total energy  :   -58.5680566 Eh     change       -0.3418109E-04 Eh
 * total energy  :   -58.5680881 Eh     change       -0.3144821E-04 Eh
 * total energy  :   -58.5681143 Eh     change       -0.2623080E-04 Eh
 * total energy  :   -58.5681287 Eh     change       -0.1435830E-04 Eh
 * total energy  :   -58.5681435 Eh     change       -0.1487415E-04 Eh
 * total energy  :   -58.5681559 Eh     change       -0.1238541E-04 Eh
 * total energy  :   -58.5681608 Eh     change       -0.4871719E-05 Eh
 * total energy  :   -58.5681706 Eh     change       -0.9781358E-05 Eh
 * total energy  :   -58.5681740 Eh     change       -0.3444687E-05 Eh
   *** GEOMETRY OPTIMIZATION CONVERGED AFTER 26 ITERATIONS ***

 final structure:
================
33
 xtb: 6.5.1 (579679a)
C            3.55020536022148        2.05058208971764       -1.74167137573911
O            2.33199697527125        1.52723419003731       -1.24683846163020
C            2.34036804254682        0.15847764795196       -0.98748533180582
O            3.38521839338262       -0.49349677217880       -1.21470104698872
C            1.14022754036791       -0.35731443957205       -0.49461685952703
N            0.07429391040607        0.47251439620127       -0.26094839315299
C           -1.05274906119561        0.02053114255123        0.14276196046837
C           -2.20048273265813        0.95914755118782        0.46716220500513
C           -2.58490590287988        0.83238592288729        1.94980343457246
C           -3.42088435810989        0.67479108578415       -0.42008493874689
N           -1.77490041980121        2.33603527515462        0.22392562255073
N           -1.28284205298980       -1.36829047531232        0.29624303551125
C           -0.36464577771720       -2.32063869865781        0.00478445984740
O           -0.69213823713773       -3.50149465119760       -0.08059155148139
C            1.08647650636141       -1.83186001369991       -0.11366653835026
C            1.74352588601507       -2.06363573425144        1.27268186925432
O            1.74173542306472       -2.64673702695129       -1.07569334668819
H            3.83345654118815        1.57323879677671       -2.68782317575631
H            4.36556871911705        1.90686432672858       -1.02207270891064
H            3.39903440946536        3.11850140754303       -1.90694213508658
H           -3.36083598674336        1.55791035124383        2.19279198016443
H           -1.71599022593655        1.02478088071824        2.57928053924817
H           -2.95779376960466       -0.16820187568524        2.16414208692560
H           -3.83058080115583       -0.31170953740423       -0.20808048223302
H           -3.14086301814956        0.71912466911509       -1.47256970372461
H           -4.19328631326178        1.42006614529412       -0.23109274790030
H           -0.89909414476763        2.49432606276847        0.71445155259561
H           -1.58315291242273        2.44791678291225       -0.76620159836358
H           -2.23048816396316       -1.68684191226137        0.41773086806296
H            2.78669325376363       -1.75395373069379        1.22974927423615
H            1.69494701951198       -3.12037403242431        1.53484938060926
H            1.22678333007844       -1.47830799024750        2.03161390193138
H            2.58510156773253       -2.19157283403123       -1.29089077489802

          :  Hamiltonian                  GFN1-xTB          :
         :: total energy             -58.568174015898 Eh    ::
         :: gradient norm              0.000784456508 Eh/a0 ::
         :: HOMO-LUMO gap              2.304804804412 eV    ::
         :: SCC energy               -59.107580475195 Eh    ::
         :: -> Gsolv                  -0.098803798022 Eh    ::
         :: repulsion energy           0.558487018913 Eh    ::

    * Orbital Energies and Occupations

         #    Occupation            Energy/Eh            Energy/eV
      -------------------------------------------------------------
         1        2.0000           -0.7808171             -21.2471
       ...           ...                  ...                  ...
        36        2.0000           -0.4781411             -13.0109
        37        2.0000           -0.4776209             -12.9967
        38        2.0000           -0.4710586             -12.8182
        39        2.0000           -0.4620485             -12.5730
        40        2.0000           -0.4587813             -12.4841
        41        2.0000           -0.4411980             -12.0056
        42        2.0000           -0.4366217             -11.8811
        43        2.0000           -0.4225416             -11.4979
        44        2.0000           -0.4186380             -11.3917
        45        2.0000           -0.4026028             -10.9554
        46        2.0000           -0.3902098             -10.6181
        47        2.0000           -0.3808355             -10.3631
        48        2.0000           -0.3246274              -8.8336 (HOMO)
        49                         -0.2399274              -6.5288 (LUMO)
        50                         -0.1960287              -5.3342
        51                         -0.1378704              -3.7516
        52                         -0.1197225              -3.2578
        53                         -0.1105962              -3.0095
        54                         -0.1102371              -2.9997
        55                         -0.0956469              -2.6027
        56                         -0.0906786              -2.4675
        57                         -0.0739722              -2.0129
        58                         -0.0521779              -1.4198
        59                         -0.0490861              -1.3357
       ...                                ...                  ...
       100                          0.6801283              18.5072
      -------------------------------------------------------------
                  HL-Gap            0.0847000 Eh            2.3048 eV

Wiberg/Mayer (AO) data.
largest (>0.10) Wiberg bond orders for each atom

     #   Z sym  total        # sym  WBO       # sym  WBO       # sym  WBO
 ---------------------------------------------------------------------------
     1   6 C    3.913 --    20 H    0.987    19 H    0.981    18 H    0.981
                             2 O    0.943
     2   8 O    2.086 --     3 C    0.963     1 C    0.943
     3   6 C    3.868 --     4 O    1.423     5 C    1.346     2 O    0.963
     4   8 O    1.805 --     3 C    1.423     5 C    0.113
     5   6 C    3.858 --     3 C    1.346     6 N    1.183    15 C    0.963
                             4 O    0.113
     6   7 N    3.058 --     7 C    1.641     5 C    1.183
     7   6 C    3.908 --     6 N    1.641    12 N    0.989     8 C    0.974
     8   6 C    3.969 --    10 C    0.990     9 C    0.987    11 N    0.987
                             7 C    0.974
     9   6 C    3.993 --     8 C    0.987    23 H    0.986    21 H    0.986
                            22 H    0.986
    10   6 C    3.993 --     8 C    0.990    25 H    0.986    26 H    0.986
                            24 H    0.984
    11   7 N    2.951 --     8 C    0.987    28 H    0.949    27 H    0.946
    12   7 N    3.379 --    13 C    1.224     7 C    0.989    29 H    0.905
                            14 O    0.140
    13   6 C    3.883 --    14 O    1.584    12 N    1.224    15 C    0.940
    14   8 O    1.858 --    13 C    1.584    12 N    0.140
    15   6 C    3.917 --     5 C    0.963    16 C    0.957    17 O    0.953
                            13 C    0.940
    16   6 C    3.996 --    32 H    0.988    31 H    0.987    30 H    0.984
                            15 C    0.957
    17   8 O    1.880 --    15 C    0.953    33 H    0.826
    18   1 H    1.019 --     1 C    0.981
    19   1 H    1.018 --     1 C    0.981
    20   1 H    1.019 --     1 C    0.987
    21   1 H    1.008 --     9 C    0.986
    22   1 H    1.006 --     9 C    0.986
    23   1 H    1.005 --     9 C    0.986
    24   1 H    1.004 --    10 C    0.984
    25   1 H    1.005 --    10 C    0.986
    26   1 H    1.007 --    10 C    0.986
    27   1 H    0.980 --    11 N    0.946
    28   1 H    0.974 --    11 N    0.949
    29   1 H    0.955 --    12 N    0.905
    30   1 H    1.013 --    16 C    0.984
    31   1 H    1.010 --    16 C    0.987
    32   1 H    1.010 --    16 C    0.988
    33   1 H    0.901 --    17 O    0.826
 ---------------------------------------------------------------------------

           -------------------------------------------------
          | TOTAL ENERGY              -58.568174015898 Eh   |
          | GRADIENT NORM               0.000784456508 Eh/α |
          | HOMO-LUMO GAP               2.304804804412 eV   |
           -------------------------------------------------

 * finished run on 2023/06/20 at 15:02:11.796
