   * xtb version 6.5.1 (579679a) compiled by 'ehlert@majestix' on 2022-07-11
          program call               : /lustre/hpc/kemi/ree/PhD/git/ReactivityQM/dep/xtb-6.5.1/bin/xtb --gfn 1 /lustre/hpc/kemi/ree/PhD/git/ReactivityQM/calculations/RaltegravirCLI/reac02prodE11/conf01/RaltegravirCLI_reac02prodE11_conf01_gfn1.xyz --opt --vfukui --chrg -1 --uhf 0 --alpb DMSO

   ID    Z sym.   atoms
    1    6 C      1, 3-6, 9, 10, 13-17, 19-21, 23, 24
    2    7 N      2, 7, 8, 12
    3    8 O      11, 22, 25
    4    9 F      18
    5    1 H      26-47

      * Solvation model:               ALPB
        Solvent                        DMSO
        Solvent mass                       7.8130E+01 g/mol
          :  Hamiltonian                  GFN1-xTB          :
 * total energy  :   -80.1891634 Eh     change       -0.1561773E-10 Eh
 * total energy  :   -80.1987429 Eh     change       -0.9579487E-02 Eh
 * total energy  :   -80.2017879 Eh     change       -0.3044960E-02 Eh
 * total energy  :   -80.2027538 Eh     change       -0.9659229E-03 Eh
 * total energy  :   -80.2041097 Eh     change       -0.1355875E-02 Eh
 * total energy  :   -80.2062380 Eh     change       -0.2128383E-02 Eh
 * total energy  :   -80.2031305 Eh     change        0.3107496E-02 Eh
 * total energy  :   -80.2098191 Eh     change       -0.6688609E-02 Eh
 * total energy  :   -80.2121371 Eh     change       -0.2317992E-02 Eh
 * total energy  :   -80.2163386 Eh     change       -0.4201483E-02 Eh
 * total energy  :   -80.2327704 Eh     change       -0.1317084E-04 Eh
 * total energy  :   -80.2327803 Eh     change       -0.9942782E-05 Eh
 * total energy  :   -80.2327910 Eh     change       -0.1069537E-04 Eh
 * total energy  :   -80.2328003 Eh     change       -0.9341628E-05 Eh
 * total energy  :   -80.2328079 Eh     change       -0.7579585E-05 Eh
 * total energy  :   -80.2328209 Eh     change       -0.1296998E-04 Eh
 * total energy  :   -80.2328318 Eh     change       -0.1090591E-04 Eh
 * total energy  :   -80.2328377 Eh     change       -0.5910573E-05 Eh
 * total energy  :   -80.2328417 Eh     change       -0.3995239E-05 Eh
   *** GEOMETRY OPTIMIZATION CONVERGED AFTER 69 ITERATIONS ***

 final structure:
================
47
 xtb: 6.5.1 (579679a)
C           -3.79679248000117        1.69411429395581       -1.29960450575495
N           -2.53751891673620        1.03766710489871       -0.96100281227530
C           -2.47983634713295       -0.19317592481217       -0.29815837778911
C           -3.72635958600013       -1.04607077088116       -0.05995422762503
C           -3.41315223741805       -2.09095215571309        1.02669032598939
C           -4.10238193348203       -1.77536498228028       -1.35947618270037
N           -4.86483147113535       -0.23165977380033        0.37283495829796
N           -1.36385095381755       -0.73714032816532        0.02087365234868
C           -0.13067195363795       -0.12587896898744       -0.29889843393597
C            1.02304967555180       -1.00209770375695       -0.20191606200241
O            0.97454255404541       -2.18671733199516        0.16510573285948
N            2.23548807020477       -0.42623094154739       -0.52232233382433
C            3.42431086578630       -1.23583561712322       -0.67010095894564
C            4.57513754613244       -0.72364192807636        0.16915510885771
C            4.36030167735521        0.14599886211184        1.23543271424648
C            5.42035034344111        0.59744371960234        2.00923934299142
C            6.69361732251849        0.15976947174171        1.69524242872220
F            7.72913199336608        0.59105420491478        2.44146588958836
C            6.94692878041425       -0.70322970400356        0.64457332136375
C            5.87372020955812       -1.14175766431351       -0.11855237609602
C           -0.10416219325364        1.20116521557396       -0.69414971514028
O            0.86700085521675        1.89117996099260       -1.10933265025718
C           -1.45726388278533        1.95685096801242       -0.59461343853525
C           -1.64315531465444        2.50040199106720        0.84122857426131
O           -1.40647955192164        3.03054384588029       -1.49858871214255
H           -4.30284336736669        2.10266254576078       -0.41893418197293
H           -3.58624419791104        2.50804062286569       -1.99659684026871
H           -4.46580052059919        0.98893977100730       -1.78855487867826
H           -3.10493736296881       -1.59244104524359        1.94556381998716
H           -2.60671612588807       -2.74846817885872        0.70094477633584
H           -4.30085496220850       -2.68796539820417        1.23073506111355
H           -4.93643325718751       -2.45364720157554       -1.18022475874235
H           -4.39546104573186       -1.06870760922017       -2.13478841119707
H           -3.25118673559592       -2.35472431064158       -1.71828075402280
H           -4.72326194743241        0.06480305166156        1.33068831117100
H           -5.70121728995252       -0.79766812307978        0.35825623674281
H            2.23545857136111        0.47194705273053       -0.99083761223989
H            3.73278845165736       -1.27440225039163       -1.72311577171420
H            3.18220188506740       -2.26087136235260       -0.35647047618716
H            3.35263713424334        0.47906247040707        1.45929235376201
H            5.26586318440603        1.27454829525715        2.83931782824145
H            7.95841277240185       -1.02126650702784        0.43016059577406
H            6.05272054497443       -1.81675471836833       -0.94787549917233
H           -0.45906902883483        3.09587479871851       -1.75538165105670
H           -1.72985572096385        1.67601056500537        1.54685160271899
H           -2.53581568074554        3.12061029022671        0.89805370229989
H           -0.77750837232635        3.10797939802631        1.09916628460231

          :  Hamiltonian                  GFN1-xTB          :
         :: total energy             -80.232841699092 Eh    ::
         :: gradient norm              0.000738055983 Eh/a0 ::
         :: HOMO-LUMO gap              1.813236177457 eV    ::
         :: SCC energy               -81.088067082467 Eh    ::
         :: -> Gsolv                  -0.103814222146 Eh    ::
         :: repulsion energy           0.885722687514 Eh    ::

    * Orbital Energies and Occupations

         #    Occupation            Energy/Eh            Energy/eV
      -------------------------------------------------------------
         1        2.0000           -0.8548727             -23.2623
       ...           ...                  ...                  ...
        56        2.0000           -0.4637895             -12.6204
        57        2.0000           -0.4566791             -12.4269
        58        2.0000           -0.4432414             -12.0612
        59        2.0000           -0.4409407             -11.9986
        60        2.0000           -0.4391214             -11.9491
        61        2.0000           -0.4228256             -11.5057
        62        2.0000           -0.4077036             -11.0942
        63        2.0000           -0.3976775             -10.8214
        64        2.0000           -0.3933706             -10.7042
        65        2.0000           -0.3921106             -10.6699
        66        2.0000           -0.3759608             -10.2304
        67        2.0000           -0.3656180              -9.9490
        68        2.0000           -0.3295586              -8.9677 (HOMO)
        69                         -0.2629234              -7.1545 (LUMO)
        70                         -0.2528154              -6.8795
        71                         -0.2237913              -6.0897
        72                         -0.2050168              -5.5788
        73                         -0.1330313              -3.6200
        74                         -0.1139434              -3.1006
        75                         -0.1086430              -2.9563
        76                         -0.1064825              -2.8975
        77                         -0.1046121              -2.8466
        78                         -0.1029264              -2.8008
        79                         -0.0955735              -2.6007
       ...                                ...                  ...
       144                          0.7077388              19.2586
      -------------------------------------------------------------
                  HL-Gap            0.0666352 Eh            1.8132 eV

Wiberg/Mayer (AO) data.
largest (>0.10) Wiberg bond orders for each atom

     #   Z sym  total        # sym  WBO       # sym  WBO       # sym  WBO
 ---------------------------------------------------------------------------
     1   6 C    3.965 --    27 H    0.983    28 H    0.982    26 H    0.980
                             2 N    0.960
     2   7 N    3.241 --     3 C    1.089     1 C    0.960    23 C    0.929
                             8 N    0.139
     3   6 C    3.941 --     8 N    1.672     2 N    1.089     4 C    0.971
     4   6 C    3.963 --     5 C    0.990     6 C    0.988     7 N    0.976
                             3 C    0.971
     5   6 C    3.996 --     4 C    0.990    31 H    0.987    29 H    0.985
                            30 H    0.982
     6   6 C    3.995 --     4 C    0.988    34 H    0.986    32 H    0.985
                            33 H    0.981
     7   7 N    2.979 --     4 C    0.976    35 H    0.948    36 H    0.948
     8   7 N    3.015 --     3 C    1.672     9 C    1.058     2 N    0.139
     9   6 C    3.900 --    21 C    1.401    10 C    1.131     8 N    1.058
                            22 O    0.127
    10   6 C    3.900 --    11 O    1.504    12 N    1.147     9 C    1.131
    11   8 O    1.804 --    10 C    1.504    12 N    0.122
    12   7 N    3.251 --    10 C    1.147    13 C    0.974    37 H    0.888
                            11 O    0.122
    13   6 C    3.969 --    14 C    1.001    12 N    0.974    38 H    0.969
                            39 H    0.954
    14   6 C    3.987 --    15 C    1.416    20 C    1.412    13 C    1.001
    15   6 C    3.994 --    16 C    1.441    14 C    1.416    40 H    0.969
                            19 C    0.110
    16   6 C    3.992 --    15 C    1.441    17 C    1.404    41 H    0.970
                            20 C    0.111
    17   6 C    3.857 --    16 C    1.404    19 C    1.400    18 F    0.916
    18   9 F    1.041 --    17 C    0.916
    19   6 C    3.992 --    20 C    1.445    17 C    1.400    42 H    0.970
                            15 C    0.110
    20   6 C    3.994 --    19 C    1.445    14 C    1.412    43 H    0.972
                            16 C    0.111
    21   6 C    3.935 --    22 O    1.433     9 C    1.401    23 C    0.914
    22   8 O    1.848 --    21 C    1.433     9 C    0.127
    23   6 C    3.883 --    24 C    0.967    25 O    0.965     2 N    0.929
                            21 C    0.914
    24   6 C    3.995 --    45 H    0.987    47 H    0.986    46 H    0.985
                            23 C    0.967
    25   8 O    1.898 --    23 C    0.965    44 H    0.819
    26   1 H    1.023 --     1 C    0.980
    27   1 H    1.021 --     1 C    0.983
    28   1 H    1.029 --     1 C    0.982
    29   1 H    1.014 --     5 C    0.985
    30   1 H    1.024 --     5 C    0.982
    31   1 H    1.007 --     5 C    0.987
    32   1 H    1.003 --     6 C    0.985
    33   1 H    1.009 --     6 C    0.981
    34   1 H    1.009 --     6 C    0.986
    35   1 H    0.967 --     7 N    0.948
    36   1 H    0.963 --     7 N    0.948
    37   1 H    0.965 --    12 N    0.888
    38   1 H    1.007 --    13 C    0.969
    39   1 H    1.022 --    13 C    0.954
    40   1 H    1.012 --    15 C    0.969
    41   1 H    1.000 --    16 C    0.970
    42   1 H    0.999 --    19 C    0.970
    43   1 H    1.000 --    20 C    0.972
    44   1 H    0.890 --    25 O    0.819
    45   1 H    1.008 --    24 C    0.987
    46   1 H    1.007 --    24 C    0.985
    47   1 H    1.009 --    24 C    0.986
 ---------------------------------------------------------------------------

           -------------------------------------------------
          | TOTAL ENERGY              -80.232841699092 Eh   |
          | GRADIENT NORM               0.000738055983 Eh/α |
          | HOMO-LUMO GAP               1.813236177457 eV   |
           -------------------------------------------------

 * finished run on 2023/06/20 at 15:13:47.718
