   * xtb version 6.5.1 (579679a) compiled by 'ehlert@majestix' on 2022-07-11
          program call               : /lustre/hpc/kemi/ree/PhD/git/ReactivityQM/dep/xtb-6.5.1/bin/xtb --gfn 1 /lustre/hpc/kemi/ree/PhD/git/ReactivityQM/calculations/RaltegravirCLI/reac02prodN08/conf11/RaltegravirCLI_reac02prodN08_conf11_gfn1.xyz --opt --vfukui --chrg 1 --uhf 0 --alpb DMSO

   ID    Z sym.   atoms
    1    6 C      1, 3-6, 9, 10, 13-18, 20-22, 24
    2    7 N      2, 7, 8, 12
    3    8 O      11, 23, 25
    4    9 F      19
    5    1 H      26-47

      * Solvation model:               ALPB
        Solvent                        DMSO
        Solvent mass                       7.8130E+01 g/mol
          :  Hamiltonian                  GFN1-xTB          :
 * total energy  :   -79.4694976 Eh     change       -0.1834920E-08 Eh
 * total energy  :   -79.4786099 Eh     change       -0.9112262E-02 Eh
 * total energy  :   -79.4812916 Eh     change       -0.2681706E-02 Eh
 * total energy  :   -79.4817250 Eh     change       -0.4334235E-03 Eh
 * total energy  :   -79.4822564 Eh     change       -0.5314200E-03 Eh
 * total energy  :   -79.4826048 Eh     change       -0.3483802E-03 Eh
 * total energy  :   -79.4830092 Eh     change       -0.4044539E-03 Eh
 * total energy  :   -79.4833683 Eh     change       -0.3591049E-03 Eh
 * total energy  :   -79.4836007 Eh     change       -0.2323475E-03 Eh
 * total energy  :   -79.4837202 Eh     change       -0.1194844E-03 Eh
 * total energy  :   -79.4838729 Eh     change       -0.2660896E-04 Eh
 * total energy  :   -79.4838984 Eh     change       -0.2544175E-04 Eh
 * total energy  :   -79.4839224 Eh     change       -0.2400083E-04 Eh
 * total energy  :   -79.4839423 Eh     change       -0.1991223E-04 Eh
 * total energy  :   -79.4839567 Eh     change       -0.1441366E-04 Eh
 * total energy  :   -79.4839641 Eh     change       -0.7395758E-05 Eh
 * total energy  :   -79.4839721 Eh     change       -0.7990773E-05 Eh
 * total energy  :   -79.4839775 Eh     change       -0.5378773E-05 Eh
 * total energy  :   -79.4839820 Eh     change       -0.4510946E-05 Eh
   *** GEOMETRY OPTIMIZATION CONVERGED AFTER 22 ITERATIONS ***

 final structure:
================
47
 xtb: 6.5.1 (579679a)
C           -4.22364626495161       -0.67876683014996       -2.16690371795327
N           -2.98238781392489       -0.49999227301351       -1.40592552611511
C           -2.95096583317753       -0.11448036544630       -0.08945362918568
C           -4.21620344839678        0.12379734901839        0.72444846183262
C           -4.73504933172698       -1.23419390770014        1.22249645859811
C           -3.87681439267513        1.01316010034106        1.93339883009485
N           -5.24070065300791        0.76975235389102       -0.08432298978169
N           -1.83496726910245        0.01370477997227        0.56010398319541
C           -0.63060061386264       -0.22895371721017       -0.03124075146554
C            0.54738600703097       -0.02895138738867        0.85501258622852
O            0.52061107075752        0.63492396697870        1.87268116530612
N            1.69064216228332       -0.68603353419590        0.45617865641042
C            2.89476494707525       -0.52909106434591        1.17290780180922
C            3.85003660590814        0.60345602743446        0.47648869433545
C            2.99419804794926        1.87526376116810        0.33211193085022
C            4.23993742421810        0.02225370822271       -0.81308708674218
C            5.48873828312275       -0.47793875043784       -1.04121713146760
C            6.45346869168801       -0.35522726993785       -0.03368023202793
F            7.65064091528642       -0.83390515105696       -0.25417409036991
C            6.20342850206965        0.27754806750509        1.19023836623971
C            4.95544928389841        0.77744164283465        1.42544490921211
C           -0.58793523457223       -0.57580472839866       -1.35071154457645
O            0.54969879245278       -0.79456701767341       -2.03884252277468
C           -1.81568884898334       -0.71469970379185       -2.11440833589825
O           -1.79716178954271       -1.02120191454168       -3.30275729380918
H           -4.61005554829875        0.29303691622569       -2.46958856509122
H           -3.99498309683502       -1.27570749333543       -3.04937304567364
H           -4.96463165784424       -1.18734143265701       -1.55853894899824
H           -5.59164505494505       -1.07901590386858        1.87692814726788
H           -5.04255227146650       -1.86502537240566        0.39040466729633
H           -3.95196217253106       -1.74623860603027        1.78045993691950
H           -4.78690927315446        1.22035677588211        2.49340048264840
H           -3.44544234620257        1.95418372099572        1.59571492798951
H           -3.16162110525965        0.51312032584979        2.58508486342273
H           -6.12042425386482        0.75713018647180        0.41271925675574
H           -4.98769081524042        1.73462696688829       -0.25060664231891
H            1.70521723585653       -1.21287259683117       -0.40222522533039
H            2.67715941343928       -0.17127445460325        2.18082368429967
H            3.46131559583895       -1.45724656061361        1.19325089186625
H            2.18069241426215        1.68698496857246       -0.36526967195917
H            3.61660335424838        2.68009088346639       -0.05407618316615
H            2.58438101836679        2.16429656680545        1.29848905449844
H            3.47304178958299       -0.04800482065167       -1.57580741069308
H            5.75458297575756       -0.94531476994456       -1.98127107526189
H            7.00530652710598        0.37951776174741        1.91111263913780
H            4.73992181290568        1.29029370391133        2.35610208935506
H            0.31281721844962       -1.02308890795453       -2.96072086491072

          :  Hamiltonian                  GFN1-xTB          :
         :: total energy             -79.483981983494 Eh    ::
         :: gradient norm              0.000362520341 Eh/a0 ::
         :: HOMO-LUMO gap              0.225535030672 eV    ::
         :: SCC energy               -80.368367681591 Eh    ::
         :: -> Gsolv                  -0.103227935773 Eh    ::
         :: repulsion energy           0.915507238885 Eh    ::

    * Orbital Energies and Occupations

         #    Occupation            Energy/Eh            Energy/eV
      -------------------------------------------------------------
         1        2.0000           -0.9365873             -25.4858
       ...           ...                  ...                  ...
        55        2.0000           -0.5186296             -14.1126
        56        2.0000           -0.5155716             -14.0294
        57        2.0000           -0.5136905             -13.9782
        58        2.0000           -0.5071039             -13.7990
        59        2.0000           -0.5001701             -13.6103
        60        2.0000           -0.4929448             -13.4137
        61        2.0000           -0.4884837             -13.2923
        62        2.0000           -0.4776676             -12.9980
        63        2.0000           -0.4725369             -12.8584
        64        2.0000           -0.4628088             -12.5937
        65        2.0000           -0.4494680             -12.2306
        66        2.0000           -0.4335227             -11.7968
        67        1.9748           -0.4191933             -11.4068 (HOMO)
        68        0.0252           -0.4109050             -11.1813 (LUMO)
        69                         -0.3294772              -8.9655
        70                         -0.3277959              -8.9198
        71                         -0.2860146              -7.7829
        72                         -0.2522236              -6.8634
        73                         -0.2429128              -6.6100
        74                         -0.1664176              -4.5285
        75                         -0.1531040              -4.1662
        76                         -0.1476848              -4.0187
        77                         -0.1380478              -3.7565
        78                         -0.1366395              -3.7181
       ...                                ...                  ...
       144                          0.7056786              19.2025
      -------------------------------------------------------------
                  HL-Gap            0.0082883 Eh            0.2255 eV

Wiberg/Mayer (AO) data.
largest (>0.10) Wiberg bond orders for each atom

     #   Z sym  total        # sym  WBO       # sym  WBO       # sym  WBO
 ---------------------------------------------------------------------------
     1   6 C    3.916 --    28 H    0.977    27 H    0.976    26 H    0.975
                             2 N    0.923
     2   7 N    3.520 --     3 C    1.178    24 C    1.138     1 C    0.923
                            25 O    0.135
     3   6 C    3.916 --     8 N    1.555     2 N    1.178     4 C    0.977
     4   6 C    3.962 --     7 N    0.986     6 C    0.986     5 C    0.979
                             3 C    0.977
     5   6 C    3.992 --    31 H    0.985    29 H    0.982    30 H    0.980
                             4 C    0.979
     6   6 C    3.989 --     4 C    0.986    32 H    0.986    33 H    0.985
                            34 H    0.982
     7   7 N    2.966 --     4 C    0.986    36 H    0.938    35 H    0.935
     8   7 N    3.028 --     3 C    1.555     9 C    1.200
     9   6 C    3.964 --    22 C    1.493     8 N    1.200    10 C    1.008
    10   6 C    3.886 --    11 O    1.634    12 N    1.147     9 C    1.008
    11   8 O    1.923 --    10 C    1.634    12 N    0.132
    12   7 N    3.373 --    10 C    1.147    13 C    1.051    37 H    0.879
                            11 O    0.132
    13   6 C    3.927 --    12 N    1.051    39 H    0.975    38 H    0.963
                            14 C    0.752
    14   6 C    3.980 --    16 C    1.104    21 C    1.104    15 C    0.943
                            13 C    0.752
    15   6 C    3.971 --    41 H    0.981    42 H    0.980    40 H    0.980
                            14 C    0.943
    16   6 C    3.942 --    17 C    1.591    14 C    1.104    43 H    0.963
    17   6 C    3.984 --    16 C    1.591    18 C    1.299    44 H    0.957
    18   6 C    3.818 --    20 C    1.299    17 C    1.299    19 F    1.023
    19   9 F    1.174 --    18 C    1.023
    20   6 C    3.983 --    21 C    1.591    18 C    1.299    45 H    0.957
    21   6 C    3.938 --    20 C    1.591    14 C    1.104    46 H    0.964
    22   6 C    3.909 --     9 C    1.493    24 C    1.082    23 O    1.078
    23   8 O    2.068 --    22 C    1.078    47 H    0.793
    24   6 C    3.918 --    25 O    1.549     2 N    1.138    22 C    1.082
    25   8 O    1.895 --    24 C    1.549     2 N    0.135
    26   1 H    1.015 --     1 C    0.975
    27   1 H    1.007 --     1 C    0.976
    28   1 H    1.020 --     1 C    0.977
    29   1 H    0.999 --     5 C    0.982
    30   1 H    1.004 --     5 C    0.980
    31   1 H    1.003 --     5 C    0.985
    32   1 H    1.003 --     6 C    0.986
    33   1 H    1.006 --     6 C    0.985
    34   1 H    1.013 --     6 C    0.982
    35   1 H    0.950 --     7 N    0.935
    36   1 H    0.953 --     7 N    0.938
    37   1 H    0.934 --    12 N    0.879
    38   1 H    1.003 --    13 C    0.963
    39   1 H    0.999 --    13 C    0.975
    40   1 H    0.999 --    15 C    0.980
    41   1 H    0.997 --    15 C    0.981
    42   1 H    1.001 --    15 C    0.980
    43   1 H    0.994 --    16 C    0.963
    44   1 H    0.986 --    17 C    0.957
    45   1 H    0.986 --    20 C    0.957
    46   1 H    0.990 --    21 C    0.964
    47   1 H    0.837 --    23 O    0.793
 ---------------------------------------------------------------------------

           -------------------------------------------------
          | TOTAL ENERGY              -79.483981983494 Eh   |
          | GRADIENT NORM               0.000362520341 Eh/α |
          | HOMO-LUMO GAP               0.225535030672 eV   |
           -------------------------------------------------

 * finished run on 2023/06/20 at 15:27:03.344
