   * xtb version 6.5.1 (579679a) compiled by 'ehlert@majestix' on 2022-07-11
          program call               : /lustre/hpc/kemi/ree/PhD/git/ReactivityQM/dep/xtb-6.5.1/bin/xtb --gfn 1 /lustre/hpc/kemi/ree/PhD/git/ReactivityQM/calculations/R02/reac01prodE04/conf07/R02_reac01prodE04_conf07_gfn1.xyz --opt --vfukui --chrg -1 --uhf 0 --alpb DMSO

   ID    Z sym.   atoms
    1    6 C      1, 3, 5, 6, 8-11, 13, 15, 18, 19, 22, 24
    2    8 O      2, 4, 14, 20, 23, 25
    3    7 N      7, 12, 16, 17, 21
    4    1 H      26-43

      * Solvation model:               ALPB
        Solvent                        DMSO
        Solvent mass                       7.8130E+01 g/mol
          :  Hamiltonian                  GFN1-xTB          :
 * total energy  :   -83.8460370 Eh     change       -0.8583356E-10 Eh
 * total energy  :   -83.8613618 Eh     change       -0.1532487E-01 Eh
 * total energy  :   -83.8678562 Eh     change       -0.6494390E-02 Eh
 * total energy  :   -83.8691713 Eh     change       -0.1315099E-02 Eh
 * total energy  :   -83.8698417 Eh     change       -0.6703345E-03 Eh
 * total energy  :   -83.8700687 Eh     change       -0.2270190E-03 Eh
 * total energy  :   -83.8702074 Eh     change       -0.1387099E-03 Eh
 * total energy  :   -83.8703052 Eh     change       -0.9783228E-04 Eh
 * total energy  :   -83.8704033 Eh     change       -0.9804394E-04 Eh
 * total energy  :   -83.8705184 Eh     change       -0.1151488E-03 Eh
 * total energy  :   -83.8737958 Eh     change       -0.1184875E-04 Eh
 * total energy  :   -83.8738156 Eh     change       -0.1982867E-04 Eh
 * total energy  :   -83.8738395 Eh     change       -0.2387687E-04 Eh
 * total energy  :   -83.8738542 Eh     change       -0.1471087E-04 Eh
 * total energy  :   -83.8738594 Eh     change       -0.5160597E-05 Eh
 * total energy  :   -83.8738648 Eh     change       -0.5398447E-05 Eh
 * total energy  :   -83.8738719 Eh     change       -0.7140604E-05 Eh
 * total energy  :   -83.8738780 Eh     change       -0.6148598E-05 Eh
 * total energy  :   -83.8738830 Eh     change       -0.4979852E-05 Eh
   *** GEOMETRY OPTIMIZATION CONVERGED AFTER 67 ITERATIONS ***

 final structure:
================
43
 xtb: 6.5.1 (579679a)
C           -6.09849493385993        0.41605693705719       -0.52190490047223
O           -5.03977019595670       -0.25568038661202        0.15550421388070
C           -3.80235402843924       -0.09660339895181       -0.35847023741057
O           -3.60383434049048        0.56026631072008       -1.36383506542518
C           -2.71179724662629       -0.68832577870302        0.54309765392415
C           -3.16903278588254       -1.98461685486512        1.22076335439096
N           -1.53479038969933       -0.97375961871915       -0.27445030461556
C           -0.67829371337664       -0.04026282543302       -0.45368755203031
C            0.48995706182228       -0.29888466931020       -1.39706458603454
C            0.54266326499154       -1.77813501277839       -1.78920337673716
C            0.33098399689460        0.59223016797046       -2.63568707242519
N            1.71826003781846        0.05879071082978       -0.67133109625926
C            2.95328448218120       -0.02829585447106       -1.19423869890694
O            3.22639593146095       -0.31040333129703       -2.35044925447184
C            3.98682784757978        0.27161460182341       -0.16502801533549
N            3.76625137396991        0.56839777180401        1.08029040853804
N            4.98535612065129        0.74467226413867        1.66537228092356
C            5.87133582062983        0.54082479985547        0.73983983236197
C            7.34393112929785        0.59809133667509        0.87158890707037
O            5.30536352032176        0.23846228269491       -0.43838827197840
N           -0.74002487483568        1.19698570393070        0.10422316160167
C           -1.52515401577867        1.40076110996904        1.31493005971557
O           -1.22706649297607        2.39196304867530        2.03777783790679
C           -2.45491322325991        0.42947435386485        1.52010037575044
O           -3.29499191189851        0.46214961615880        2.66073847955745
H           -5.92306891720887        1.49584535851720       -0.53586940900979
H           -6.18175937165968        0.05598367450870       -1.55157346346353
H           -7.01498696318975        0.19467445037301        0.02230144909817
H           -3.42669758958846       -2.72955712603456        0.46858505425573
H           -4.03608980476483       -1.79909555401132        1.85247216423722
H           -2.35836458461850       -2.37280427802945        1.83651740103606
H            0.68795742562067       -2.39248566119302       -0.90159514298582
H           -0.39941365770898       -2.05993823468601       -2.25777269751102
H            1.35781481843320       -1.95869869444913       -2.48737320885680
H           -0.62757145337792        0.37925184090371       -3.10833647315669
H            1.12817052253694        0.40027720495926       -3.35115630356065
H            0.35827961433262        1.64236943949118       -2.34903173169917
H            1.64413427975722        0.24351562597231        0.31973957674499
H            7.76993035564057       -0.39251129424564        0.71300114511675
H            7.60885607906376        0.94908599614774        1.86549209538212
H            7.76082233520540        1.26809801314015        0.12110794043539
H            0.04955940904643        1.81483856249932        0.01142949301560
H           -3.03766293206065        1.24537739111608        3.16747997739964

          :  Hamiltonian                  GFN1-xTB          :
         :: total energy             -83.873883024291 Eh    ::
         :: gradient norm              0.000594129747 Eh/a0 ::
         :: HOMO-LUMO gap              0.276595544362 eV    ::
         :: SCC energy               -84.639385655078 Eh    ::
         :: -> Gsolv                  -0.117143808661 Eh    ::
         :: repulsion energy           0.792404611440 Eh    ::

    * Orbital Energies and Occupations

         #    Occupation            Energy/Eh            Energy/eV
      -------------------------------------------------------------
         1        2.0000           -0.8570465             -23.3214
       ...           ...                  ...                  ...
        56        2.0000           -0.4760090             -12.9529
        57        2.0000           -0.4691424             -12.7660
        58        2.0000           -0.4640981             -12.6288
        59        2.0000           -0.4593124             -12.4985
        60        2.0000           -0.4534621             -12.3393
        61        2.0000           -0.4523078             -12.3079
        62        2.0000           -0.4428056             -12.0494
        63        2.0000           -0.4378718             -11.9151
        64        2.0000           -0.4340916             -11.8122
        65        2.0000           -0.3989833             -10.8569
        66        2.0000           -0.3897351             -10.6052
        67        2.0000           -0.3784309             -10.2976
        68        1.9905           -0.3115093              -8.4766 (HOMO)
        69        0.0095           -0.3013446              -8.2000 (LUMO)
        70                         -0.2510540              -6.8315
        71                         -0.2357272              -6.4145
        72                         -0.2203940              -5.9972
        73                         -0.1894320              -5.1547
        74                         -0.1397785              -3.8036
        75                         -0.1307771              -3.5586
        76                         -0.1285063              -3.4968
        77                         -0.1102088              -2.9989
        78                         -0.1080256              -2.9395
        79                         -0.0990056              -2.6941
       ...                                ...                  ...
       136                          0.7304941              19.8778
      -------------------------------------------------------------
                  HL-Gap            0.0101647 Eh            0.2766 eV

Wiberg/Mayer (AO) data.
largest (>0.10) Wiberg bond orders for each atom

     #   Z sym  total        # sym  WBO       # sym  WBO       # sym  WBO
 ---------------------------------------------------------------------------
     1   6 C    3.890 --    28 H    0.987    27 H    0.981    26 H    0.981
                             2 O    0.912
     2   8 O    2.174 --     3 C    1.070     1 C    0.912     4 O    0.116
     3   6 C    3.814 --     4 O    1.633     2 O    1.070     5 C    0.921
     4   8 O    1.893 --     3 C    1.633     2 O    0.116
     5   6 C    3.965 --     6 C    0.989     7 N    0.970    24 C    0.954
                             3 C    0.921
     6   6 C    3.996 --     5 C    0.989    29 H    0.988    31 H    0.987
                            30 H    0.985
     7   7 N    2.977 --     8 C    1.679     5 C    0.970    21 N    0.167
     8   6 C    3.951 --     7 N    1.679    21 N    1.190     9 C    0.967
     9   6 C    3.926 --    10 C    0.994    11 C    0.985     8 C    0.967
                            12 N    0.910
    10   6 C    3.994 --     9 C    0.994    32 H    0.986    33 H    0.984
                            34 H    0.984
    11   6 C    3.993 --    35 H    0.986     9 C    0.985    37 H    0.985
                            36 H    0.981
    12   7 N    3.359 --    13 C    1.273     9 C    0.910    38 H    0.897
                            14 O    0.181
    13   6 C    3.917 --    14 O    1.578    12 N    1.273    15 C    0.985
    14   8 O    1.895 --    13 C    1.578    12 N    0.181
    15   6 C    3.867 --    16 N    1.612    20 O    1.061    13 C    0.985
    16   7 N    3.010 --    15 C    1.612    17 N    1.195
    17   7 N    2.981 --    18 C    1.611    16 N    1.195
    18   6 C    3.872 --    17 N    1.611    20 O    1.081    19 C    1.030
    19   6 C    3.987 --    18 C    1.030    40 H    0.983    41 H    0.967
                            39 H    0.962
    20   8 O    2.324 --    18 C    1.081    15 C    1.061
    21   7 N    3.313 --     8 C    1.190    42 H    0.912    22 C    0.903
                             7 N    0.167
    22   6 C    3.915 --    24 C    1.510    23 O    1.367    21 N    0.903
    23   8 O    1.709 --    22 C    1.367    24 C    0.169
    24   6 C    3.788 --    22 C    1.510     5 C    0.954    25 O    0.946
                            23 O    0.169
    25   8 O    1.917 --    24 C    0.946    43 H    0.857
    26   1 H    1.011 --     1 C    0.981
    27   1 H    1.012 --     1 C    0.981
    28   1 H    1.014 --     1 C    0.987
    29   1 H    1.010 --     6 C    0.988
    30   1 H    1.017 --     6 C    0.985
    31   1 H    1.012 --     6 C    0.987
    32   1 H    1.012 --    10 C    0.986
    33   1 H    1.017 --    10 C    0.984
    34   1 H    1.010 --    10 C    0.984
    35   1 H    1.005 --    11 C    0.986
    36   1 H    1.012 --    11 C    0.981
    37   1 H    1.005 --    11 C    0.985
    38   1 H    0.958 --    12 N    0.897
    39   1 H    0.997 --    19 C    0.962
    40   1 H    0.999 --    19 C    0.983
    41   1 H    0.997 --    19 C    0.967
    42   1 H    0.961 --    21 N    0.912
    43   1 H    0.889 --    25 O    0.857
 ---------------------------------------------------------------------------

           -------------------------------------------------
          | TOTAL ENERGY              -83.873883024291 Eh   |
          | GRADIENT NORM               0.000594129747 Eh/α |
          | HOMO-LUMO GAP               0.276595544362 eV   |
           -------------------------------------------------

 * finished run on 2023/06/20 at 14:57:37.470
