   * xtb version 6.5.1 (579679a) compiled by 'ehlert@majestix' on 2022-07-11
          program call               : /lustre/hpc/kemi/ree/PhD/git/ReactivityQM/dep/xtb-6.5.1/bin/xtb --gfn 1 /lustre/hpc/kemi/ree/PhD/git/ReactivityQM/calculations/R02methylcation/reac01prodE12/conf20/R02methylcation_reac01prodE12_conf20_gfn1.xyz --opt --vfukui --chrg -2 --uhf 0 --alpb DMSO

   ID    Z sym.   atoms
    1    6 C      1, 3, 5, 6, 8, 9, 12-15, 17, 19, 22, 23
    2    8 O      2, 4, 7, 10, 18, 24
    3    7 N      11, 16, 20, 21, 25
    4    1 H      26-42

      * Solvation model:               ALPB
        Solvent                        DMSO
        Solvent mass                       7.8130E+01 g/mol
          :  Hamiltonian                  GFN1-xTB          :
 * total energy  :   -83.5988875 Eh     change       -0.2994511E-09 Eh
 * total energy  :   -83.6136949 Eh     change       -0.1480740E-01 Eh
 * total energy  :   -83.6196292 Eh     change       -0.5934337E-02 Eh
 * total energy  :   -83.6208468 Eh     change       -0.1217633E-02 Eh
 * total energy  :   -83.6217734 Eh     change       -0.9265590E-03 Eh
 * total energy  :   -83.6221948 Eh     change       -0.4213840E-03 Eh
 * total energy  :   -83.6225153 Eh     change       -0.3204964E-03 Eh
 * total energy  :   -83.6227405 Eh     change       -0.2252281E-03 Eh
 * total energy  :   -83.6229044 Eh     change       -0.1639451E-03 Eh
 * total energy  :   -83.6230570 Eh     change       -0.1525437E-03 Eh
 * total energy  :   -83.6475568 Eh     change       -0.3358763E-04 Eh
 * total energy  :   -83.6475846 Eh     change       -0.2783778E-04 Eh
 * total energy  :   -83.6476105 Eh     change       -0.2590842E-04 Eh
 * total energy  :   -83.6476077 Eh     change        0.2820410E-05 Eh
 * total energy  :   -83.6476227 Eh     change       -0.1505249E-04 Eh
 * total energy  :   -83.6476371 Eh     change       -0.1434371E-04 Eh
 * total energy  :   -83.6476482 Eh     change       -0.1111919E-04 Eh
 * total energy  :   -83.6476543 Eh     change       -0.6092495E-05 Eh
 * total energy  :   -83.6476579 Eh     change       -0.3598823E-05 Eh
   *** GEOMETRY OPTIMIZATION CONVERGED AFTER 69 ITERATIONS ***

 final structure:
================
42
 xtb: 6.5.1 (579679a)
C           -5.39298508786253       -2.45670403955307        1.33216953493910
O           -4.23042413919731       -1.82101266391582        0.83901439378263
C           -4.14825537405403       -0.45517269062286        1.08781102392579
O           -5.07223784002094        0.09747354127670        1.68759056262777
C           -2.95675739746399        0.13148312763788        0.56779399740987
C           -2.62699852655513        1.49191940004956        0.73898756388361
O           -3.31313109011065        2.37052834730085        1.29766760514957
C           -1.24496111738868        1.90215732635526        0.12989178512448
C           -1.23973864740080        3.39529182734442       -0.21404764210629
O           -0.17839861649362        1.61164776339199        1.02100769279170
N           -1.08433802825416        1.12339580366278       -1.09001551650905
C           -1.11931215910854       -0.25494510183885       -0.78187874170194
C            0.11854664136929       -1.03826630899375       -1.18716542429519
C            0.35668350060297       -0.96905081098501       -2.70429566413219
C           -0.02718934010604       -2.50197123295049       -0.74610881531651
N            1.16453759030893       -0.33600624632528       -0.42612944405177
C            2.39931220562610       -0.76561388430616       -0.51905985929184
O            2.88615496894524       -1.70326364591269       -1.18853568971149
C            3.30771512036422        0.05617231486665        0.36837488935766
N            2.95532964529398        0.97410572320642        1.21801140158160
N            4.10375126682363        1.43027876038257        1.81884323425607
C            5.07675379392248        0.75871017712256        1.29722865631237
C            6.52156865803225        0.87677262518811        1.60906229994015
O            4.65051555974458       -0.12504081137635        0.37954671556253
N           -2.01419229154560       -0.75093399795335       -0.02514304292735
H           -5.45677307455086       -2.37789774760757        2.42425729009028
H           -5.33201163747308       -3.50811164369403        1.04995371730073
H           -6.29964349152323       -2.01738383773687        0.89973751160569
H           -0.26524070614180        3.68059595486380       -0.60515273423514
H           -1.44798345768436        3.97558747635460        0.68441306270407
H           -2.00331639249136        3.60754891795639       -0.96044206758583
H           -0.21511616884314        1.37127148144946       -1.55219468512606
H            1.23388012087698       -1.55462404518699       -2.97694688340077
H           -0.50954323438530       -1.36947355212170       -3.23244361213952
H            0.51561838845163        0.05986001913389       -3.02505699839981
H           -0.16584800468803       -2.55814339214069        0.33467775102446
H           -0.89934787440865       -2.94346404668351       -1.23046757429830
H            0.85610424127319       -3.07571919778255       -1.02310717403875
H            0.44072633663797        0.95572934743393        0.56432613254580
H            6.66796601540709        1.63443245560956        2.37480402958700
H            7.07858097579960        1.15488293113478        0.71485418635617
H            6.91000066823865       -0.07704742407421        1.96468053141340

          :  Hamiltonian                  GFN1-xTB          :
         :: total energy             -83.647657887889 Eh    ::
         :: gradient norm              0.000421209027 Eh/a0 ::
         :: HOMO-LUMO gap              2.347753439195 eV    ::
         :: SCC energy               -84.373547462542 Eh    ::
         :: -> Gsolv                  -0.275651892913 Eh    ::
         :: repulsion energy           0.752356573188 Eh    ::

    * Orbital Energies and Occupations

         #    Occupation            Energy/Eh            Energy/eV
      -------------------------------------------------------------
         1        2.0000           -0.8203212             -22.3221
       ...           ...                  ...                  ...
        56        2.0000           -0.4393849             -11.9563
        57        2.0000           -0.4342684             -11.8170
        58        2.0000           -0.4256247             -11.5818
        59        2.0000           -0.4172114             -11.3529
        60        2.0000           -0.4135524             -11.2533
        61        2.0000           -0.4107861             -11.1781
        62        2.0000           -0.3982189             -10.8361
        63        2.0000           -0.3847700             -10.4701
        64        2.0000           -0.3770998             -10.2614
        65        2.0000           -0.3661035              -9.9622
        66        2.0000           -0.3530188              -9.6061
        67        2.0000           -0.3516116              -9.5678
        68        2.0000           -0.3303508              -8.9893 (HOMO)
        69                         -0.2440724              -6.6415 (LUMO)
        70                         -0.2200607              -5.9882
        71                         -0.2197445              -5.9796
        72                         -0.2025448              -5.5115
        73                         -0.1285320              -3.4975
        74                         -0.1281576              -3.4873
        75                         -0.1144254              -3.1137
        76                         -0.1043620              -2.8398
        77                         -0.0930150              -2.5311
        78                         -0.0880506              -2.3960
        79                         -0.0823050              -2.2396
       ...                                ...                  ...
       134                          0.7567288              20.5916
      -------------------------------------------------------------
                  HL-Gap            0.0862784 Eh            2.3478 eV

Wiberg/Mayer (AO) data.
largest (>0.10) Wiberg bond orders for each atom

     #   Z sym  total        # sym  WBO       # sym  WBO       # sym  WBO
 ---------------------------------------------------------------------------
     1   6 C    3.914 --    27 H    0.987    26 H    0.981    28 H    0.980
                             2 O    0.944
     2   8 O    2.104 --     3 C    0.976     1 C    0.944
     3   6 C    3.853 --     4 O    1.530     5 C    1.215     2 O    0.976
     4   8 O    1.826 --     3 C    1.530
     5   6 C    3.892 --     6 C    1.311     3 C    1.215    25 N    1.048
                             7 O    0.117
     6   6 C    3.922 --     7 O    1.524     5 C    1.311     8 C    0.907
     7   8 O    1.825 --     6 C    1.524     5 C    0.117
     8   6 C    3.891 --     9 C    0.988    10 O    0.950    11 N    0.945
                             6 C    0.907
     9   6 C    3.997 --    31 H    0.989     8 C    0.988    29 H    0.987
                            30 H    0.984
    10   8 O    1.876 --     8 C    0.950    39 H    0.787
    11   7 N    3.128 --    12 C    1.042     8 C    0.945    32 H    0.934
    12   6 C    3.937 --    25 N    1.738    11 N    1.042    13 C    0.970
    13   6 C    3.969 --    15 C    0.990    14 C    0.983    12 C    0.970
                            16 N    0.966
    14   6 C    3.994 --    34 H    0.988    13 C    0.983    35 H    0.983
                            33 H    0.982
    15   6 C    3.996 --    13 C    0.990    37 H    0.988    36 H    0.986
                            38 H    0.984
    16   7 N    3.005 --    17 C    1.481    13 C    0.966    18 O    0.223
                            39 H    0.132
    17   6 C    3.940 --    16 N    1.481    18 O    1.431    19 C    0.955
    18   8 O    1.782 --    17 C    1.431    16 N    0.223
    19   6 C    3.832 --    20 N    1.626    24 O    1.043    17 C    0.955
    20   7 N    2.985 --    19 C    1.626    21 N    1.168
    21   7 N    2.977 --    22 C    1.638    20 N    1.168
    22   6 C    3.886 --    21 N    1.638    24 O    1.076    23 C    1.025
    23   6 C    3.992 --    22 C    1.025    40 H    0.985    42 H    0.970
                            41 H    0.969
    24   8 O    2.302 --    22 C    1.076    19 C    1.043
    25   7 N    3.015 --    12 C    1.738     5 C    1.048
    26   1 H    1.018 --     1 C    0.981
    27   1 H    1.019 --     1 C    0.987
    28   1 H    1.019 --     1 C    0.980
    29   1 H    1.010 --     9 C    0.987
    30   1 H    1.019 --     9 C    0.984
    31   1 H    1.012 --     9 C    0.989
    32   1 H    0.980 --    11 N    0.934
    33   1 H    1.020 --    14 C    0.982
    34   1 H    1.008 --    14 C    0.988
    35   1 H    1.008 --    14 C    0.983
    36   1 H    1.020 --    15 C    0.986
    37   1 H    1.013 --    15 C    0.988
    38   1 H    1.020 --    15 C    0.984
    39   1 H    0.948 --    10 O    0.787    16 N    0.132
    40   1 H    1.003 --    23 C    0.985
    41   1 H    1.001 --    23 C    0.969
    42   1 H    1.001 --    23 C    0.970
 ---------------------------------------------------------------------------

           -------------------------------------------------
          | TOTAL ENERGY              -83.647657887889 Eh   |
          | GRADIENT NORM               0.000421209027 Eh/α |
          | HOMO-LUMO GAP               2.347753439195 eV   |
           -------------------------------------------------

 * finished run on 2023/06/21 at 17:25:33.331
