   * xtb version 6.5.1 (579679a) compiled by 'ehlert@majestix' on 2022-07-11
          program call               : /lustre/hpc/kemi/ree/PhD/git/ReactivityQM/dep/xtb-6.5.1/bin/xtb --gfn 1 /lustre/hpc/kemi/ree/PhD/git/ReactivityQM/calculations/RaltegravirCLI/reac02prodN02/conf08/RaltegravirCLI_reac02prodN02_conf08_gfn1.xyz --opt --vfukui --chrg 1 --uhf 0 --alpb DMSO

   ID    Z sym.   atoms
    1    6 C      1, 3-6, 8, 9, 12-16, 18-20, 22, 25
    2    7 N      2, 7, 11, 24
    3    8 O      10, 21, 23
    4    9 F      17
    5    1 H      26-47

      * Solvation model:               ALPB
        Solvent                        DMSO
        Solvent mass                       7.8130E+01 g/mol
          :  Hamiltonian                  GFN1-xTB          :
 * total energy  :   -79.5238200 Eh     change       -0.9066525E-11 Eh
 * total energy  :   -79.5339406 Eh     change       -0.1012056E-01 Eh
 * total energy  :   -79.5372143 Eh     change       -0.3273652E-02 Eh
 * total energy  :   -79.5379734 Eh     change       -0.7590969E-03 Eh
 * total energy  :   -79.5384638 Eh     change       -0.4904154E-03 Eh
 * total energy  :   -79.5387064 Eh     change       -0.2426570E-03 Eh
 * total energy  :   -79.5388872 Eh     change       -0.1807663E-03 Eh
 * total energy  :   -79.5389995 Eh     change       -0.1123019E-03 Eh
 * total energy  :   -79.5390779 Eh     change       -0.7840739E-04 Eh
 * total energy  :   -79.5391565 Eh     change       -0.7860848E-04 Eh
 * total energy  :   -79.5404641 Eh     change       -0.2765058E-04 Eh
 * total energy  :   -79.5404763 Eh     change       -0.1219426E-04 Eh
 * total energy  :   -79.5405036 Eh     change       -0.2737106E-04 Eh
 * total energy  :   -79.5405143 Eh     change       -0.1065345E-04 Eh
 * total energy  :   -79.5405222 Eh     change       -0.7957356E-05 Eh
 * total energy  :   -79.5405281 Eh     change       -0.5827169E-05 Eh
 * total energy  :   -79.5405387 Eh     change       -0.1059422E-04 Eh
 * total energy  :   -79.5405438 Eh     change       -0.5148224E-05 Eh
 * total energy  :   -79.5405478 Eh     change       -0.3947275E-05 Eh
   *** GEOMETRY OPTIMIZATION CONVERGED AFTER 31 ITERATIONS ***

 final structure:
================
47
 xtb: 6.5.1 (579679a)
C           -3.45463785583900       -2.15733654409301        1.62891680571764
N           -2.91046321639851       -1.41320337058912        0.47490881604869
C           -3.28248691314937        0.04460404391781        0.32258885299802
C           -3.32930649373147        0.70850140024042        1.70078891346936
C           -4.63739925501072        0.07084823494946       -0.38297489523431
C           -2.10183185321745        0.62272316968675       -0.46366894511261
N           -1.03036769651554       -0.09867057574961       -0.40273427437967
C            0.14402629012512        0.25880798396962       -1.00658892657109
C            1.22269529043193       -0.76654624263569       -0.81452669143005
O            0.99732768085959       -1.78842661121903       -0.17531760649452
N            2.40381112059965       -0.49788084172840       -1.38972128576827
C            3.52095399630753       -1.43464468183964       -1.28334079153942
C            4.41347443190107       -1.08062839773074       -0.11315904553873
C            3.97531127260821       -1.31114197077380        1.19000471725356
C            4.77813453256488       -0.98300333845198        2.27249718653602
C            6.01987883993161       -0.42549585137844        2.02342552075611
F            6.80309074244463       -0.10547783512632        3.06601004557408
C            6.48685496560888       -0.18557972808525        0.74424471696237
C            5.66845473465441       -0.51724594627378       -0.32749776197703
C            0.18541868431721        1.43632389174264       -1.69065349331206
O            1.27047608886549        1.90091691123023       -2.32766288059475
C           -0.99122552178128        2.28925135770506       -1.76955546430710
O           -0.97444556117135        3.35007220671483       -2.37772041687086
N           -2.12651527752266        1.82387216408473       -1.10870718583300
C           -3.30044754850134        2.69575206130282       -1.18996428940284
H           -4.53539653575036       -2.04655200232096        1.65139486605129
H           -3.18962634007519       -3.20291809661231        1.48847761632347
H           -3.01023518176922       -1.77997907347773        2.54524294238115
H           -1.86591022519265       -1.41985975414050        0.48795053447942
H           -3.18288109261676       -1.89212771923166       -0.37918909446484
H           -2.40236650845352        0.52150499104352        2.24078290283705
H           -3.44809549056394        1.78340900956180        1.57995455050652
H           -4.17219422576037        0.33432303697275        2.27787505089904
H           -5.11585630349258        1.04048999409734       -0.27512703520285
H           -5.29244648763562       -0.67062322137501        0.07235055456975
H           -4.52664972581978       -0.16232454209425       -1.44064057357079
H            2.56100260592239        0.36886103206323       -1.87698337477661
H            3.10247703710808       -2.43758780568576       -1.15108161709436
H            4.08076471790841       -1.39837958161832       -2.22076571062887
H            2.99888884803423       -1.74965113216619        1.35836461226609
H            4.44997922574602       -1.15522606435389        3.28935515675675
H            7.46492878257986        0.25181121178789        0.59085127958063
H            6.01404940866190       -0.33596405503265       -1.33845004676272
H            1.05291982069550        2.75757864112205       -2.74414034027489
H           -3.99632598223713        2.30467134952027       -1.93020880852093
H           -3.77903924277238        2.76951022017834       -0.21875553250658
H           -2.95876958289860        3.68264207189218       -1.50172155379731

          :  Hamiltonian                  GFN1-xTB          :
         :: total energy             -79.540547760392 Eh    ::
         :: gradient norm              0.000387375531 Eh/a0 ::
         :: HOMO-LUMO gap              2.943889668606 eV    ::
         :: SCC energy               -80.439737528549 Eh    ::
         :: -> Gsolv                  -0.117765278174 Eh    ::
         :: repulsion energy           0.929482031534 Eh    ::

    * Orbital Energies and Occupations

         #    Occupation            Energy/Eh            Energy/eV
      -------------------------------------------------------------
         1        2.0000           -0.8775269             -23.8787
       ...           ...                  ...                  ...
        55        2.0000           -0.5261805             -14.3181
        56        2.0000           -0.5150597             -14.0155
        57        2.0000           -0.5084728             -13.8362
        58        2.0000           -0.5044591             -13.7270
        59        2.0000           -0.4898775             -13.3302
        60        2.0000           -0.4849593             -13.1964
        61        2.0000           -0.4757065             -12.9446
        62        2.0000           -0.4724965             -12.8573
        63        2.0000           -0.4560781             -12.4105
        64        2.0000           -0.4537853             -12.3481
        65        2.0000           -0.4489003             -12.2152
        66        2.0000           -0.4409081             -11.9977
        67        2.0000           -0.4384270             -11.9302 (HOMO)
        68                         -0.3302410              -8.9863 (LUMO)
        69                         -0.3027171              -8.2374
        70                         -0.2756854              -7.5018
        71                         -0.2696983              -7.3389
        72                         -0.2420050              -6.5853
        73                         -0.1766910              -4.8080
        74                         -0.1685101              -4.5854
        75                         -0.1666019              -4.5335
        76                         -0.1642066              -4.4683
        77                         -0.1499489              -4.0803
        78                         -0.1484734              -4.0402
       ...                                ...                  ...
       144                          0.7095453              19.3077
      -------------------------------------------------------------
                  HL-Gap            0.1081860 Eh            2.9439 eV

Wiberg/Mayer (AO) data.
largest (>0.10) Wiberg bond orders for each atom

     #   Z sym  total        # sym  WBO       # sym  WBO       # sym  WBO
 ---------------------------------------------------------------------------
     1   6 C    3.902 --    28 H    0.984    26 H    0.982    27 H    0.979
                             2 N    0.924
     2   7 N    3.592 --     1 C    0.924    30 H    0.896     3 C    0.891
                            29 H    0.828
     3   6 C    3.909 --     5 C    0.999     4 C    0.989     6 C    0.973
                             2 N    0.891
     4   6 C    3.983 --     3 C    0.989    31 H    0.981    33 H    0.979
                            32 H    0.974
     5   6 C    3.984 --     3 C    0.999    36 H    0.981    35 H    0.977
                            34 H    0.976
     6   6 C    3.941 --     7 N    1.561    24 N    1.196     3 C    0.973
     7   7 N    3.100 --     6 C    1.561     8 C    1.175
     8   6 C    3.952 --    20 C    1.510     7 N    1.175     9 C    0.987
     9   6 C    3.913 --    10 O    1.563    11 N    1.285     8 C    0.987
    10   8 O    1.881 --     9 C    1.563    11 N    0.176
    11   7 N    3.363 --     9 C    1.285    12 C    0.936    37 H    0.886
                            10 O    0.176
    12   6 C    3.943 --    13 C    0.994    39 H    0.977    38 H    0.968
                            11 N    0.936
    13   6 C    3.988 --    19 C    1.423    14 C    1.414    12 C    0.994
    14   6 C    3.992 --    15 C    1.448    13 C    1.414    40 H    0.969
                            18 C    0.111
    15   6 C    3.992 --    14 C    1.448    16 C    1.397    41 H    0.969
                            19 C    0.110
    16   6 C    3.861 --    18 C    1.404    15 C    1.397    17 F    0.926
    17   9 F    1.054 --    16 C    0.926
    18   6 C    3.991 --    19 C    1.439    16 C    1.404    42 H    0.969
                            14 C    0.111
    19   6 C    3.993 --    18 C    1.439    13 C    1.423    43 H    0.971
                            15 C    0.110
    20   6 C    3.920 --     8 C    1.510    21 O    1.092    22 C    1.079
    21   8 O    2.081 --    20 C    1.092    44 H    0.793
    22   6 C    3.910 --    23 O    1.574    24 N    1.106    20 C    1.079
    23   8 O    1.921 --    22 C    1.574    24 N    0.130
    24   7 N    3.512 --     6 C    1.196    22 C    1.106    25 C    0.923
                            23 O    0.130
    25   6 C    3.913 --    46 H    0.977    45 H    0.975    47 H    0.970
                            24 N    0.923
    26   1 H    0.994 --     1 C    0.982
    27   1 H    0.990 --     1 C    0.979
    28   1 H    0.995 --     1 C    0.984
    29   1 H    0.953 --     2 N    0.828
    30   1 H    0.925 --     2 N    0.896
    31   1 H    0.995 --     4 C    0.981
    32   1 H    0.998 --     4 C    0.974
    33   1 H    0.994 --     4 C    0.979
    34   1 H    0.998 --     5 C    0.976
    35   1 H    0.994 --     5 C    0.977
    36   1 H    0.995 --     5 C    0.981
    37   1 H    0.941 --    11 N    0.886
    38   1 H    1.008 --    12 C    0.968
    39   1 H    1.002 --    12 C    0.977
    40   1 H    1.009 --    14 C    0.969
    41   1 H    0.998 --    15 C    0.969
    42   1 H    0.997 --    18 C    0.969
    43   1 H    0.999 --    19 C    0.971
    44   1 H    0.835 --    21 O    0.793
    45   1 H    0.998 --    25 C    0.975
    46   1 H    1.002 --    25 C    0.977
    47   1 H    1.003 --    25 C    0.970
 ---------------------------------------------------------------------------

           -------------------------------------------------
          | TOTAL ENERGY              -79.540547760392 Eh   |
          | GRADIENT NORM               0.000387375531 Eh/α |
          | HOMO-LUMO GAP               2.943889668606 eV   |
           -------------------------------------------------

 * finished run on 2023/06/20 at 15:17:10.028
