   * xtb version 6.5.1 (579679a) compiled by 'ehlert@majestix' on 2022-07-11
          program call               : /lustre/hpc/kemi/ree/PhD/git/ReactivityQM/dep/xtb-6.5.1/bin/xtb --gfn 1 /lustre/hpc/kemi/ree/PhD/git/ReactivityQM/calculations/R03/reac02prodE05/conf15/R03_reac02prodE05_conf15_gfn1.xyz --opt --vfukui --chrg -1 --uhf 0 --alpb DMSO

   ID    Z sym.   atoms
    1    6 C      1, 3, 5, 6, 8, 11-15, 17, 19, 22, 23, 26
    2    8 O      2, 4, 7, 9, 18, 24
    3    7 N      10, 16, 20, 21, 25
    4    1 H      27-46

      * Solvation model:               ALPB
        Solvent                        DMSO
        Solvent mass                       7.8130E+01 g/mol
          :  Hamiltonian                  GFN1-xTB          :
 * total energy  :   -86.9677328 Eh     change       -0.5692868E-10 Eh
 * total energy  :   -86.9806943 Eh     change       -0.1296153E-01 Eh
 * total energy  :   -86.9871155 Eh     change       -0.6421159E-02 Eh
 * total energy  :   -86.9896523 Eh     change       -0.2536860E-02 Eh
 * total energy  :   -86.9913735 Eh     change       -0.1721143E-02 Eh
 * total energy  :   -86.9929200 Eh     change       -0.1546497E-02 Eh
 * total energy  :   -86.9942187 Eh     change       -0.1298686E-02 Eh
 * total energy  :   -86.9955000 Eh     change       -0.1281334E-02 Eh
 * total energy  :   -86.9966610 Eh     change       -0.1160983E-02 Eh
 * total energy  :   -86.9976047 Eh     change       -0.9437134E-03 Eh
 * total energy  :   -87.0148994 Eh     change       -0.8429317E-05 Eh
 * total energy  :   -87.0149069 Eh     change       -0.7566112E-05 Eh
 * total energy  :   -87.0149118 Eh     change       -0.4924655E-05 Eh
 * total energy  :   -87.0149169 Eh     change       -0.5032723E-05 Eh
 * total energy  :   -87.0149219 Eh     change       -0.5016790E-05 Eh
 * total energy  :   -87.0149216 Eh     change        0.2860173E-06 Eh
 * total energy  :   -87.0149275 Eh     change       -0.5925292E-05 Eh
 * total energy  :   -87.0149347 Eh     change       -0.7170202E-05 Eh
 * total energy  :   -87.0149395 Eh     change       -0.4838818E-05 Eh
   *** GEOMETRY OPTIMIZATION CONVERGED AFTER 69 ITERATIONS ***

 final structure:
================
46
 xtb: 6.5.1 (579679a)
C           -2.94431812735537       -2.64179189318855       -2.32407673562498
O           -2.96353413033268       -1.36812173328490       -1.69406462773332
C           -1.74558536069913       -0.79932753641746       -1.47004994541492
O           -0.71138773517422       -1.37604782438213       -1.79706112380941
C           -1.79946775887435        0.50817980701545       -0.86231791765100
C           -2.86731197124160        1.13521039784966       -0.26215273956633
O           -4.13098309422507        0.63085695617608       -0.22751435268475
C           -2.66597142259259        2.32981429870045        0.53325663708176
O           -3.63366519645416        3.04396318237611        0.90941769426616
N           -1.38565801415436        2.52629730057912        0.95182156781715
C           -1.16763543470180        3.60969999838897        1.90841248754450
C           -0.27041268349389        1.84519192543388        0.41106934565783
C            0.46010325070873        0.88446229992072        1.37295978855440
C            1.46405103402947        1.66010814907192        2.24390037922321
C           -0.49556415423355        0.07170397060622        2.27134667835785
N            1.21183020547603       -0.04354963529401        0.51953434950592
C            2.01378667640111       -1.01902783998131        0.94438302602796
O            2.27603024496767       -1.29365464155187        2.11099681738216
C            2.61670536672210       -1.77039429113641       -0.19858628952165
N            2.47036195522209       -1.51951634861932       -1.46285081076674
N            3.21376647802701       -2.44398973915488       -2.13891296629337
C            3.76805535006769       -3.19764108780026       -1.24174626936073
C            4.68273223825985       -4.34083310541307       -1.46312825206700
O            3.43417328758977       -2.82490738236212        0.00304026720913
N           -0.55707485449986        1.24629191551052       -0.87635985219785
C           -0.53431909675825        2.25311490759877       -1.95294712951933
H           -3.98109523160445       -2.95563030201941       -2.44029259483939
H           -2.46422688652698       -2.58133156839856       -3.30631625654785
H           -2.40375717208886       -3.37079309955706       -1.71145540900601
H           -4.67714776097788        1.27786631115174        0.25732081692002
H           -1.92845565521213        4.37744038317996        1.75222370940311
H           -1.24566879249582        3.24457800739448        2.93501786719499
H           -0.18048970397220        4.03871954030327        1.74568929681082
H            2.09861127413019        2.27572221407686        1.60744901177174
H            0.93386759346598        2.30535567380491        2.94036432957458
H            2.08925867347847        0.97896619082635        2.82013014383930
H           -1.14017933103602       -0.55851770572189        1.65832230498393
H            0.06851760440874       -0.55787249312019        2.95898130277869
H           -1.11693383105585        0.75097836870545        2.85232314660776
H            1.01444230569890        0.03418558545384       -0.48074835742210
H            4.41528679197208       -5.16762099057058       -0.80775844452898
H            4.62729896026816       -4.65909763401007       -2.50097829146344
H            5.70768200135548       -4.04717021276207       -1.23671310588658
H           -0.60431658184254        1.74874636489901       -2.91830889633790
H            0.41110120399079        2.79192014418291       -1.88948192004648
H           -1.36250151464785        2.96746217153872       -1.86125268022479

          :  Hamiltonian                  GFN1-xTB          :
         :: total energy             -87.014939547479 Eh    ::
         :: gradient norm              0.000701855927 Eh/a0 ::
         :: HOMO-LUMO gap              0.606046998025 eV    ::
         :: SCC energy               -87.796128987636 Eh    ::
         :: -> Gsolv                  -0.106844625672 Eh    ::
         :: repulsion energy           0.812830859109 Eh    ::

    * Orbital Energies and Occupations

         #    Occupation            Energy/Eh            Energy/eV
      -------------------------------------------------------------
         1        2.0000           -0.8504723             -23.1425
       ...           ...                  ...                  ...
        59        2.0000           -0.4677284             -12.7275
        60        2.0000           -0.4673204             -12.7164
        61        2.0000           -0.4583345             -12.4719
        62        2.0000           -0.4455172             -12.1231
        63        2.0000           -0.4449594             -12.1080
        64        2.0000           -0.4387931             -11.9402
        65        2.0000           -0.4327976             -11.7770
        66        2.0000           -0.4215675             -11.4714
        67        2.0000           -0.4097111             -11.1488
        68        2.0000           -0.4043688             -11.0034
        69        2.0000           -0.3877124             -10.5502
        70        2.0000           -0.3694803             -10.0541
        71        2.0000           -0.3121019              -8.4927 (HOMO)
        72        0.0000           -0.2898301              -7.8867 (LUMO)
        73                         -0.2747285              -7.4757
        74                         -0.2453347              -6.6759
        75                         -0.1945158              -5.2930
        76                         -0.1787535              -4.8641
        77                         -0.1389027              -3.7797
        78                         -0.1358367              -3.6963
        79                         -0.1245143              -3.3882
        80                         -0.1220041              -3.3199
        81                         -0.1043106              -2.8384
        82                         -0.1014060              -2.7594
       ...                                ...                  ...
       144                          0.7319396              19.9171
      -------------------------------------------------------------
                  HL-Gap            0.0222718 Eh            0.6060 eV

Wiberg/Mayer (AO) data.
largest (>0.10) Wiberg bond orders for each atom

     #   Z sym  total        # sym  WBO       # sym  WBO       # sym  WBO
 ---------------------------------------------------------------------------
     1   6 C    3.898 --    27 H    0.987    29 H    0.981    28 H    0.981
                             2 O    0.925
     2   8 O    2.145 --     3 C    1.032     1 C    0.925     4 O    0.105
     3   6 C    3.855 --     4 O    1.555     5 C    1.132     2 O    1.032
     4   8 O    1.861 --     3 C    1.555     2 O    0.105
     5   6 C    3.936 --     6 C    1.469     3 C    1.132    25 N    0.975
     6   6 C    3.905 --     5 C    1.469     8 C    1.103     7 O    1.047
                            12 C    0.114
     7   8 O    2.031 --     6 C    1.047    30 H    0.828
     8   6 C    3.933 --     9 O    1.395    10 N    1.215     6 C    1.103
                            12 C    0.112
     9   8 O    1.764 --     8 C    1.395    10 N    0.149
    10   7 N    3.468 --     8 C    1.215    12 C    1.037    11 C    0.949
                             9 O    0.149
    11   6 C    3.959 --    33 H    0.987    32 H    0.980    31 H    0.977
                            10 N    0.949
    12   6 C    3.571 --    10 N    1.037    25 N    0.965    13 C    0.958
                             6 C    0.114     8 C    0.112
    13   6 C    3.917 --    14 C    0.988    15 C    0.978    12 C    0.958
                            16 N    0.915
    14   6 C    3.993 --    13 C    0.988    34 H    0.986    35 H    0.983
                            36 H    0.982
    15   6 C    3.996 --    37 H    0.986    39 H    0.985    38 H    0.983
                            13 C    0.978
    16   7 N    3.401 --    17 C    1.320    13 C    0.915    40 H    0.871
                            18 O    0.191
    17   6 C    3.926 --    18 O    1.547    16 N    1.320    19 C    0.978
    18   8 O    1.872 --    17 C    1.547    16 N    0.191
    19   6 C    3.866 --    20 N    1.624    24 O    1.055    17 C    0.978
    20   7 N    3.010 --    19 C    1.624    21 N    1.189
    21   7 N    2.980 --    22 C    1.617    20 N    1.189
    22   6 C    3.876 --    21 N    1.617    24 O    1.081    23 C    1.029
    23   6 C    3.989 --    22 C    1.029    42 H    0.982    41 H    0.972
                            43 H    0.961
    24   8 O    2.319 --    22 C    1.081    19 C    1.055
    25   7 N    3.092 --     5 C    0.975    12 C    0.965    26 C    0.963
    26   6 C    3.982 --    45 H    0.988    44 H    0.988    46 H    0.983
                            25 N    0.963
    27   1 H    1.016 --     1 C    0.987
    28   1 H    1.014 --     1 C    0.981
    29   1 H    1.014 --     1 C    0.981
    30   1 H    0.879 --     7 O    0.828
    31   1 H    1.017 --    11 C    0.977
    32   1 H    1.010 --    11 C    0.980
    33   1 H    1.020 --    11 C    0.987
    34   1 H    1.017 --    14 C    0.986
    35   1 H    1.009 --    14 C    0.983
    36   1 H    1.013 --    14 C    0.982
    37   1 H    1.013 --    15 C    0.986
    38   1 H    1.013 --    15 C    0.983
    39   1 H    1.007 --    15 C    0.985
    40   1 H    0.990 --    16 N    0.871
    41   1 H    0.998 --    23 C    0.972
    42   1 H    1.000 --    23 C    0.982
    43   1 H    0.999 --    23 C    0.961
    44   1 H    1.017 --    26 C    0.988
    45   1 H    1.029 --    26 C    0.988
    46   1 H    1.009 --    26 C    0.983
 ---------------------------------------------------------------------------

           -------------------------------------------------
          | TOTAL ENERGY              -87.014939547479 Eh   |
          | GRADIENT NORM               0.000701855927 Eh/α |
          | HOMO-LUMO GAP               0.606046998025 eV   |
           -------------------------------------------------

 * finished run on 2023/06/20 at 15:19:56.743
