                         Program Version 5.0.1 -  RELEASE  -
|  1> # ORCA input file
|  2> ! SP r2SCAN-3c CPCM
|  3>
|  4> %maxcore 1875.0
|  5> %pal nprocs 4 end
|  6> %cpcm smd true SMDsolvent "DMSO" end
|  7>
|  8> *xyz 0 1
|  9> C      -3.078787    3.404222    1.989326
| 10> O      -3.308784    2.234824    1.205964
| 11> C      -2.226578    1.525525    0.862878
| 12> O      -1.101179    1.855680    1.198975
| 13> C      -2.526909    0.326639    0.051274
| 14> N      -1.410417   -0.376891   -0.313922
| 15> C      -1.554583   -1.464540   -1.036723
| 16> C      -0.259997   -2.194188   -1.396702
| 17> C      -0.263923   -3.605086   -0.801065
| 18> C      -0.073359   -2.233738   -2.916576
| 19> N       0.791106   -1.384414   -0.782706
| 20> C       2.094640   -1.593710   -0.722867
| 21> O       2.748374   -2.506598   -1.193664
| 22> C       2.741347   -0.472089    0.069693
| 23> N       3.982719   -0.274686    0.398840
| 24> N       3.973250    0.872595    1.114091
| 25> C       5.210605    1.388171    1.654303
| 26> C       2.745434    1.339252    1.205979
| 27> C       2.214420    2.541017    1.870193
| 28> O       1.958577    0.511445    0.556190
| 29> N      -2.687392   -1.995369   -1.480521
| 30> C      -3.845582   -1.361345   -1.164353
| 31> O      -4.975016   -1.749394   -1.513528
| 32> C      -3.749810   -0.135673   -0.354403
| 33> O      -4.933578    0.444355   -0.071620
| 34> H      -4.044933    3.885706    2.131191
| 35> H      -2.393665    4.079154    1.470456
| 36> H      -2.647510    3.133172    2.956245
| 37> H      -1.124529   -4.148776   -1.190152
| 38> H      -0.339555   -3.550512    0.284202
| 39> H       0.649426   -4.134859   -1.068234
| 40> H      -0.931079   -2.734561   -3.364988
| 41> H       0.837065   -2.773894   -3.173340
| 42> H      -0.007865   -1.220004   -3.309553
| 43> H       0.378130   -0.565078   -0.317305
| 44> H       5.527802    0.749028    2.477450
| 45> H       5.961125    1.378277    0.866982
| 46> H       5.039329    2.400259    2.007414
| 47> H       2.548264    2.583142    2.905392
| 48> H       2.573417    3.436047    1.362287
| 49> H       1.124302    2.509531    1.824872
| 50> H      -5.614304   -0.122639   -0.497358
| 51> **                         ****END OF INPUT****

CARTESIAN COORDINATES (ANGSTROEM)
---------------------------------
  C     -3.078787    3.404222    1.989326
  O     -3.308784    2.234824    1.205964
  C     -2.226578    1.525525    0.862878
  O     -1.101179    1.855680    1.198975
  C     -2.526909    0.326639    0.051274
  N     -1.410417   -0.376891   -0.313922
  C     -1.554583   -1.464540   -1.036723
  C     -0.259997   -2.194188   -1.396702
  C     -0.263923   -3.605086   -0.801065
  C     -0.073359   -2.233738   -2.916576
  N      0.791106   -1.384414   -0.782706
  C      2.094640   -1.593710   -0.722867
  O      2.748374   -2.506598   -1.193664
  C      2.741347   -0.472089    0.069693
  N      3.982719   -0.274686    0.398840
  N      3.973250    0.872595    1.114091
  C      5.210605    1.388171    1.654303
  C      2.745434    1.339252    1.205979
  C      2.214420    2.541017    1.870193
  O      1.958577    0.511445    0.556190
  N     -2.687392   -1.995369   -1.480521
  C     -3.845582   -1.361345   -1.164353
  O     -4.975016   -1.749394   -1.513528
  C     -3.749810   -0.135673   -0.354403
  O     -4.933578    0.444355   -0.071620
  H     -4.044933    3.885706    2.131191
  H     -2.393665    4.079154    1.470456
  H     -2.647510    3.133172    2.956245
  H     -1.124529   -4.148776   -1.190152
  H     -0.339555   -3.550512    0.284202
  H      0.649426   -4.134859   -1.068234
  H     -0.931079   -2.734561   -3.364988
  H      0.837065   -2.773894   -3.173340
  H     -0.007865   -1.220004   -3.309553
  H      0.378130   -0.565078   -0.317305
  H      5.527802    0.749028    2.477450
  H      5.961125    1.378277    0.866982
  H      5.039329    2.400259    2.007414
  H      2.548264    2.583142    2.905392
  H      2.573417    3.436047    1.362287
  H      1.124302    2.509531    1.824872
  H     -5.614304   -0.122639   -0.497358

 Total Charge           Charge          ....    0
 Multiplicity           Mult            ....    1
 Number of Electrons    NEL             ....  184
 Basis Dimension        Dim             ....  615

ORBITAL ENERGIES
----------------

  NO   OCC          E(Eh)            E(eV)
   0   2.0000     -19.103495      -519.8325
   1   2.0000     -18.995148      -516.8843
   2   2.0000     -18.979793      -516.4664
   3   2.0000     -18.934782      -515.2416
   4   2.0000     -18.931717      -515.1582
   5   2.0000     -18.901694      -514.3412
   6   2.0000     -14.316749      -389.5785
   7   2.0000     -14.248537      -387.7224
   8   2.0000     -14.190732      -386.1495
   9   2.0000     -14.143237      -384.8570
  10   2.0000     -14.133731      -384.5984
  11   2.0000     -10.208537      -277.7884
  12   2.0000     -10.179936      -277.0102
  13   2.0000     -10.161824      -276.5173
  14   2.0000     -10.155056      -276.3331
  15   2.0000     -10.106517      -275.0123
  16   2.0000     -10.095577      -274.7146
  17   2.0000     -10.089030      -274.5365
  18   2.0000     -10.088714      -274.5279
  19   2.0000     -10.087942      -274.5069
  20   2.0000     -10.073607      -274.1168
  21   2.0000     -10.071342      -274.0551
  22   2.0000     -10.063698      -273.8471
  23   2.0000     -10.017220      -272.5824
  24   2.0000     -10.016858      -272.5726
  25   2.0000      -1.209088       -32.9010
  26   2.0000      -1.068949       -29.0876
  27   2.0000      -1.049538       -28.5594
  28   2.0000      -1.031591       -28.0710
  29   2.0000      -1.023983       -27.8640
  30   2.0000      -0.975746       -26.5514
  31   2.0000      -0.970654       -26.4128
  32   2.0000      -0.936533       -25.4844
  33   2.0000      -0.906323       -24.6623
  34   2.0000      -0.892980       -24.2992
  35   2.0000      -0.829617       -22.5750
  36   2.0000      -0.784460       -21.3463
  37   2.0000      -0.767361       -20.8809
  38   2.0000      -0.734196       -19.9785
  39   2.0000      -0.722976       -19.6732
  40   2.0000      -0.699171       -19.0254
  41   2.0000      -0.687807       -18.7162
  42   2.0000      -0.655784       -17.8448
  43   2.0000      -0.636427       -17.3180
  44   2.0000      -0.633876       -17.2486
  45   2.0000      -0.609350       -16.5813
  46   2.0000      -0.596968       -16.2443
  47   2.0000      -0.557421       -15.1682
  48   2.0000      -0.544405       -14.8140
  49   2.0000      -0.530697       -14.4410
  50   2.0000      -0.529293       -14.4028
  51   2.0000      -0.513835       -13.9822
  52   2.0000      -0.504027       -13.7153
  53   2.0000      -0.487151       -13.2560
  54   2.0000      -0.464755       -12.6466
  55   2.0000      -0.462861       -12.5951
  56   2.0000      -0.448739       -12.2108
  57   2.0000      -0.447489       -12.1768
  58   2.0000      -0.443781       -12.0759
  59   2.0000      -0.440024       -11.9737
  60   2.0000      -0.434304       -11.8180
  61   2.0000      -0.427694       -11.6381
  62   2.0000      -0.416643       -11.3374
  63   2.0000      -0.415673       -11.3110
  64   2.0000      -0.404645       -11.0109
  65   2.0000      -0.401572       -10.9273
  66   2.0000      -0.397593       -10.8191
  67   2.0000      -0.394614       -10.7380
  68   2.0000      -0.383879       -10.4459
  69   2.0000      -0.382205       -10.4003
  70   2.0000      -0.376317       -10.2401
  71   2.0000      -0.364044        -9.9062
  72   2.0000      -0.362498        -9.8641
  73   2.0000      -0.352479        -9.5914
  74   2.0000      -0.351993        -9.5782
  75   2.0000      -0.344914        -9.3856
  76   2.0000      -0.334928        -9.1139
  77   2.0000      -0.334905        -9.1132
  78   2.0000      -0.322577        -8.7778
  79   2.0000      -0.322141        -8.7659
  80   2.0000      -0.313368        -8.5272
  81   2.0000      -0.312653        -8.5077
  82   2.0000      -0.295975        -8.0539
  83   2.0000      -0.273996        -7.4558
  84   2.0000      -0.270998        -7.3742
  85   2.0000      -0.250187        -6.8079
  86   2.0000      -0.250132        -6.8064
  87   2.0000      -0.246967        -6.7203
  88   2.0000      -0.238009        -6.4766
  89   2.0000      -0.219698        -5.9783
  90   2.0000      -0.210226        -5.7206
  91   2.0000      -0.185929        -5.0594
  92   0.0000      -0.102048        -2.7769
  93   0.0000      -0.079674        -2.1680
  94   0.0000      -0.069421        -1.8890
  95   0.0000      -0.012844        -0.3495
  96   0.0000       0.033011         0.8983

MULLIKEN ATOMIC CHARGES
-----------------------
   0 C :   -0.319125
   1 O :   -0.160417
   2 C :    0.154807
   3 O :   -0.427352
   4 C :    0.059272
   5 N :   -0.232458
   6 C :    0.437216
   7 C :   -0.217610
   8 C :   -0.604226
   9 C :   -0.605228
  10 N :    0.062069
  11 C :   -0.114492
  12 O :   -0.433454
  13 C :    0.445980
  14 N :   -0.375346
  15 N :    0.441174
  16 C :   -0.390625
  17 C :    0.297793
  18 C :   -0.627345
  19 O :   -0.000249
  20 N :   -0.267401
  21 C :   -0.006494
  22 O :   -0.469768
  23 C :    0.062117
  24 O :   -0.358778
  25 H :    0.173973
  26 H :    0.172441
  27 H :    0.172548
  28 H :    0.188158
  29 H :    0.180015
  30 H :    0.190927
  31 H :    0.188084
  32 H :    0.188672
  33 H :    0.180244
  34 H :    0.344450
  35 H :    0.213715
  36 H :    0.211395
  37 H :    0.208397
  38 H :    0.225626
  39 H :    0.233488
  40 H :    0.229237
  41 H :    0.348573
Sum of atomic charges:   -0.0000000

LOEWDIN ATOMIC CHARGES
----------------------
   0 C :   -0.042242
   1 O :   -0.579709
   2 C :    0.405948
   3 O :   -0.446876
   4 C :    0.184267
   5 N :   -0.638481
   6 C :    0.316701
   7 C :    0.109231
   8 C :   -0.350730
   9 C :   -0.350391
  10 N :   -0.588695
  11 C :    0.378568
  12 O :   -0.448731
  13 C :    0.477272
  14 N :   -0.200372
  15 N :   -0.510937
  16 C :   -0.021483
  17 C :    0.481666
  18 C :   -0.297437
  19 O :   -0.347749
  20 N :   -0.568518
  21 C :    0.308498
  22 O :   -0.549606
  23 C :    0.263431
  24 O :   -0.471028
  25 H :    0.183862
  26 H :    0.180785
  27 H :    0.179761
  28 H :    0.173990
  29 H :    0.171822
  30 H :    0.172236
  31 H :    0.173969
  32 H :    0.170557
  33 H :    0.171660
  34 H :    0.323303
  35 H :    0.213690
  36 H :    0.216022
  37 H :    0.215096
  38 H :    0.207748
  39 H :    0.211589
  40 H :    0.211711
  41 H :    0.309604

  Mayer bond orders larger than 0.100000
B(  0-C ,  1-O ) :   0.8362 B(  0-C , 25-H ) :   0.9649 B(  0-C , 26-H ) :   0.9582
B(  0-C , 27-H ) :   0.9564 B(  1-O ,  2-C ) :   1.1585 B(  2-C ,  3-O ) :   1.8269
B(  2-C ,  4-C ) :   1.0652 B(  4-C ,  5-N ) :   1.0260 B(  4-C , 23-C ) :   1.3034
B(  5-N ,  6-C ) :   1.5701 B(  5-N , 34-H ) :   0.1435 B(  6-C ,  7-C ) :   0.7436
B(  6-C , 10-N ) :  -0.1309 B(  6-C , 20-N ) :   1.1552 B(  7-C ,  8-C ) :   0.9130
B(  7-C ,  9-C ) :   0.9217 B(  7-C , 10-N ) :   0.9469 B(  8-C , 28-H ) :   0.9629
B(  8-C , 29-H ) :   0.9705 B(  8-C , 30-H ) :   0.9631 B(  9-C , 31-H ) :   0.9636
B(  9-C , 32-H ) :   0.9631 B(  9-C , 33-H ) :   0.9695 B( 10-N , 11-C ) :   1.2361
B( 10-N , 34-H ) :   0.7449 B( 11-C , 12-O ) :   1.9112 B( 11-C , 13-C ) :   0.8018
B( 13-C , 14-N ) :   1.7069 B( 13-C , 17-C ) :   0.1040 B( 13-C , 19-O ) :   1.0961
B( 14-N , 15-N ) :   1.3143 B( 14-N , 17-C ) :   0.1510 B( 15-N , 16-C ) :   0.9118
B( 15-N , 17-C ) :   1.4940 B( 16-C , 35-H ) :   0.9176 B( 16-C , 36-H ) :   0.9260
B( 16-C , 37-H ) :   0.9348 B( 17-C , 18-C ) :   0.8564 B( 17-C , 19-O ) :   1.1329
B( 18-C , 38-H ) :   0.9341 B( 18-C , 39-H ) :   0.9218 B( 18-C , 40-H ) :   0.9554
B( 20-N , 21-C ) :   1.3379 B( 21-C , 22-O ) :   1.9786 B( 21-C , 23-C ) :   0.9260
B( 22-O , 23-C ) :  -0.1014 B( 23-C , 24-O ) :   1.0974 B( 24-O , 41-H ) :   0.8035

Dispersion correction           -0.018892224
FINAL SINGLE POINT ENERGY     -1268.636129959685

DIPOLE MOMENT
-------------
                                X             Y             Z
Electronic contribution:     -3.77128      -1.29738      -1.12907
Nuclear contribution   :     12.07292       7.20674       5.71008
                        -----------------------------------------
Total Dipole Moment    :      8.30164       5.90936       4.58100
                        -----------------------------------------
Magnitude (a.u.)       :     11.17243
Magnitude (Debye)      :     28.39807

Rotational constants in cm-1:     0.010061     0.005205     0.003516
Rotational constants in MHz :   301.626209   156.036497   105.396020

                             ****ORCA TERMINATED NORMALLY****
TOTAL RUN TIME: 0 days 0 hours 2 minutes 12 seconds 692 msec
