   * xtb version 6.5.1 (579679a) compiled by 'ehlert@majestix' on 2022-07-11
          program call               : /lustre/hpc/kemi/ree/PhD/git/ReactivityQM/dep/xtb-6.5.1/bin/xtb --gfn 1 /lustre/hpc/kemi/ree/PhD/git/ReactivityQM/calculations/R02deprot/reac01prodN08/conf06/R02deprot_reac01prodN08_conf06_gfn1.xyz --opt --vfukui --chrg 0 --uhf 0 --alpb DMSO

   ID    Z sym.   atoms
    1    6 C      1, 3, 5, 7-10, 12, 14, 17-19, 22, 24
    2    8 O      2, 4, 13, 20, 23, 25
    3    7 N      6, 11, 15, 16, 21
    4    1 H      26-42

      * Solvation model:               ALPB
        Solvent                        DMSO
        Solvent mass                       7.8130E+01 g/mol
          :  Hamiltonian                  GFN1-xTB          :
 * total energy  :   -82.9477432 Eh     change       -0.2251312E-08 Eh
 * total energy  :   -82.9648997 Eh     change       -0.1715657E-01 Eh
 * total energy  :   -82.9709580 Eh     change       -0.6058250E-02 Eh
 * total energy  :   -82.9719417 Eh     change       -0.9837392E-03 Eh
 * total energy  :   -82.9726407 Eh     change       -0.6989464E-03 Eh
 * total energy  :   -82.9728928 Eh     change       -0.2521494E-03 Eh
 * total energy  :   -82.9731394 Eh     change       -0.2465392E-03 Eh
 * total energy  :   -82.9733391 Eh     change       -0.1997663E-03 Eh
 * total energy  :   -82.9735370 Eh     change       -0.1979238E-03 Eh
 * total energy  :   -82.9737693 Eh     change       -0.2322668E-03 Eh
 * total energy  :   -82.9771973 Eh     change       -0.3531886E-04 Eh
 * total energy  :   -82.9772310 Eh     change       -0.3364588E-04 Eh
 * total energy  :   -82.9772648 Eh     change       -0.3385494E-04 Eh
 * total energy  :   -82.9772888 Eh     change       -0.2397480E-04 Eh
 * total energy  :   -82.9773010 Eh     change       -0.1224552E-04 Eh
 * total energy  :   -82.9773080 Eh     change       -0.6964098E-05 Eh
 * total energy  :   -82.9773158 Eh     change       -0.7815648E-05 Eh
 * total energy  :   -82.9773218 Eh     change       -0.6036859E-05 Eh
 * total energy  :   -82.9773268 Eh     change       -0.4969887E-05 Eh
   *** GEOMETRY OPTIMIZATION CONVERGED AFTER 91 ITERATIONS ***

 final structure:
================
42
 xtb: 6.5.1 (579679a)
C           -3.07878711354804        3.40422208915642        1.98932585005410
O           -3.30878414855566        2.23482392027211        1.20596410776978
C           -2.22657843806722        1.52552490072949        0.86287794698686
O           -1.10117907673294        1.85568021910186        1.19897519506712
C           -2.52690941460576        0.32663948835433        0.05127375826829
N           -1.41041735880472       -0.37689066216095       -0.31392167735391
C           -1.55458260006598       -1.46454020910299       -1.03672302380778
C           -0.25999731023668       -2.19418793297302       -1.39670175453328
C           -0.26392265603771       -3.60508613988703       -0.80106487443796
C           -0.07335938659899       -2.23373792325784       -2.91657585906636
N            0.79110618478486       -1.38441446548289       -0.78270625349363
C            2.09464027924489       -1.59370992277707       -0.72286744231399
O            2.74837361166019       -2.50659817086825       -1.19366355339035
C            2.74134662101414       -0.47208934118120        0.06969329735735
N            3.98271850022720       -0.27468590616619        0.39884009811370
N            3.97325029670229        0.87259490478347        1.11409081435886
C            5.21060543289419        1.38817145046967        1.65430255654131
C            2.74543447314186        1.33925210538604        1.20597857717852
C            2.21441989252474        2.54101688052855        1.87019294952805
O            1.95857723787049        0.51144481008950        0.55618971965884
N           -2.68739159290669       -1.99536856678250       -1.48052095355741
C           -3.84558177682614       -1.36134477486957       -1.16435278090270
O           -4.97501613711318       -1.74939363860436       -1.51352818229543
C           -3.74981011868111       -0.13567308163391       -0.35440261806191
O           -4.93357752629743        0.44435521543769       -0.07161975113231
H           -4.04493276242973        3.88570614165093        2.13119080427187
H           -2.39366527422382        4.07915429260552        1.47045558855419
H           -2.64750950955639        3.13317185321807        2.95624541959375
H           -1.12452891678815       -4.14877558572926       -1.19015203598488
H           -0.33955534115667       -3.55051152680642        0.28420217952895
H            0.64942643377125       -4.13485921356094       -1.06823419206832
H           -0.93107925058781       -2.73456149725103       -3.36498830122207
H            0.83706533785193       -2.77389390960881       -3.17333973320535
H           -0.00786467063992       -1.22000372815159       -3.30955303107240
H            0.37812999536367       -0.56507750904922       -0.31730480402154
H            5.52780174559367        0.74902776281013        2.47745003368348
H            5.96112520435885        1.37827665065142        0.86698169342452
H            5.03932851573950        2.40025893249794        2.00741419682337
H            2.54826379714263        2.58314197341707        2.90539167898029
H            2.57341674677927        3.43604737242942        1.36228724030924
H            1.12430196016529        2.50953079531311        1.82487193293316
H           -5.61430388636253       -0.12263905295692       -0.49735781707124

          :  Hamiltonian                  GFN1-xTB          :
         :: total energy             -82.977326815134 Eh    ::
         :: gradient norm              0.000870684387 Eh/a0 ::
         :: HOMO-LUMO gap              1.005445631721 eV    ::
         :: SCC energy               -83.756739791406 Eh    ::
         :: -> Gsolv                  -0.083732934111 Eh    ::
         :: repulsion energy           0.805351788842 Eh    ::

    * Orbital Energies and Occupations

         #    Occupation            Energy/Eh            Energy/eV
      -------------------------------------------------------------
         1        2.0000           -0.9276205             -25.2418
       ...           ...                  ...                  ...
        55        2.0000           -0.4988699             -13.5749
        56        2.0000           -0.4959416             -13.4953
        57        2.0000           -0.4857822             -13.2188
        58        2.0000           -0.4849233             -13.1954
        59        2.0000           -0.4834708             -13.1559
        60        2.0000           -0.4685711             -12.7505
        61        2.0000           -0.4599031             -12.5146
        62        2.0000           -0.4527651             -12.3204
        63        2.0000           -0.4463216             -12.1450
        64        2.0000           -0.4279178             -11.6442
        65        2.0000           -0.4134234             -11.2498
        66        2.0000           -0.3828873             -10.4189
        67        2.0000           -0.3797255             -10.3329 (HOMO)
        68                         -0.3427760              -9.3274 (LUMO)
        69                         -0.3341566              -9.0929
        70                         -0.2848585              -7.7514
        71                         -0.2378561              -6.4724
        72                         -0.2236892              -6.0869
        73                         -0.1983062              -5.3962
        74                         -0.1790184              -4.8713
        75                         -0.1641745              -4.4674
        76                         -0.1306383              -3.5548
        77                         -0.1180343              -3.2119
        78                         -0.1172265              -3.1899
       ...                                ...                  ...
       134                          0.7432881              20.2259
      -------------------------------------------------------------
                  HL-Gap            0.0369494 Eh            1.0054 eV

Wiberg/Mayer (AO) data.
largest (>0.10) Wiberg bond orders for each atom

     #   Z sym  total        # sym  WBO       # sym  WBO       # sym  WBO
 ---------------------------------------------------------------------------
     1   6 C    3.883 --    26 H    0.986    27 H    0.980    28 H    0.980
                             2 O    0.908
     2   8 O    2.192 --     3 C    1.097     1 C    0.908     4 O    0.123
     3   6 C    3.838 --     4 O    1.613     2 O    1.097     5 C    1.030
     4   8 O    1.902 --     3 C    1.613     2 O    0.123
     5   6 C    3.959 --    24 C    1.483     6 N    1.185     3 C    1.030
     6   7 N    3.059 --     7 C    1.461     5 C    1.185
     7   6 C    3.958 --     6 N    1.461    21 N    1.375     8 C    0.966
     8   6 C    3.918 --     9 C    0.984    10 C    0.983     7 C    0.966
                            11 N    0.912
     9   6 C    3.991 --    30 H    0.986    31 H    0.984     8 C    0.984
                            29 H    0.983
    10   6 C    3.991 --    34 H    0.986    33 H    0.985    32 H    0.983
                             8 C    0.983
    11   7 N    3.420 --    12 C    1.346     8 C    0.912    35 H    0.830
                            13 O    0.210
    12   6 C    3.931 --    13 O    1.572    11 N    1.346    14 C    0.939
    13   8 O    1.900 --    12 C    1.572    11 N    0.210
    14   6 C    3.827 --    15 N    1.618    20 O    1.054    12 C    0.939
    15   7 N    2.972 --    14 C    1.618    16 N    1.138
    16   7 N    3.626 --    18 C    1.425    15 N    1.138    17 C    0.915
    17   6 C    3.893 --    38 H    0.981    37 H    0.971    36 H    0.966
                            16 N    0.915
    18   6 C    3.840 --    16 N    1.425    20 O    1.151    19 C    1.038
    19   6 C    3.959 --    18 C    1.038    41 H    0.964    39 H    0.954
                            40 H    0.943
    20   8 O    2.384 --    18 C    1.151    14 C    1.054
    21   7 N    2.981 --     7 C    1.375    22 C    1.244    23 O    0.123
    22   6 C    3.928 --    23 O    1.483    21 N    1.244    24 C    1.063
    23   8 O    1.821 --    22 C    1.483    21 N    0.123
    24   6 C    3.907 --     5 C    1.483    25 O    1.081    22 C    1.063
    25   8 O    2.056 --    24 C    1.081    42 H    0.810
    26   1 H    1.012 --     1 C    0.986
    27   1 H    1.010 --     1 C    0.980
    28   1 H    1.009 --     1 C    0.980
    29   1 H    1.010 --     9 C    0.983
    30   1 H    1.004 --     9 C    0.986
    31   1 H    1.007 --     9 C    0.984
    32   1 H    1.010 --    10 C    0.983
    33   1 H    1.005 --    10 C    0.985
    34   1 H    1.004 --    10 C    0.986
    35   1 H    0.962 --    11 N    0.830
    36   1 H    0.991 --    17 C    0.966
    37   1 H    0.992 --    17 C    0.971
    38   1 H    0.991 --    17 C    0.981
    39   1 H    0.989 --    19 C    0.954
    40   1 H    0.988 --    19 C    0.943
    41   1 H    1.005 --    19 C    0.964
    42   1 H    0.872 --    25 O    0.810
 ---------------------------------------------------------------------------

           -------------------------------------------------
          | TOTAL ENERGY              -82.977326815134 Eh   |
          | GRADIENT NORM               0.000870684387 Eh/α |
          | HOMO-LUMO GAP               1.005445631721 eV   |
           -------------------------------------------------

 * finished run on 2023/06/20 at 18:15:33.367
