   * xtb version 6.5.1 (579679a) compiled by 'ehlert@majestix' on 2022-07-11
          program call               : /lustre/hpc/kemi/ree/PhD/git/ReactivityQM/dep/xtb-6.5.1/bin/xtb --gfn 1 /lustre/hpc/kemi/ree/PhD/git/ReactivityQM/calculations/R02methylcation/reac01prodE11/conf07/R02methylcation_reac01prodE11_conf07_gfn1.xyz --opt --vfukui --chrg -2 --uhf 0 --alpb DMSO

   ID    Z sym.   atoms
    1    6 C      1, 3, 5, 7-10, 12, 14, 17-19, 22, 24
    2    8 O      2, 4, 13, 20, 23, 25
    3    7 N      6, 11, 15, 16, 21
    4    1 H      26-42

      * Solvation model:               ALPB
        Solvent                        DMSO
        Solvent mass                       7.8130E+01 g/mol
          :  Hamiltonian                  GFN1-xTB          :
 * total energy  :   -83.6549320 Eh     change       -0.6390621E-10 Eh
 * total energy  :   -83.6639198 Eh     change       -0.8987808E-02 Eh
 * total energy  :   -83.6665487 Eh     change       -0.2628870E-02 Eh
 * total energy  :   -83.6671644 Eh     change       -0.6156919E-03 Eh
 * total energy  :   -83.6677757 Eh     change       -0.6112783E-03 Eh
 * total energy  :   -83.6680513 Eh     change       -0.2756304E-03 Eh
 * total energy  :   -83.6682168 Eh     change       -0.1654487E-03 Eh
 * total energy  :   -83.6682877 Eh     change       -0.7097202E-04 Eh
 * total energy  :   -83.6683142 Eh     change       -0.2643459E-04 Eh
 * total energy  :   -83.6683304 Eh     change       -0.1623214E-04 Eh
 * total energy  :   -83.6683791 Eh     change       -0.8444695E-05 Eh
 * total energy  :   -83.6683868 Eh     change       -0.7700944E-05 Eh
 * total energy  :   -83.6683941 Eh     change       -0.7320349E-05 Eh
 * total energy  :   -83.6684030 Eh     change       -0.8889126E-05 Eh
 * total energy  :   -83.6684158 Eh     change       -0.1278129E-04 Eh
 * total energy  :   -83.6684319 Eh     change       -0.1611810E-04 Eh
 * total energy  :   -83.6684463 Eh     change       -0.1434462E-04 Eh
 * total energy  :   -83.6684572 Eh     change       -0.1093047E-04 Eh
 * total energy  :   -83.6684622 Eh     change       -0.4989391E-05 Eh
   *** GEOMETRY OPTIMIZATION CONVERGED AFTER 22 ITERATIONS ***

 final structure:
================
42
 xtb: 6.5.1 (579679a)
C            6.22538837982482        1.17051836714312       -0.46907609818261
O            4.92317613524379        0.61870193589520       -0.35865075160315
C            4.66745090596506       -0.45636191135310       -1.17269864874275
O            5.53221982457218       -0.86183483922403       -1.93653707442713
C            3.33261555005149       -0.99261796940719       -0.98791297045096
N            2.55229307128906       -0.33257640065998       -0.05353971446959
C            1.36485949092247       -0.73958215948705        0.20599009342698
C            0.52476781126796       -0.06916535734112        1.27825266601011
C            0.98017917761743        1.38784373805510        1.44835426647934
C            0.74103976089300       -0.86014813406623        2.58075091971365
N           -0.87389238844917       -0.15155952830527        0.86022797493789
C           -1.88162108405198        0.46937427841923        1.62964699633917
O           -1.71531830696000        0.75629109534548        2.83405603521258
C           -3.08407325458403        0.67376105145841        0.92068132233825
N           -4.20910593813405        1.20085505531798        1.38585989059365
N           -5.11864938752447        1.26285967503404        0.46175697841664
C           -4.53833213990302        0.71023946834416       -0.77350654557091
C           -4.53896623803544        1.78391203119744       -1.87434631157226
C           -5.34269259224805       -0.52415877093199       -1.21534947972492
O           -3.20659261374965        0.33925420633782       -0.44535382288755
N            0.82855684053210       -1.85418968539883       -0.40554575482716
C            1.48180376939082       -2.59813425904123       -1.34920093568401
O            0.93251293328358       -3.58341806580130       -1.84239768583910
C            2.87666835037427       -2.13194491181774       -1.70276781142482
O            3.51832591919995       -2.76388898309665       -2.56410903000951
H            6.98720656319229        0.42532898876442       -0.21649190038448
H            6.28232171933859        2.00274425723118        0.23157579053955
H            6.41245475421725        1.53213595642656       -1.48569164922541
H            2.04869232811310        1.41141330281583        1.66094884493242
H            0.79467640681695        1.94685414738049        0.53162960190780
H            0.44274020729387        1.85919076565507        2.26956209148105
H            1.80620078162412       -0.89863398183712        2.80786793578648
H            0.36861451613754       -1.87696156357919        2.46065363955928
H            0.22060921172628       -0.38885858431635        3.41232611430477
H           -1.00406703301149        0.00667152866421       -0.13232493814018
H           -3.97130991373461        2.64923136867395       -1.53563132906465
H           -5.56135252028438        2.09086897730040       -2.08504844769850
H           -4.08488036163693        1.39368143395446       -2.78370335991705
H           -5.32650949308559       -1.26833544076753       -0.42051769317680
H           -6.37375950348598       -0.23767162602762       -1.41226038221409
H           -4.90974274575008       -0.95548116046544       -2.11626156072901
H           -0.10451089426217       -2.14620929648770       -0.15305526601354

          :  Hamiltonian                  GFN1-xTB          :
         :: total energy             -83.668462192008 Eh    ::
         :: gradient norm              0.000330685976 Eh/a0 ::
         :: HOMO-LUMO gap              1.346987645190 eV    ::
         :: SCC energy               -84.405672578808 Eh    ::
         :: -> Gsolv                  -0.252970085649 Eh    ::
         :: repulsion energy           0.762730588174 Eh    ::

    * Orbital Energies and Occupations

         #    Occupation            Energy/Eh            Energy/eV
      -------------------------------------------------------------
         1        2.0000           -0.7906431             -21.5145
       ...           ...                  ...                  ...
        56        2.0000           -0.4451251             -12.1125
        57        2.0000           -0.4425404             -12.0421
        58        2.0000           -0.4300972             -11.7035
        59        2.0000           -0.4293948             -11.6844
        60        2.0000           -0.4279620             -11.6454
        61        2.0000           -0.4090531             -11.1309
        62        2.0000           -0.4049672             -11.0197
        63        2.0000           -0.3997470             -10.8777
        64        2.0000           -0.3872109             -10.5365
        65        2.0000           -0.3680135             -10.0142
        66        2.0000           -0.3648154              -9.9271
        67        2.0000           -0.3551641              -9.6645
        68        2.0000           -0.3110100              -8.4630 (HOMO)
        69                         -0.2615091              -7.1160 (LUMO)
        70                         -0.2336018              -6.3566
        71                         -0.2251875              -6.1277
        72                         -0.1878830              -5.1126
        73                         -0.1210093              -3.2928
        74                         -0.1188251              -3.2334
        75                         -0.1009166              -2.7461
        76                         -0.1007802              -2.7424
        77                         -0.0974530              -2.6518
        78                         -0.0952563              -2.5921
        79                         -0.0947305              -2.5777
       ...                                ...                  ...
       134                          0.7700541              20.9542
      -------------------------------------------------------------
                  HL-Gap            0.0495009 Eh            1.3470 eV

Wiberg/Mayer (AO) data.
largest (>0.10) Wiberg bond orders for each atom

     #   Z sym  total        # sym  WBO       # sym  WBO       # sym  WBO
 ---------------------------------------------------------------------------
     1   6 C    3.903 --    27 H    0.987    26 H    0.980    28 H    0.980
                             2 O    0.931
     2   8 O    2.133 --     3 C    1.017     1 C    0.931     4 O    0.106
     3   6 C    3.849 --     4 O    1.585     5 C    1.128     2 O    1.017
     4   8 O    1.862 --     3 C    1.585     2 O    0.106
     5   6 C    3.918 --    24 C    1.271     6 N    1.148     3 C    1.128
                            25 O    0.130
     6   7 N    3.025 --     7 C    1.633     5 C    1.148
     7   6 C    3.929 --     6 N    1.633    21 N    1.096     8 C    0.977
     8   6 C    3.958 --     9 C    0.989    10 C    0.980     7 C    0.977
                            11 N    0.953
     9   6 C    3.994 --     8 C    0.989    30 H    0.987    29 H    0.985
                            31 H    0.984
    10   6 C    3.992 --    32 H    0.988    33 H    0.986     8 C    0.980
                            34 H    0.978
    11   7 N    3.180 --    12 C    1.058     8 C    0.953    35 H    0.919
    12   6 C    3.924 --    13 O    1.450    14 C    1.234    11 N    1.058
    13   8 O    1.791 --    12 C    1.450
    14   6 C    3.843 --    15 N    1.394    12 C    1.234    20 O    0.922
                            16 N    0.156
    15   7 N    3.024 --    16 N    1.473    14 C    1.394
    16   7 N    2.879 --    15 N    1.473    17 C    0.981    14 C    0.156
    17   6 C    3.899 --    16 N    0.981    18 C    0.978    19 C    0.978
                            20 O    0.924
    18   6 C    3.994 --    37 H    0.988    38 H    0.987    36 H    0.985
                            17 C    0.978
    19   6 C    3.994 --    40 H    0.988    41 H    0.987    39 H    0.985
                            17 C    0.978
    20   8 O    2.053 --    17 C    0.924    14 C    0.922
    21   7 N    3.434 --    22 C    1.171     7 C    1.096    42 H    0.894
                            23 O    0.135
    22   6 C    3.881 --    23 O    1.567    21 N    1.171    24 C    0.970
    23   8 O    1.845 --    22 C    1.567    21 N    0.135
    24   6 C    3.943 --    25 O    1.515     5 C    1.271    22 C    0.970
    25   8 O    1.819 --    24 C    1.515     5 C    0.130
    26   1 H    1.015 --     1 C    0.980
    27   1 H    1.017 --     1 C    0.987
    28   1 H    1.015 --     1 C    0.980
    29   1 H    1.019 --     9 C    0.985
    30   1 H    1.008 --     9 C    0.987
    31   1 H    1.016 --     9 C    0.984
    32   1 H    1.008 --    10 C    0.988
    33   1 H    1.009 --    10 C    0.986
    34   1 H    1.024 --    10 C    0.978
    35   1 H    0.968 --    11 N    0.919
    36   1 H    1.015 --    18 C    0.985
    37   1 H    1.011 --    18 C    0.988
    38   1 H    1.008 --    18 C    0.987
    39   1 H    1.015 --    19 C    0.985
    40   1 H    1.011 --    19 C    0.988
    41   1 H    1.008 --    19 C    0.987
    42   1 H    0.955 --    21 N    0.894
 ---------------------------------------------------------------------------

           -------------------------------------------------
          | TOTAL ENERGY              -83.668462192008 Eh   |
          | GRADIENT NORM               0.000330685976 Eh/α |
          | HOMO-LUMO GAP               1.346987645190 eV   |
           -------------------------------------------------

 * finished run on 2023/06/21 at 17:22:32.678
