                         Program Version 5.0.1 -  RELEASE  -
|  1> # ORCA input file
|  2> ! SP r2SCAN-3c CPCM
|  3>
|  4> %maxcore 1875.0
|  5> %pal nprocs 4 end
|  6> %cpcm smd true SMDsolvent "DMSO" end
|  7>
|  8> *xyz 0 1
|  9> C       6.605436   -1.590734   -0.066972
| 10> O       5.438903   -0.969429    0.456923
| 11> C       4.453435   -0.711498   -0.433507
| 12> O       4.585332   -0.995300   -1.616820
| 13> C       3.266051   -0.084016    0.138872
| 14> N       2.288713    0.167038   -0.802682
| 15> C       1.189694    0.727822   -0.463870
| 16> C       0.134757    1.057430   -1.497554
| 17> C       0.156666    2.556681   -1.807149
| 18> C       0.349549    0.228082   -2.764878
| 19> N      -1.193384    0.757608   -0.925870
| 20> C      -1.510908   -0.443529   -0.436099
| 21> O      -0.802031   -1.432413   -0.397848
| 22> C      -2.899161   -0.476135    0.126455
| 23> O      -3.678485    0.598059    0.192724
| 24> C      -4.821793    0.195246    0.775802
| 25> C      -5.917855    1.149189    1.013557
| 26> N      -4.778040   -1.070131    1.067637
| 27> N      -3.562297   -1.483673    0.655951
| 28> C      -3.204535   -2.877499    0.818666
| 29> N       0.925458    1.107283    0.835117
| 30> C       1.791212    0.892727    1.880072
| 31> O       1.473021    1.234042    3.014310
| 32> C       3.107483    0.239699    1.514606
| 33> O       3.935909    0.034716    2.417358
| 34> H       6.369075   -2.585622   -0.457171
| 35> H       7.317572   -1.674830    0.753258
| 36> H       7.036519   -0.988527   -0.872980
| 37> H      -0.617851    2.801578   -2.531155
| 38> H      -0.014867    3.130487   -0.898026
| 39> H       1.126633    2.829987   -2.220542
| 40> H      -0.423593    0.456612   -3.494992
| 41> H       0.320489   -0.834927   -2.530113
| 42> H       1.326964    0.468182   -3.182254
| 43> H      -1.888286    1.482688   -0.931783
| 44> H      -6.778191    0.629748    1.428772
| 45> H      -6.190164    1.636533    0.076926
| 46> H      -5.583503    1.923360    1.706509
| 47> H      -3.256023   -3.123144    1.878427
| 48> H      -2.199309   -3.031189    0.433270
| 49> H      -3.926521   -3.478991    0.268815
| 50> H       0.047927    1.546791    1.048928
| 51> **                         ****END OF INPUT****

CARTESIAN COORDINATES (ANGSTROEM)
---------------------------------
  C      6.605436   -1.590734   -0.066972
  O      5.438903   -0.969429    0.456923
  C      4.453435   -0.711498   -0.433507
  O      4.585332   -0.995300   -1.616820
  C      3.266051   -0.084016    0.138872
  N      2.288713    0.167038   -0.802682
  C      1.189694    0.727822   -0.463870
  C      0.134757    1.057430   -1.497554
  C      0.156666    2.556681   -1.807149
  C      0.349549    0.228082   -2.764878
  N     -1.193384    0.757608   -0.925870
  C     -1.510908   -0.443529   -0.436099
  O     -0.802031   -1.432413   -0.397848
  C     -2.899161   -0.476135    0.126455
  O     -3.678485    0.598059    0.192724
  C     -4.821793    0.195246    0.775802
  C     -5.917855    1.149189    1.013557
  N     -4.778040   -1.070131    1.067637
  N     -3.562297   -1.483673    0.655951
  C     -3.204535   -2.877499    0.818666
  N      0.925458    1.107283    0.835117
  C      1.791212    0.892727    1.880072
  O      1.473021    1.234042    3.014310
  C      3.107483    0.239699    1.514606
  O      3.935909    0.034716    2.417358
  H      6.369075   -2.585622   -0.457171
  H      7.317572   -1.674830    0.753258
  H      7.036519   -0.988527   -0.872980
  H     -0.617851    2.801578   -2.531155
  H     -0.014867    3.130487   -0.898026
  H      1.126633    2.829987   -2.220542
  H     -0.423593    0.456612   -3.494992
  H      0.320489   -0.834927   -2.530113
  H      1.326964    0.468182   -3.182254
  H     -1.888286    1.482688   -0.931783
  H     -6.778191    0.629748    1.428772
  H     -6.190164    1.636533    0.076926
  H     -5.583503    1.923360    1.706509
  H     -3.256023   -3.123144    1.878427
  H     -2.199309   -3.031189    0.433270
  H     -3.926521   -3.478991    0.268815
  H      0.047927    1.546791    1.048928

 Total Charge           Charge          ....    0
 Multiplicity           Mult            ....    1
 Number of Electrons    NEL             ....  184
 Basis Dimension        Dim             ....  615

ORBITAL ENERGIES
----------------

  NO   OCC          E(Eh)            E(eV)
   0   2.0000     -19.110936      -520.0350
   1   2.0000     -18.969372      -516.1829
   2   2.0000     -18.956476      -515.8319
   3   2.0000     -18.907079      -514.4878
   4   2.0000     -18.902990      -514.3765
   5   2.0000     -18.878314      -513.7050
   6   2.0000     -14.329758      -389.9325
   7   2.0000     -14.246097      -387.6560
   8   2.0000     -14.220027      -386.9466
   9   2.0000     -14.198789      -386.3687
  10   2.0000     -14.139063      -384.7435
  11   2.0000     -10.210071      -277.8302
  12   2.0000     -10.190272      -277.2914
  13   2.0000     -10.183082      -277.0957
  14   2.0000     -10.125414      -275.5265
  15   2.0000     -10.115204      -275.2487
  16   2.0000     -10.102276      -274.8969
  17   2.0000     -10.091024      -274.5907
  18   2.0000     -10.089114      -274.5387
  19   2.0000     -10.073783      -274.1216
  20   2.0000     -10.062667      -273.8191
  21   2.0000     -10.060492      -273.7599
  22   2.0000     -10.037296      -273.1287
  23   2.0000     -10.027064      -272.8503
  24   2.0000     -10.018117      -272.6068
  25   2.0000      -1.211909       -32.9777
  26   2.0000      -1.056610       -28.7518
  27   2.0000      -1.047355       -28.5000
  28   2.0000      -1.041667       -28.3452
  29   2.0000      -0.999116       -27.1873
  30   2.0000      -0.949211       -25.8293
  31   2.0000      -0.943240       -25.6669
  32   2.0000      -0.939912       -25.5763
  33   2.0000      -0.922229       -25.0951
  34   2.0000      -0.897431       -24.4203
  35   2.0000      -0.849101       -23.1052
  36   2.0000      -0.788031       -21.4434
  37   2.0000      -0.771286       -20.9878
  38   2.0000      -0.742200       -20.1963
  39   2.0000      -0.710299       -19.3282
  40   2.0000      -0.686639       -18.6844
  41   2.0000      -0.670783       -18.2529
  42   2.0000      -0.664869       -18.0920
  43   2.0000      -0.648792       -17.6545
  44   2.0000      -0.623465       -16.9653
  45   2.0000      -0.615817       -16.7572
  46   2.0000      -0.602585       -16.3972
  47   2.0000      -0.564906       -15.3719
  48   2.0000      -0.548972       -14.9383
  49   2.0000      -0.546794       -14.8790
  50   2.0000      -0.523512       -14.2455
  51   2.0000      -0.516518       -14.0552
  52   2.0000      -0.502801       -13.6819
  53   2.0000      -0.477900       -13.0043
  54   2.0000      -0.472337       -12.8529
  55   2.0000      -0.460274       -12.5247
  56   2.0000      -0.452232       -12.3059
  57   2.0000      -0.441898       -12.0247
  58   2.0000      -0.439589       -11.9618
  59   2.0000      -0.434660       -11.8277
  60   2.0000      -0.431306       -11.7364
  61   2.0000      -0.426401       -11.6030
  62   2.0000      -0.416800       -11.3417
  63   2.0000      -0.410536       -11.1713
  64   2.0000      -0.406873       -11.0716
  65   2.0000      -0.400316       -10.8932
  66   2.0000      -0.396898       -10.8001
  67   2.0000      -0.390902       -10.6370
  68   2.0000      -0.381421       -10.3790
  69   2.0000      -0.377309       -10.2671
  70   2.0000      -0.366047        -9.9606
  71   2.0000      -0.364623        -9.9219
  72   2.0000      -0.360328        -9.8050
  73   2.0000      -0.354408        -9.6439
  74   2.0000      -0.351221        -9.5572
  75   2.0000      -0.349781        -9.5180
  76   2.0000      -0.338928        -9.2227
  77   2.0000      -0.334572        -9.1042
  78   2.0000      -0.326457        -8.8833
  79   2.0000      -0.316959        -8.6249
  80   2.0000      -0.307545        -8.3687
  81   2.0000      -0.301000        -8.1906
  82   2.0000      -0.299829        -8.1588
  83   2.0000      -0.270692        -7.3659
  84   2.0000      -0.267284        -7.2732
  85   2.0000      -0.251025        -6.8307
  86   2.0000      -0.242972        -6.6116
  87   2.0000      -0.242696        -6.6041
  88   2.0000      -0.226447        -6.1619
  89   2.0000      -0.210003        -5.7145
  90   2.0000      -0.172745        -4.7006
  91   2.0000      -0.157459        -4.2847
  92   0.0000      -0.130378        -3.5478
  93   0.0000      -0.062193        -1.6924
  94   0.0000      -0.051488        -1.4011
  95   0.0000      -0.009290        -0.2528
  96   0.0000       0.015464         0.4208

MULLIKEN ATOMIC CHARGES
-----------------------
   0 C :   -0.329174
   1 O :   -0.149674
   2 C :    0.133852
   3 O :   -0.438032
   4 C :   -0.034281
   5 N :   -0.145825
   6 C :    0.164405
   7 C :    0.078580
   8 C :   -0.556374
   9 C :   -0.612891
  10 N :   -0.149654
  11 C :    0.024170
  12 O :   -0.459558
  13 C :    0.198747
  14 O :    0.016340
  15 C :    0.493159
  16 C :   -0.617783
  17 N :   -0.412375
  18 N :    0.515485
  19 C :   -0.408650
  20 N :   -0.035237
  21 C :    0.017954
  22 O :   -0.396238
  23 C :   -0.091496
  24 O :   -0.370015
  25 H :    0.162496
  26 H :    0.164206
  27 H :    0.163479
  28 H :    0.187936
  29 H :    0.189046
  30 H :    0.196854
  31 H :    0.184129
  32 H :    0.195083
  33 H :    0.189585
  34 H :    0.328549
  35 H :    0.218129
  36 H :    0.214508
  37 H :    0.218382
  38 H :    0.215740
  39 H :    0.221626
  40 H :    0.215329
  41 H :    0.299486
Sum of atomic charges:    0.0000000

LOEWDIN ATOMIC CHARGES
----------------------
   0 C :   -0.055248
   1 O :   -0.602207
   2 C :    0.385333
   3 O :   -0.479580
   4 C :    0.120355
   5 N :   -0.595122
   6 C :    0.309306
   7 C :    0.110110
   8 C :   -0.341092
   9 C :   -0.344677
  10 N :   -0.549565
  11 C :    0.385387
  12 O :   -0.437968
  13 C :    0.525322
  14 O :   -0.333456
  15 C :    0.428578
  16 C :   -0.299273
  17 N :   -0.216761
  18 N :   -0.493040
  19 C :   -0.021198
  20 N :   -0.483414
  21 C :    0.356757
  22 O :   -0.477052
  23 C :    0.227861
  24 O :   -0.564451
  25 H :    0.172879
  26 H :    0.177493
  27 H :    0.174367
  28 H :    0.173044
  29 H :    0.173853
  30 H :    0.179195
  31 H :    0.167468
  32 H :    0.180893
  33 H :    0.178559
  34 H :    0.303156
  35 H :    0.200456
  36 H :    0.202452
  37 H :    0.204327
  38 H :    0.217613
  39 H :    0.223819
  40 H :    0.217712
  41 H :    0.297810

  Mayer bond orders larger than 0.100000
B(  0-C ,  1-O ) :   0.8463 B(  0-C , 25-H ) :   0.9608 B(  0-C , 26-H ) :   0.9695
B(  0-C , 27-H ) :   0.9628 B(  1-O ,  2-C ) :   1.1298 B(  2-C ,  3-O ) :   1.8917
B(  2-C ,  4-C ) :   1.1489 B(  4-C ,  5-N ) :   0.9035 B(  4-C , 23-C ) :   0.9752
B(  5-N ,  6-C ) :   1.8533 B(  6-C ,  7-C ) :   0.7913 B(  6-C , 20-N ) :   0.9978
B(  7-C ,  8-C ) :   0.9532 B(  7-C ,  9-C ) :   0.8947 B(  7-C , 10-N ) :   0.8010
B(  8-C , 28-H ) :   0.9634 B(  8-C , 29-H ) :   0.9524 B(  8-C , 30-H ) :   0.9664
B(  9-C , 31-H ) :   0.9739 B(  9-C , 32-H ) :   0.9646 B(  9-C , 33-H ) :   0.9607
B( 10-N , 11-C ) :   1.2093 B( 10-N , 12-O ) :   0.1058 B( 10-N , 34-H ) :   0.8852
B( 11-C , 12-O ) :   1.7345 B( 11-C , 13-C ) :   0.9141 B( 11-C , 18-N ) :  -0.1054
B( 13-C , 14-O ) :   1.1374 B( 13-C , 17-N ) :   0.1969 B( 13-C , 18-N ) :   1.6577
B( 14-O , 15-C ) :   1.0525 B( 15-C , 16-C ) :   0.8532 B( 15-C , 17-N ) :   1.5143
B( 16-C , 35-H ) :   0.9748 B( 16-C , 36-H ) :   0.9335 B( 16-C , 37-H ) :   0.9245
B( 17-N , 18-N ) :   1.2338 B( 18-N , 19-C ) :   0.8996 B( 19-C , 38-H ) :   0.9179
B( 19-C , 39-H ) :   0.9300 B( 19-C , 40-H ) :   0.9162 B( 20-N , 21-C ) :   1.0079
B( 20-N , 41-H ) :   0.8876 B( 21-C , 22-O ) :   2.0823 B( 21-C , 23-C ) :   0.8792
B( 23-C , 24-O ) :   1.9519

Dispersion correction           -0.018631825
FINAL SINGLE POINT ENERGY     -1268.629430660085

DIPOLE MOMENT
-------------
                                X             Y             Z
Electronic contribution:     -1.67113      -1.19508       9.09744
Nuclear contribution   :    -11.86282       2.01456     -11.27831
                        -----------------------------------------
Total Dipole Moment    :    -13.53395       0.81948      -2.18087
                        -----------------------------------------
Magnitude (a.u.)       :     13.73301
Magnitude (Debye)      :     34.90654

Rotational constants in cm-1:     0.014596     0.003577     0.003471
Rotational constants in MHz :   437.566503   107.248631   104.046684

                             ****ORCA TERMINATED NORMALLY****
TOTAL RUN TIME: 0 days 0 hours 1 minutes 33 seconds 51 msec
