   * xtb version 6.5.1 (579679a) compiled by 'ehlert@majestix' on 2022-07-11
          program call               : /lustre/hpc/kemi/ree/PhD/git/ReactivityQM/dep/xtb-6.5.1/bin/xtb --gfn 1 /lustre/hpc/kemi/ree/PhD/git/ReactivityQM/calculations/R02oxygendeprot/reac01prodN06/conf19/R02oxygendeprot_reac01prodN06_conf19_gfn1.xyz --opt --vfukui --chrg 0 --uhf 0 --alpb DMSO

   ID    Z sym.   atoms
    1    6 C      1, 3, 5, 7-10, 12, 14, 16, 17, 20, 22, 24
    2    8 O      2, 4, 13, 15, 23, 25
    3    7 N      6, 11, 18, 19, 21
    4    1 H      26-42

      * Solvation model:               ALPB
        Solvent                        DMSO
        Solvent mass                       7.8130E+01 g/mol
          :  Hamiltonian                  GFN1-xTB          :
 * total energy  :   -82.9467576 Eh     change       -0.8925696E-09 Eh
 * total energy  :   -82.9631343 Eh     change       -0.1637662E-01 Eh
 * total energy  :   -82.9713269 Eh     change       -0.8192588E-02 Eh
 * total energy  :   -82.9733103 Eh     change       -0.1983467E-02 Eh
 * total energy  :   -82.9746705 Eh     change       -0.1360159E-02 Eh
 * total energy  :   -82.9753646 Eh     change       -0.6940758E-03 Eh
 * total energy  :   -82.9759383 Eh     change       -0.5737626E-03 Eh
 * total energy  :   -82.9763619 Eh     change       -0.4235724E-03 Eh
 * total energy  :   -82.9767162 Eh     change       -0.3543598E-03 Eh
 * total energy  :   -82.9770462 Eh     change       -0.3299152E-03 Eh
 * total energy  :   -82.9854962 Eh     change       -0.4064085E-04 Eh
 * total energy  :   -82.9855285 Eh     change       -0.3233149E-04 Eh
 * total energy  :   -82.9855542 Eh     change       -0.2567171E-04 Eh
 * total energy  :   -82.9855744 Eh     change       -0.2016571E-04 Eh
 * total energy  :   -82.9855974 Eh     change       -0.2306096E-04 Eh
 * total energy  :   -82.9856295 Eh     change       -0.3210157E-04 Eh
 * total energy  :   -82.9856377 Eh     change       -0.8198236E-05 Eh
 * total energy  :   -82.9856489 Eh     change       -0.1120705E-04 Eh
 * total energy  :   -82.9856526 Eh     change       -0.3730490E-05 Eh
   *** GEOMETRY OPTIMIZATION CONVERGED AFTER 82 ITERATIONS ***

 final structure:
================
42
 xtb: 6.5.1 (579679a)
C            6.60543561212663       -1.59073369107922       -0.06697249277619
O            5.43890343219789       -0.96942895262766        0.45692285225391
C            4.45343468002429       -0.71149775001190       -0.43350655978840
O            4.58533235250770       -0.99530005209747       -1.61682029312585
C            3.26605130327029       -0.08401582312237        0.13887223221288
N            2.28871320050350        0.16703776574831       -0.80268193275624
C            1.18969371625288        0.72782226084237       -0.46386996601341
C            0.13475685930679        1.05743002558163       -1.49755442707400
C            0.15666558313349        2.55668103941988       -1.80714945343048
C            0.34954932622399        0.22808229179085       -2.76487811149748
N           -1.19338444939885        0.75760799406583       -0.92586976221118
C           -1.51090793800141       -0.44352930210258       -0.43609933083768
O           -0.80203051581302       -1.43241347226362       -0.39784844280565
C           -2.89916076384475       -0.47613475763192        0.12645490073671
O           -3.67848474077926        0.59805884770823        0.19272447429082
C           -4.82179344856955        0.19524555230287        0.77580211090343
C           -5.91785487025914        1.14918943490195        1.01355701323554
N           -4.77803950326335       -1.07013077691895        1.06763743847224
N           -3.56229655573342       -1.48367317096542        0.65595118768384
C           -3.20453537611492       -2.87749864980664        0.81866630613193
N            0.92545812368798        1.10728332237435        0.83511683219788
C            1.79121156541101        0.89272683390876        1.88007248014141
O            1.47302081851794        1.23404161030628        3.01431038230645
C            3.10748330546706        0.23969891258643        1.51460617455498
O            3.93590947959800        0.03471570027051        2.41735819732748
H            6.36907549861185       -2.58562157998777       -0.45717050697512
H            7.31757166062977       -1.67483008210025        0.75325805596258
H            7.03651913583110       -0.98852691703523       -0.87298026360724
H           -0.61785068208435        2.80157770930054       -2.53115465061401
H           -0.01486683731816        3.13048671357905       -0.89802557778312
H            1.12663280174474        2.82998707698912       -2.22054209542675
H           -0.42359267916587        0.45661241988231       -3.49499222448236
H            0.32048912854211       -0.83492659379275       -2.53011269170133
H            1.32696383349235        0.46818202435791       -3.18225415546297
H           -1.88828618196272        1.48268785810535       -0.93178268185594
H           -6.77819136239528        0.62974774061632        1.42877215286464
H           -6.19016412784715        1.63653303991746        0.07692627110765
H           -5.58350277352852        1.92335958419371        1.70650879813267
H           -3.25602341862770       -3.12314396129462        1.87842722937166
H           -2.19930936547561       -3.03118902986698        0.43327044969133
H           -3.92652145473325       -3.47899091677698        0.26881517623307
H            0.04792662785523        1.54679072071929        1.04892790442826

          :  Hamiltonian                  GFN1-xTB          :
         :: total energy             -82.985652649284 Eh    ::
         :: gradient norm              0.000897590087 Eh/a0 ::
         :: HOMO-LUMO gap              0.209327324728 eV    ::
         :: SCC energy               -83.773856584385 Eh    ::
         :: -> Gsolv                  -0.120130956861 Eh    ::
         :: repulsion energy           0.813842459586 Eh    ::

    * Orbital Energies and Occupations

         #    Occupation            Energy/Eh            Energy/eV
      -------------------------------------------------------------
         1        2.0000           -0.9274359             -25.2368
       ...           ...                  ...                  ...
        55        2.0000           -0.5093398             -13.8598
        56        2.0000           -0.5062498             -13.7758
        57        2.0000           -0.4986340             -13.5685
        58        2.0000           -0.4920280             -13.3888
        59        2.0000           -0.4863904             -13.2354
        60        2.0000           -0.4727236             -12.8635
        61        2.0000           -0.4697864             -12.7835
        62        2.0000           -0.4653562             -12.6630
        63        2.0000           -0.4489514             -12.2166
        64        2.0000           -0.4431594             -12.0590
        65        2.0000           -0.4259590             -11.5909
        66        2.0000           -0.3876046             -10.5473
        67        1.9657           -0.3745140             -10.1910 (HOMO)
        68        0.0343           -0.3668214              -9.9817 (LUMO)
        69                         -0.3152418              -8.5782
        70                         -0.2777884              -7.5590
        71                         -0.2488538              -6.7717
        72                         -0.2444095              -6.6507
        73                         -0.2044979              -5.5647
        74                         -0.1667747              -4.5382
        75                         -0.1624328              -4.4200
        76                         -0.1360453              -3.7020
        77                         -0.1241607              -3.3786
        78                         -0.1237140              -3.3664
       ...                                ...                  ...
       134                          0.7516905              20.4545
      -------------------------------------------------------------
                  HL-Gap            0.0076926 Eh            0.2093 eV

Wiberg/Mayer (AO) data.
largest (>0.10) Wiberg bond orders for each atom

     #   Z sym  total        # sym  WBO       # sym  WBO       # sym  WBO
 ---------------------------------------------------------------------------
     1   6 C    3.895 --    27 H    0.987    26 H    0.980    28 H    0.980
                             2 O    0.921
     2   8 O    2.166 --     3 C    1.058     1 C    0.921     4 O    0.113
     3   6 C    3.848 --     4 O    1.585     5 C    1.099     2 O    1.058
     4   8 O    1.853 --     3 C    1.585     2 O    0.113
     5   6 C    3.885 --    24 C    1.259     6 N    1.167     3 C    1.099
                            25 O    0.121
     6   7 N    3.028 --     7 C    1.623     5 C    1.167
     7   6 C    3.920 --     6 N    1.623    21 N    1.096     8 C    0.972
     8   6 C    3.913 --    10 C    0.990     9 C    0.989     7 C    0.972
                            11 N    0.897
     9   6 C    3.988 --     8 C    0.989    30 H    0.983    29 H    0.983
                            31 H    0.982
    10   6 C    3.987 --     8 C    0.990    32 H    0.987    34 H    0.982
                            33 H    0.981
    11   7 N    3.391 --    12 C    1.303     8 C    0.897    35 H    0.888
                            13 O    0.198
    12   6 C    3.923 --    13 O    1.573    11 N    1.303    14 C    0.966
    13   8 O    1.921 --    12 C    1.573    11 N    0.198
    14   6 C    3.801 --    19 N    1.428    15 O    1.112    12 C    0.966
    15   8 O    2.351 --    14 C    1.112    16 C    1.065
    16   6 C    3.839 --    18 N    1.585    15 O    1.065    17 C    1.042
    17   6 C    3.971 --    16 C    1.042    36 H    0.978    37 H    0.953
                            38 H    0.948
    18   7 N    2.959 --    16 C    1.585    19 N    1.146
    19   7 N    3.617 --    14 C    1.428    18 N    1.146    20 C    0.912
    20   6 C    3.883 --    40 H    0.973    39 H    0.966    41 H    0.966
                            19 N    0.912
    21   7 N    3.421 --    22 C    1.152     7 C    1.096    42 H    0.897
                            23 O    0.134
    22   6 C    3.873 --    23 O    1.589    21 N    1.152    24 C    0.964
    23   8 O    1.863 --    22 C    1.589    21 N    0.134
    24   6 C    3.934 --    25 O    1.532     5 C    1.259    22 C    0.964
    25   8 O    1.818 --    24 C    1.532     5 C    0.121
    26   1 H    1.012 --     1 C    0.980
    27   1 H    1.015 --     1 C    0.987
    28   1 H    1.013 --     1 C    0.980
    29   1 H    0.997 --     9 C    0.983
    30   1 H    0.999 --     9 C    0.983
    31   1 H    1.000 --     9 C    0.982
    32   1 H    1.001 --    10 C    0.987
    33   1 H    1.010 --    10 C    0.981
    34   1 H    1.011 --    10 C    0.982
    35   1 H    0.927 --    11 N    0.888
    36   1 H    0.991 --    17 C    0.978
    37   1 H    0.989 --    17 C    0.953
    38   1 H    0.989 --    17 C    0.948
    39   1 H    0.991 --    20 C    0.966
    40   1 H    1.006 --    20 C    0.973
    41   1 H    0.992 --    20 C    0.966
    42   1 H    0.946 --    21 N    0.897
 ---------------------------------------------------------------------------

           -------------------------------------------------
          | TOTAL ENERGY              -82.985652649284 Eh   |
          | GRADIENT NORM               0.000897590087 Eh/α |
          | HOMO-LUMO GAP               0.209327324728 eV   |
           -------------------------------------------------

 * finished run on 2023/06/21 at 17:21:54.687
