   * xtb version 6.5.1 (579679a) compiled by 'ehlert@majestix' on 2022-07-11
          program call               : /lustre/hpc/kemi/ree/PhD/git/ReactivityQM/dep/xtb-6.5.1/bin/xtb --gfn 1 /lustre/hpc/kemi/ree/PhD/git/ReactivityQM/calculations/R01/reac02/conf11/R01_reac02_conf11_gfn1.xyz --opt --vfukui --chrg 0 --uhf 0 --alpb DMSO

   ID    Z sym.   atoms
    1    6 C      1, 3, 5, 7-10, 13, 15
    2    8 O      2, 4, 14, 16
    3    7 N      6, 11, 12
    4    1 H      17-29

      * Solvation model:               ALPB
        Solvent                        DMSO
        Solvent mass                       7.8130E+01 g/mol
          :  Hamiltonian                  GFN1-xTB          :
 * total energy  :   -54.5049400 Eh     change       -0.6259882E-11 Eh
 * total energy  :   -54.5107604 Eh     change       -0.5820387E-02 Eh
 * total energy  :   -54.5123246 Eh     change       -0.1564246E-02 Eh
 * total energy  :   -54.5124953 Eh     change       -0.1707218E-03 Eh
 * total energy  :   -54.5125838 Eh     change       -0.8845264E-04 Eh
 * total energy  :   -54.5126069 Eh     change       -0.2308257E-04 Eh
 * total energy  :   -54.5126278 Eh     change       -0.2096091E-04 Eh
 * total energy  :   -54.5126381 Eh     change       -0.1031791E-04 Eh
 * total energy  :   -54.5126430 Eh     change       -0.4899826E-05 Eh
   *** GEOMETRY OPTIMIZATION CONVERGED AFTER 9 ITERATIONS ***

 final structure:
================
29
 xtb: 6.5.1 (579679a)
C            3.81415860300406        2.16924669414823       -0.68353572570025
O            2.60375032893835        1.43921416199000       -0.46097211887572
C            2.73083246309906        0.14173788643880       -0.22206929775238
O            3.81068861718416       -0.42403149622678       -0.18842431851876
C            1.44546063450468       -0.56145397204966       -0.00603196327696
N            0.29994576523767        0.18983851510319       -0.06517252871963
C           -0.84204996924055       -0.38954226362121        0.10744271638901
C           -2.10804864622967        0.44844003544673        0.00557491312845
C           -2.58067283769390        0.41924469052329       -1.45657912756664
C           -3.21126931525810       -0.05392563798173        0.93969697129163
N           -1.79394749785594        1.82605915890802        0.35934673116957
N           -0.93858455474525       -1.73173392711983        0.33301795697360
C            0.13800201751180       -2.59347389538480        0.42885615039603
O           -0.02776705584248       -3.78190937213201        0.64655126456510
C            1.42188027382727       -1.91397832998296        0.23662704287910
O            2.51141296548063       -2.68259235729546        0.30763867712669
H            4.46421915904108        2.09095695896484        0.19094811900474
H            4.33462826426274        1.77135963249866       -1.55781274622644
H            3.52708410204642        3.20501138880671       -0.85159757777659
H           -1.79263599649607        0.79339703172570       -2.10919155737532
H           -2.83400468513006       -0.59727175944698       -1.75331482705517
H           -3.45928343050325        1.05384321323242       -1.56402670120159
H           -4.02706639632085        0.66794464941441        0.94483886083280
H           -2.83217877106207       -0.16113747910283        1.95508447780967
H           -3.60288724798306       -1.01245888827702        0.60300985637796
H           -0.97724255468905        2.11819188206240       -0.16880440990074
H           -1.55017388776697        1.86786751482870        1.34056401742190
H           -1.84522717325402       -2.15813849033543        0.45270735042921
H            3.32097782593376       -2.14070254513534        0.15947979415085

          :  Hamiltonian                  GFN1-xTB          :
         :: total energy             -54.512643041327 Eh    ::
         :: gradient norm              0.000658815151 Eh/a0 ::
         :: HOMO-LUMO gap              2.455417308045 eV    ::
         :: SCC energy               -55.035783067279 Eh    ::
         :: -> Gsolv                  -0.037516004737 Eh    ::
         :: repulsion energy           0.539153891626 Eh    ::

    * Orbital Energies and Occupations

         #    Occupation            Energy/Eh            Energy/eV
      -------------------------------------------------------------
         1        2.0000           -0.8423210             -22.9207
       ...           ...                  ...                  ...
        32        2.0000           -0.5154799             -14.0269
        33        2.0000           -0.5147101             -14.0060
        34        2.0000           -0.5109798             -13.9045
        35        2.0000           -0.5036181             -13.7041
        36        2.0000           -0.4989778             -13.5779
        37        2.0000           -0.4935569             -13.4304
        38        2.0000           -0.4868820             -13.2487
        39        2.0000           -0.4861462             -13.2287
        40        2.0000           -0.4822813             -13.1235
        41        2.0000           -0.4583643             -12.4727
        42        2.0000           -0.4425681             -12.0429
        43        2.0000           -0.4258424             -11.5878
        44        2.0000           -0.4131987             -11.2437 (HOMO)
        45                         -0.3229638              -8.7883 (LUMO)
        46                         -0.2780483              -7.5661
        47                         -0.2397099              -6.5228
        48                         -0.1556727              -4.2361
        49                         -0.1375110              -3.7419
        50                         -0.1369879              -3.7276
        51                         -0.1246132              -3.3909
        52                         -0.1062072              -2.8900
        53                         -0.0884508              -2.4069
        54                         -0.0797436              -2.1699
        55                         -0.0733760              -1.9967
       ...                                ...                  ...
        90                          0.7223014              19.6548
      -------------------------------------------------------------
                  HL-Gap            0.0902349 Eh            2.4554 eV

Wiberg/Mayer (AO) data.
largest (>0.10) Wiberg bond orders for each atom

     #   Z sym  total        # sym  WBO       # sym  WBO       # sym  WBO
 ---------------------------------------------------------------------------
     1   6 C    3.868 --    19 H    0.986    18 H    0.979    17 H    0.979
                             2 O    0.893
     2   8 O    2.217 --     3 C    1.135     1 C    0.893     4 O    0.129
     3   6 C    3.847 --     4 O    1.604     2 O    1.135     5 C    1.021
     4   8 O    1.942 --     3 C    1.604     2 O    0.129
     5   6 C    3.966 --    15 C    1.484     6 N    1.181     3 C    1.021
     6   7 N    3.030 --     7 C    1.580     5 C    1.181
     7   6 C    3.918 --     6 N    1.580    12 N    1.169     8 C    0.969
     8   6 C    3.970 --    10 C    0.997    11 N    0.994     9 C    0.977
                             7 C    0.969
     9   6 C    3.993 --    21 H    0.987    20 H    0.985    22 H    0.983
                             8 C    0.977
    10   6 C    3.994 --     8 C    0.997    24 H    0.985    23 H    0.983
                            25 H    0.982
    11   7 N    2.954 --     8 C    0.994    27 H    0.944    26 H    0.939
    12   7 N    3.460 --     7 C    1.169    13 C    1.122    28 H    0.885
                            14 O    0.135
    13   6 C    3.909 --    14 O    1.594    12 N    1.122    15 C    1.060
    14   8 O    1.894 --    13 C    1.594    12 N    0.135
    15   6 C    3.922 --     5 C    1.484    16 O    1.121    13 C    1.060
    16   8 O    2.088 --    15 C    1.121    29 H    0.777
    17   1 H    1.006 --     1 C    0.979
    18   1 H    1.006 --     1 C    0.979
    19   1 H    1.010 --     1 C    0.986
    20   1 H    1.003 --     9 C    0.985
    21   1 H    1.002 --     9 C    0.987
    22   1 H    1.004 --     9 C    0.983
    23   1 H    1.004 --    10 C    0.983
    24   1 H    1.000 --    10 C    0.985
    25   1 H    1.000 --    10 C    0.982
    26   1 H    0.974 --    11 N    0.939
    27   1 H    0.961 --    11 N    0.944
    28   1 H    0.934 --    12 N    0.885
    29   1 H    0.853 --    16 O    0.777
 ---------------------------------------------------------------------------

           -------------------------------------------------
          | TOTAL ENERGY              -54.512643041327 Eh   |
          | GRADIENT NORM               0.000658815151 Eh/α |
          | HOMO-LUMO GAP               2.455417308045 eV   |
           -------------------------------------------------

 * finished run on 2023/06/20 at 14:52:00.019
