   * xtb version 6.5.1 (579679a) compiled by 'ehlert@majestix' on 2022-07-11
          program call               : /lustre/hpc/kemi/ree/PhD/git/ReactivityQM/dep/xtb-6.5.1/bin/xtb --gfn 1 /lustre/hpc/kemi/ree/PhD/git/ReactivityQM/calculations/R02/reac01prodE06/conf18/R02_reac01prodE06_conf18_gfn1.xyz --opt --vfukui --chrg -1 --uhf 0 --alpb DMSO

   ID    Z sym.   atoms
    1    6 C      1, 3, 5, 6, 8, 11-15, 17, 19, 22, 23
    2    8 O      2, 4, 7, 9, 18, 24
    3    7 N      10, 16, 20, 21, 25
    4    1 H      26-43

      * Solvation model:               ALPB
        Solvent                        DMSO
        Solvent mass                       7.8130E+01 g/mol
          :  Hamiltonian                  GFN1-xTB          :
 * total energy  :   -83.8656430 Eh     change       -0.8765539E-09 Eh
 * total energy  :   -83.8779064 Eh     change       -0.1226334E-01 Eh
 * total energy  :   -83.8831606 Eh     change       -0.5254215E-02 Eh
 * total energy  :   -83.8844521 Eh     change       -0.1291548E-02 Eh
 * total energy  :   -83.8853086 Eh     change       -0.8564733E-03 Eh
 * total energy  :   -83.8856237 Eh     change       -0.3150965E-03 Eh
 * total energy  :   -83.8858189 Eh     change       -0.1951795E-03 Eh
 * total energy  :   -83.8859491 Eh     change       -0.1301756E-03 Eh
 * total energy  :   -83.8860541 Eh     change       -0.1050448E-03 Eh
 * total energy  :   -83.8861673 Eh     change       -0.1132229E-03 Eh
 * total energy  :   -83.8872232 Eh     change       -0.6106136E-05 Eh
 * total energy  :   -83.8872310 Eh     change       -0.7777906E-05 Eh
 * total energy  :   -83.8872381 Eh     change       -0.7102230E-05 Eh
 * total energy  :   -83.8872151 Eh     change        0.2299892E-04 Eh
 * total energy  :   -83.8872506 Eh     change       -0.3549393E-04 Eh
 * total energy  :   -83.8872576 Eh     change       -0.6992640E-05 Eh
 * total energy  :   -83.8872630 Eh     change       -0.5473230E-05 Eh
 * total energy  :   -83.8872698 Eh     change       -0.6782133E-05 Eh
 * total energy  :   -83.8872722 Eh     change       -0.2414051E-05 Eh
   *** GEOMETRY OPTIMIZATION CONVERGED AFTER 60 ITERATIONS ***

 final structure:
================
43
 xtb: 6.5.1 (579679a)
C            3.85921139561440        3.85118860705732        0.35853991975986
O            3.74270961765719        2.43355005937503        0.31181673108641
C            2.49334261558316        1.93963812724169        0.27330591951656
O            1.52456903749228        2.67702168012819        0.27660581135376
C            2.41276598937647        0.45219318966429        0.22285720987362
C            3.52238816708590       -0.38512837098736        0.13415273032595
O            4.84097940067633        0.06863324639226        0.18801240649980
C            3.35102240795717       -1.77711173177107       -0.10380960790236
O            4.29245683364597       -2.57744803685297       -0.25715807646436
N            2.03608892995037       -2.19874287017488       -0.26640145804882
C            0.94445181699341       -1.42176173763379        0.31160491278192
C            0.75904380642793       -1.81766208846841        1.79709931649463
C           -0.35693635249383       -1.70215545125858       -0.51472478223829
C           -0.90793097551759       -3.11423281084749       -0.30857525824113
C           -0.07378406395792       -1.44589895375448       -2.00127858322773
N           -1.31844229072295       -0.70162873953267       -0.04364822066748
C           -2.60554366922039       -0.62515889085772       -0.39610609518024
O           -3.23454966213349       -1.44916118337141       -1.04669597417812
C           -3.22789558594540        0.62298516795354        0.13841889939855
N           -2.61869001547237        1.57098616495414        0.78227193608322
N           -3.55720947309122        2.52053707034872        1.06843074183221
C           -4.67748109567421        2.08966895707948        0.57916447222169
C           -5.99747624989726        2.75680595977684        0.62890551418424
O           -4.53774855216999        0.89814904285331       -0.02254009102741
N            1.15992080543305        0.00455038447012        0.24166819995997
H            4.92305228837737        4.08287550650295        0.37882420903607
H            3.39550186274769        4.30408522786778       -0.52299448949562
H            3.37439819536746        4.24628103343103        1.25640038855211
H            5.39796767046602       -0.71597995030104        0.05321503165869
H            1.92364791791150       -3.19881248961606       -0.19246684639042
H            1.62176340777923       -1.47599027662603        2.36729661686752
H           -0.13725591939246       -1.34731854420106        2.19788241220753
H            0.67820316748739       -2.89728512036431        1.90334171821562
H           -1.70520505827166       -3.31916726923194       -1.02180183545072
H           -0.11708979016291       -3.84670250798349       -0.46111008820879
H           -1.30875925554184       -3.23143280285862        0.69679447378274
H            0.66974309347874       -2.15671575891471       -2.35943295883899
H           -0.98543022977267       -1.55967262978930       -2.58599176222872
H            0.31258918044384       -0.43434866505787       -2.13109784228767
H           -0.87749312326124        0.12033616176957        0.37416067636367
H           -6.71963350614335        2.11923923479487        1.13930305226538
H           -6.36352507434235        2.93900766509161       -0.38168203556529
H           -5.90773866477005        3.70178239370271        1.15981570532510

          :  Hamiltonian                  GFN1-xTB          :
         :: total energy             -83.887272245917 Eh    ::
         :: gradient norm              0.000889749504 Eh/a0 ::
         :: HOMO-LUMO gap              0.740427563399 eV    ::
         :: SCC energy               -84.643663763944 Eh    ::
         :: -> Gsolv                  -0.109443747091 Eh    ::
         :: repulsion energy           0.784079388934 Eh    ::

    * Orbital Energies and Occupations

         #    Occupation            Energy/Eh            Energy/eV
      -------------------------------------------------------------
         1        2.0000           -0.8546384             -23.2559
       ...           ...                  ...                  ...
        56        2.0000           -0.4761369             -12.9563
        57        2.0000           -0.4725810             -12.8596
        58        2.0000           -0.4625109             -12.5856
        59        2.0000           -0.4504401             -12.2571
        60        2.0000           -0.4494887             -12.2312
        61        2.0000           -0.4440056             -12.0820
        62        2.0000           -0.4387213             -11.9382
        63        2.0000           -0.4314261             -11.7397
        64        2.0000           -0.4258244             -11.5873
        65        2.0000           -0.4081074             -11.1052
        66        2.0000           -0.3957251             -10.7682
        67        2.0000           -0.3832504             -10.4288
        68        2.0000           -0.3230082              -8.7895 (HOMO)
        69        0.0000           -0.2957980              -8.0491 (LUMO)
        70                         -0.2701094              -7.3501
        71                         -0.2491749              -6.7804
        72                         -0.1923318              -5.2336
        73                         -0.1848608              -5.0303
        74                         -0.1401523              -3.8137
        75                         -0.1282172              -3.4890
        76                         -0.1173244              -3.1926
        77                         -0.1126337              -3.0649
        78                         -0.1041011              -2.8327
        79                         -0.0977431              -2.6597
       ...                                ...                  ...
       136                          0.7368033              20.0494
      -------------------------------------------------------------
                  HL-Gap            0.0272102 Eh            0.7404 eV

Wiberg/Mayer (AO) data.
largest (>0.10) Wiberg bond orders for each atom

     #   Z sym  total        # sym  WBO       # sym  WBO       # sym  WBO
 ---------------------------------------------------------------------------
     1   6 C    3.892 --    26 H    0.987    27 H    0.980    28 H    0.980
                             2 O    0.916
     2   8 O    2.187 --     3 C    1.085     1 C    0.916     4 O    0.123
     3   6 C    3.823 --     4 O    1.636     2 O    1.085     5 C    1.007
     4   8 O    1.890 --     3 C    1.636     2 O    0.123
     5   6 C    3.971 --    25 N    1.398     6 C    1.345     3 C    1.007
     6   6 C    3.871 --     5 C    1.345     8 C    1.190     7 O    0.980
                            25 N    0.176
     7   8 O    1.953 --     6 C    0.980    29 H    0.847
     8   6 C    3.916 --     9 O    1.474     6 C    1.190    10 N    1.097
     9   8 O    1.805 --     8 C    1.474    10 N    0.104
    10   7 N    3.211 --     8 C    1.097    11 C    0.941    30 H    0.916
                             9 O    0.104
    11   6 C    3.945 --    25 N    1.007    12 C    0.972    13 C    0.946
                            10 N    0.941
    12   6 C    3.996 --    32 H    0.985    31 H    0.985    33 H    0.985
                            11 C    0.972
    13   6 C    3.926 --    14 C    1.001    15 C    0.991    11 C    0.946
                            16 N    0.920
    14   6 C    3.994 --    13 C    1.001    36 H    0.984    35 H    0.983
                            34 H    0.980
    15   6 C    3.995 --    13 C    0.991    38 H    0.986    37 H    0.984
                            39 H    0.983
    16   7 N    3.386 --    17 C    1.299    13 C    0.920    40 H    0.875
                            18 O    0.186
    17   6 C    3.924 --    18 O    1.562    16 N    1.299    19 C    0.979
    18   8 O    1.882 --    17 C    1.562    16 N    0.186
    19   6 C    3.868 --    20 N    1.621    24 O    1.059    17 C    0.979
    20   7 N    3.010 --    19 C    1.621    21 N    1.190
    21   7 N    2.980 --    22 C    1.616    20 N    1.190
    22   6 C    3.874 --    21 N    1.616    24 O    1.080    23 C    1.030
    23   6 C    3.988 --    22 C    1.030    43 H    0.983    41 H    0.965
                            42 H    0.965
    24   8 O    2.322 --    22 C    1.080    19 C    1.059
    25   7 N    2.945 --     5 C    1.398    11 C    1.007     6 C    0.176
    26   1 H    1.014 --     1 C    0.987
    27   1 H    1.012 --     1 C    0.980
    28   1 H    1.012 --     1 C    0.980
    29   1 H    0.888 --     7 O    0.847
    30   1 H    0.963 --    10 N    0.916
    31   1 H    1.007 --    12 C    0.985
    32   1 H    1.010 --    12 C    0.985
    33   1 H    1.005 --    12 C    0.985
    34   1 H    1.016 --    14 C    0.980
    35   1 H    1.003 --    14 C    0.983
    36   1 H    1.005 --    14 C    0.984
    37   1 H    1.014 --    15 C    0.984
    38   1 H    1.007 --    15 C    0.986
    39   1 H    1.017 --    15 C    0.983
    40   1 H    0.991 --    16 N    0.875
    41   1 H    0.998 --    23 C    0.965
    42   1 H    0.998 --    23 C    0.965
    43   1 H    1.000 --    23 C    0.983
 ---------------------------------------------------------------------------

           -------------------------------------------------
          | TOTAL ENERGY              -83.887272245917 Eh   |
          | GRADIENT NORM               0.000889749504 Eh/α |
          | HOMO-LUMO GAP               0.740427563399 eV   |
           -------------------------------------------------

 * finished run on 2023/06/20 at 15:00:44.424
