   * xtb version 6.5.1 (579679a) compiled by 'ehlert@majestix' on 2022-07-11
          program call               : /lustre/hpc/kemi/ree/PhD/git/ReactivityQM/dep/xtb-6.5.1/bin/xtb --gfn 1 /lustre/hpc/kemi/ree/PhD/git/ReactivityQM/calculations/R02deprot/reac01prodN12/conf12/R02deprot_reac01prodN12_conf12_gfn1.xyz --opt --vfukui --chrg 0 --uhf 0 --alpb DMSO

   ID    Z sym.   atoms
    1    6 C      1, 3, 5, 7-10, 12, 13, 15, 18, 19, 22, 24
    2    8 O      2, 4, 14, 20, 23, 25
    3    7 N      6, 11, 16, 17, 21
    4    1 H      26-42

      * Solvation model:               ALPB
        Solvent                        DMSO
        Solvent mass                       7.8130E+01 g/mol
          :  Hamiltonian                  GFN1-xTB          :
 * total energy  :   -82.8441748 Eh     change       -0.5286438E-11 Eh
 * total energy  :   -82.8589933 Eh     change       -0.1481845E-01 Eh
 * total energy  :   -82.8661736 Eh     change       -0.7180332E-02 Eh
 * total energy  :   -82.8680920 Eh     change       -0.1918393E-02 Eh
 * total energy  :   -82.8697652 Eh     change       -0.1673199E-02 Eh
 * total energy  :   -82.8706296 Eh     change       -0.8644447E-03 Eh
 * total energy  :   -82.8711178 Eh     change       -0.4882181E-03 Eh
 * total energy  :   -82.8715653 Eh     change       -0.4474277E-03 Eh
 * total energy  :   -82.8718568 Eh     change       -0.2915673E-03 Eh
 * total energy  :   -82.8721178 Eh     change       -0.2609636E-03 Eh
 * total energy  :   -82.8792929 Eh     change       -0.1001230E-04 Eh
 * total energy  :   -82.8793092 Eh     change       -0.1635020E-04 Eh
 * total energy  :   -82.8793128 Eh     change       -0.3548115E-05 Eh
 * total energy  :   -82.8793199 Eh     change       -0.7084137E-05 Eh
 * total energy  :   -82.8793279 Eh     change       -0.8000294E-05 Eh
 * total energy  :   -82.8793346 Eh     change       -0.6707843E-05 Eh
 * total energy  :   -82.8793422 Eh     change       -0.7594798E-05 Eh
 * total energy  :   -82.8793472 Eh     change       -0.5007270E-05 Eh
 * total energy  :   -82.8793507 Eh     change       -0.3514517E-05 Eh
   *** GEOMETRY OPTIMIZATION CONVERGED AFTER 123 ITERATIONS ***

 final structure:
================
42
 xtb: 6.5.1 (579679a)
C            3.39449759583906        2.35879493126876        2.39201549184807
O            2.82794965998044        1.49702887306974        1.39563025980836
C            3.38906033434044        1.52694842084244        0.20080474007116
O            4.34341715740756        2.22954304749989       -0.07685264649414
C            2.74156596226380        0.63249362001920       -0.79577708664109
N            1.63224923502778       -0.03571811852751       -0.42065963245786
C            1.12727315249509       -0.88152957423065       -1.31350767000852
C           -0.08172161025668       -1.70832278575652       -0.84235061810293
C            0.41455203344714       -2.87576528913197        0.01045900872222
C           -0.83914173323514       -2.21031095873375       -2.08132535511836
N           -0.94767896827082       -0.79622505602059       -0.16092449206708
C           -1.16713487391522       -0.61519473433891        1.26372519314994
C           -0.56839057091172        0.85436226924959        1.53804562385798
O           -0.72456583107274       -1.47192434482213        2.08754904521996
C           -2.67666832484721       -0.30177007883963        1.37926880786103
N           -3.47736515755981       -0.65919211931580        2.32192370892751
N           -4.70001482163319       -0.13140721990420        1.99563616514202
C           -4.55197589625063        0.52188515114994        0.89035967131986
C           -5.57308656141585        1.27294578356345        0.12940230765588
O           -3.28001472127921        0.45520851908900        0.44238864542626
N            1.60906898314850       -1.10073087266577       -2.49889834409875
C            2.68825344754938       -0.44939745000516       -3.02411791956494
O            3.09712933629104       -0.58829264233267       -4.16305805770229
C            3.31264496797388        0.48085272584930       -2.04856892386888
O            4.35005924437445        1.17553577108917       -2.48380740678208
H            4.46418767475263        2.16237986403278        2.48861379841614
H            3.23948717219174        3.40119504467506        2.10787615170399
H            2.87762610306857        2.13714265315298        3.32308182375854
H            1.04558033885471       -2.51875702388506        0.82151252431437
H            0.99956162168785       -3.54065105887041       -0.62412366654539
H           -0.42602512444335       -3.42853793861671        0.42474145134351
H           -1.68563725648964       -2.82032238777131       -1.77291782892596
H           -1.19847889867338       -1.36891624584894       -2.67006058443841
H           -0.15950517506073       -2.80133204500998       -2.69344842777388
H           -1.35823712886655       -0.08108001412294       -0.74346604009457
H            0.50021789936036        0.76730734803189        1.35929608251775
H           -0.78140863077572        1.09476607237661        2.57487700107446
H           -1.01478183516712        1.57735425371975        0.86571303143584
H           -5.30810933683818        2.32935374320465        0.09686846192312
H           -6.54392605632148        1.15621743972561        0.60564992874351
H           -5.61875157026954        0.90611807312166       -0.89519118403072
H            4.62823816349458        1.84794435401321       -1.81714403953382

          :  Hamiltonian                  GFN1-xTB          :
         :: total energy             -82.879350692900 Eh    ::
         :: gradient norm              0.000612215771 Eh/a0 ::
         :: HOMO-LUMO gap              0.260440770033 eV    ::
         :: SCC energy               -83.642283496238 Eh    ::
         :: -> Gsolv                  -0.061025190583 Eh    ::
         :: repulsion energy           0.789946842672 Eh    ::

    * Orbital Energies and Occupations

         #    Occupation            Energy/Eh            Energy/eV
      -------------------------------------------------------------
         1        2.0000           -0.8703740             -23.6841
       ...           ...                  ...                  ...
        55        2.0000           -0.5059252             -13.7669
        56        2.0000           -0.5042965             -13.7226
        57        2.0000           -0.4964167             -13.5082
        58        2.0000           -0.4887885             -13.3006
        59        2.0000           -0.4825134             -13.1299
        60        2.0000           -0.4791213             -13.0376
        61        2.0000           -0.4691606             -12.7665
        62        2.0000           -0.4626958             -12.5906
        63        2.0000           -0.4603363             -12.5264
        64        2.0000           -0.4499953             -12.2450
        65        2.0000           -0.4469951             -12.1634
        66        1.9995           -0.4272387             -11.6258
        67        1.9873           -0.4241707             -11.5423 (HOMO)
        68        0.0132           -0.4145997             -11.2818 (LUMO)
        69                         -0.3217463              -8.7552
        70                         -0.2849798              -7.7547
        71                         -0.2746451              -7.4735
        72                         -0.2560722              -6.9681
        73                         -0.2378585              -6.4725
        74                         -0.1599980              -4.3538
        75                         -0.1439995              -3.9184
        76                         -0.1405479              -3.8245
        77                         -0.1312977              -3.5728
        78                         -0.1268082              -3.4506
       ...                                ...                  ...
       134                          0.7298467              19.8601
      -------------------------------------------------------------
                  HL-Gap            0.0095710 Eh            0.2604 eV

Wiberg/Mayer (AO) data.
largest (>0.10) Wiberg bond orders for each atom

     #   Z sym  total        # sym  WBO       # sym  WBO       # sym  WBO
 ---------------------------------------------------------------------------
     1   6 C    3.858 --    28 H    0.986    26 H    0.979    27 H    0.978
                             2 O    0.884
     2   8 O    2.233 --     3 C    1.146     1 C    0.884     4 O    0.130
     3   6 C    3.843 --     4 O    1.611     2 O    1.146     5 C    0.995
     4   8 O    1.948 --     3 C    1.611     2 O    0.130
     5   6 C    3.958 --    24 C    1.396     6 N    1.283     3 C    0.995
     6   7 N    3.062 --     7 C    1.345     5 C    1.283
     7   6 C    3.938 --    21 N    1.470     6 N    1.345     8 C    0.896
     8   6 C    3.924 --    11 N    0.986     9 C    0.985    10 C    0.959
                             7 C    0.896
     9   6 C    3.986 --    30 H    0.985     8 C    0.985    31 H    0.981
                            29 H    0.980
    10   6 C    3.983 --    32 H    0.984    33 H    0.983    34 H    0.975
                             8 C    0.959
    11   7 N    3.409 --     8 C    0.986    12 C    0.945    35 H    0.898
                            14 O    0.195
    12   6 C    3.905 --    14 O    1.300    11 N    0.945    15 C    0.843
                            13 C    0.724
    13   6 C    3.879 --    38 H    0.987    37 H    0.981    36 H    0.960
                            12 C    0.724
    14   8 O    1.745 --    12 C    1.300    11 N    0.195
    15   6 C    3.812 --    16 N    1.660    20 O    1.057    12 C    0.843
    16   7 N    2.977 --    15 C    1.660    17 N    1.156
    17   7 N    2.981 --    18 C    1.637    16 N    1.156
    18   6 C    3.858 --    17 N    1.637    20 O    1.048    19 C    1.031
    19   6 C    3.985 --    18 C    1.031    40 H    0.982    41 H    0.964
                            39 H    0.961
    20   8 O    2.306 --    15 C    1.057    18 C    1.048
    21   7 N    3.152 --     7 C    1.470    22 C    1.149    23 O    0.115
    22   6 C    3.883 --    23 O    1.595    21 N    1.149    24 C    0.998
    23   8 O    1.858 --    22 C    1.595    21 N    0.115
    24   6 C    3.823 --     5 C    1.396    25 O    1.160    22 C    0.998
    25   8 O    2.085 --    24 C    1.160    42 H    0.762
    26   1 H    1.005 --     1 C    0.979
    27   1 H    1.004 --     1 C    0.978
    28   1 H    1.009 --     1 C    0.986
    29   1 H    1.017 --     9 C    0.980
    30   1 H    1.002 --     9 C    0.985
    31   1 H    1.007 --     9 C    0.981
    32   1 H    1.000 --    10 C    0.984
    33   1 H    1.001 --    10 C    0.983
    34   1 H    1.008 --    10 C    0.975
    35   1 H    0.943 --    11 N    0.898
    36   1 H    1.035 --    13 C    0.960
    37   1 H    1.001 --    13 C    0.981
    38   1 H    1.001 --    13 C    0.987
    39   1 H    0.996 --    19 C    0.961
    40   1 H    0.998 --    19 C    0.982
    41   1 H    0.996 --    19 C    0.964
    42   1 H    0.841 --    25 O    0.762
 ---------------------------------------------------------------------------

           -------------------------------------------------
          | TOTAL ENERGY              -82.879350692900 Eh   |
          | GRADIENT NORM               0.000612215771 Eh/α |
          | HOMO-LUMO GAP               0.260440770033 eV   |
           -------------------------------------------------

 * finished run on 2023/06/20 at 18:21:22.710
