   * xtb version 6.5.1 (579679a) compiled by 'ehlert@majestix' on 2022-07-11
          program call               : /lustre/hpc/kemi/ree/PhD/git/ReactivityQM/dep/xtb-6.5.1/bin/xtb --gfn 1 /lustre/hpc/kemi/ree/PhD/git/ReactivityQM/calculations/RaltegravirCLI/reac02prodE06/conf03/RaltegravirCLI_reac02prodE06_conf03_gfn1.xyz --opt --vfukui --chrg -1 --uhf 0 --alpb DMSO

   ID    Z sym.   atoms
    1    6 C      1, 3-6, 9, 10, 13-18, 20-22, 24
    2    7 N      2, 7, 8, 12
    3    8 O      11, 23, 25
    4    9 F      19
    5    1 H      26-47

      * Solvation model:               ALPB
        Solvent                        DMSO
        Solvent mass                       7.8130E+01 g/mol
          :  Hamiltonian                  GFN1-xTB          :
 * total energy  :   -80.1725919 Eh     change       -0.2136460E-09 Eh
 * total energy  :   -80.1800449 Eh     change       -0.7453037E-02 Eh
 * total energy  :   -80.1819114 Eh     change       -0.1866456E-02 Eh
 * total energy  :   -80.1822684 Eh     change       -0.3569968E-03 Eh
 * total energy  :   -80.1825544 Eh     change       -0.2860297E-03 Eh
 * total energy  :   -80.1826708 Eh     change       -0.1164435E-03 Eh
 * total energy  :   -80.1827325 Eh     change       -0.6170606E-04 Eh
 * total energy  :   -80.1827553 Eh     change       -0.2273202E-04 Eh
 * total energy  :   -80.1827734 Eh     change       -0.1809137E-04 Eh
 * total energy  :   -80.1827901 Eh     change       -0.1675517E-04 Eh
 * total energy  :   -80.1828183 Eh     change       -0.2817012E-04 Eh
 * total energy  :   -80.1828265 Eh     change       -0.8239921E-05 Eh
 * total energy  :   -80.1828313 Eh     change       -0.4720336E-05 Eh
   *** GEOMETRY OPTIMIZATION CONVERGED AFTER 13 ITERATIONS ***

 final structure:
================
47
 xtb: 6.5.1 (579679a)
C           -3.91001259785721        2.39731303613246       -1.02208543193152
N           -2.80688559961514        1.50429168426010       -0.67625219590264
C           -2.94908012749103        0.19566236111723       -0.26581948552050
C           -4.31557112419858       -0.47310291205479       -0.14798284533588
C           -4.12178688823247       -1.97815837046357        0.10306755275430
C           -5.09379310764305        0.13662103800302        1.02641975424868
N           -5.08389329129131       -0.28093565801218       -1.37938725984621
N           -1.93105257725575       -0.52223565870871        0.07774337702296
C           -0.64497501137917       -0.04571433834066        0.04530390118618
C            0.37285011779985       -1.03295591451942        0.49897785527802
O            0.04339220689502       -2.13084517147636        0.96080930796506
N            1.66706979264667       -0.67395597977500        0.39767457784819
C            2.71506724943001       -1.62047949925067        0.76438395069181
C            4.11167598731384       -0.99985389371618        0.50079641261929
C            5.14979261474969       -2.09250021507849        0.90314436350923
C            4.26309614052275       -0.66518267369651       -0.96881719447539
C            4.76439450651579        0.52882643879574       -1.40612705729430
C            5.07484459315436        1.53940103503564       -0.49501842365906
F            5.57365536338571        2.73720398027791       -0.96486976443703
C            4.80612590283594        1.40422677809659        0.86842023482952
C            4.30872443092023        0.23119224037096        1.36097625858596
C           -0.44061457506755        1.25333493613591       -0.36935052017925
O            0.77987644276884        1.85525988234422       -0.43954068762932
C           -1.54416242432503        2.09125677162701       -0.73658404042621
O           -1.39542810459358        3.27231383422049       -1.08442102271544
H           -4.76158349307251        1.82436283194551       -1.37737702093750
H           -3.57071496538162        3.07210201058814       -1.80904659962888
H           -4.19323979632590        2.98959533469311       -0.15000960068379
H           -5.09399349824512       -2.46691495552860        0.12658990212399
H           -3.61484706551651       -2.14560170510628        1.05311657562799
H           -3.52463718091528       -2.41881808399575       -0.69443798710171
H           -4.50102129768563        0.07851628951938        1.93904366951535
H           -6.02120263625360       -0.41443580271444        1.17617927298858
H           -5.34195410191694        1.17823656068672        0.83412389976218
H           -4.68759514724448       -0.83955693163024       -2.12428752698287
H           -6.03031663324365       -0.59944339244695       -1.22905186280654
H            1.95586337184187        0.18218368494602       -0.05382990774757
H            2.60515931999076       -1.88285916210094        1.82518282776829
H            2.58863653745178       -2.54269815045070        0.18023939583284
H            5.04200198339128       -2.35343254425624        1.95666227773839
H            5.01433656329580       -2.99035164092975        0.29911558797435
H            6.15663345512231       -1.71032373046222        0.73946509342422
H            4.00215312767780       -1.44572076757901       -1.67657983455202
H            4.90354864780705        0.71025628171759       -2.46769732633815
H            4.97688527494948        2.24927062081021        1.52887665214093
H            4.08012388651626        0.12952084849325        2.41738149796778
H            0.62245372776785        2.76512567247726       -0.75569760327269

          :  Hamiltonian                  GFN1-xTB          :
         :: total energy             -80.182831252563 Eh    ::
         :: gradient norm              0.000970329296 Eh/a0 ::
         :: HOMO-LUMO gap              0.098809526746 eV    ::
         :: SCC energy               -81.037922321301 Eh    ::
         :: -> Gsolv                  -0.101579698141 Eh    ::
         :: repulsion energy           0.885679839928 Eh    ::

    * Orbital Energies and Occupations

         #    Occupation            Energy/Eh            Energy/eV
      -------------------------------------------------------------
         1        2.0000           -0.8030508             -21.8521
       ...           ...                  ...                  ...
        56        2.0000           -0.4547138             -12.3734
        57        2.0000           -0.4443889             -12.0924
        58        2.0000           -0.4414133             -12.0115
        59        2.0000           -0.4366709             -11.8824
        60        2.0000           -0.4258487             -11.5879
        61        2.0000           -0.4238999             -11.5349
        62        2.0000           -0.4150836             -11.2950
        63        2.0000           -0.4115297             -11.1983
        64        2.0000           -0.4072739             -11.0825
        65        2.0000           -0.4047893             -11.0149
        66        2.0000           -0.3971288             -10.8064
        67        2.0000           -0.3917781             -10.6608
        68        1.7423           -0.2946961              -8.0191 (HOMO)
        69        0.2577           -0.2910649              -7.9203 (LUMO)
        70                         -0.2523947              -6.8680
        71                         -0.2068361              -5.6283
        72                         -0.2008793              -5.4662
        73                         -0.1294241              -3.5218
        74                         -0.1242246              -3.3803
        75                         -0.1232028              -3.3525
        76                         -0.1161264              -3.1600
        77                         -0.1094618              -2.9786
        78                         -0.1000236              -2.7218
        79                         -0.0941650              -2.5624
       ...                                ...                  ...
       144                          0.7062866              19.2190
      -------------------------------------------------------------
                  HL-Gap            0.0036312 Eh            0.0988 eV

Wiberg/Mayer (AO) data.
largest (>0.10) Wiberg bond orders for each atom

     #   Z sym  total        # sym  WBO       # sym  WBO       # sym  WBO
 ---------------------------------------------------------------------------
     1   6 C    3.932 --    28 H    0.978    27 H    0.977    26 H    0.970
                             2 N    0.937
     2   7 N    3.426 --     3 C    1.146    24 C    1.096     1 C    0.937
                            25 O    0.116
     3   6 C    3.895 --     8 N    1.580     2 N    1.146     4 C    0.975
     4   6 C    3.966 --     5 C    0.992     6 C    0.987     7 N    0.978
                             3 C    0.975
     5   6 C    3.995 --     4 C    0.992    29 H    0.986    31 H    0.984
                            30 H    0.983
     6   6 C    3.993 --     4 C    0.987    32 H    0.986    33 H    0.984
                            34 H    0.982
     7   7 N    2.992 --     4 C    0.978    36 H    0.942    35 H    0.942
     8   7 N    3.029 --     3 C    1.580     9 C    1.185
     9   6 C    3.869 --    22 C    1.427     8 N    1.185    10 C    1.021
    10   6 C    3.882 --    11 O    1.526    12 N    1.262     9 C    1.021
    11   8 O    1.800 --    10 C    1.526    12 N    0.164
    12   7 N    3.327 --    10 C    1.262    13 C    0.940    37 H    0.895
                            11 O    0.164
    13   6 C    3.928 --    38 H    0.974    39 H    0.973    14 C    0.964
                            12 N    0.940
    14   6 C    3.983 --    21 C    1.009    16 C    1.009    13 C    0.964
                            15 C    0.959
    15   6 C    3.971 --    42 H    0.987    40 H    0.986    41 H    0.986
                            14 C    0.959
    16   6 C    3.831 --    17 C    1.595    14 C    1.009    43 H    0.976
    17   6 C    3.993 --    16 C    1.595    18 C    1.311    44 H    0.971
    18   6 C    3.648 --    17 C    1.311    20 C    1.308    19 F    0.855
    19   9 F    0.945 --    18 C    0.855
    20   6 C    3.993 --    21 C    1.600    18 C    1.308    45 H    0.971
    21   6 C    3.833 --    20 C    1.600    14 C    1.009    46 H    0.976
    22   6 C    3.831 --     9 C    1.427    24 C    1.150    23 O    1.043
    23   8 O    2.026 --    22 C    1.043    47 H    0.816
    24   6 C    3.873 --    25 O    1.489    22 C    1.150     2 N    1.096
    25   8 O    1.822 --    24 C    1.489     2 N    0.116
    26   1 H    1.031 --     1 C    0.970
    27   1 H    1.012 --     1 C    0.977
    28   1 H    1.004 --     1 C    0.978
    29   1 H    1.005 --     5 C    0.986
    30   1 H    1.015 --     5 C    0.983
    31   1 H    1.012 --     5 C    0.984
    32   1 H    1.004 --     6 C    0.986
    33   1 H    1.001 --     6 C    0.984
    34   1 H    1.005 --     6 C    0.982
    35   1 H    0.958 --     7 N    0.942
    36   1 H    0.957 --     7 N    0.942
    37   1 H    0.973 --    12 N    0.895
    38   1 H    1.014 --    13 C    0.974
    39   1 H    1.012 --    13 C    0.973
    40   1 H    1.008 --    15 C    0.986
    41   1 H    1.008 --    15 C    0.986
    42   1 H    1.018 --    15 C    0.987
    43   1 H    1.002 --    16 C    0.976
    44   1 H    1.006 --    17 C    0.971
    45   1 H    1.006 --    20 C    0.971
    46   1 H    1.002 --    21 C    0.976
    47   1 H    0.864 --    23 O    0.816
 ---------------------------------------------------------------------------

           -------------------------------------------------
          | TOTAL ENERGY              -80.182831252563 Eh   |
          | GRADIENT NORM               0.000970329296 Eh/α |
          | HOMO-LUMO GAP               0.098809526746 eV   |
           -------------------------------------------------

 * finished run on 2023/06/20 at 15:03:04.995
