   * xtb version 6.5.1 (579679a) compiled by 'ehlert@majestix' on 2022-07-11
          program call               : /lustre/hpc/kemi/ree/PhD/git/ReactivityQM/dep/xtb-6.5.1/bin/xtb --gfn 1 /lustre/hpc/kemi/ree/PhD/git/ReactivityQM/calculations/R02oxygendeprot/reac01prodE01/conf16/R02oxygendeprot_reac01prodE01_conf16_gfn1.xyz --opt --vfukui --chrg -2 --uhf 0 --alpb DMSO

   ID    Z sym.   atoms
    1    6 C      1, 3, 5, 7-10, 12, 13, 15, 18, 19, 22, 24
    2    8 O      2, 4, 14, 20, 23, 25
    3    7 N      6, 11, 16, 17, 21
    4    1 H      26-42

      * Solvation model:               ALPB
        Solvent                        DMSO
        Solvent mass                       7.8130E+01 g/mol
          :  Hamiltonian                  GFN1-xTB          :
 * total energy  :   -83.6290130 Eh     change       -0.1658407E-10 Eh
 * total energy  :   -83.6426607 Eh     change       -0.1364776E-01 Eh
 * total energy  :   -83.6476791 Eh     change       -0.5018352E-02 Eh
 * total energy  :   -83.6485348 Eh     change       -0.8557431E-03 Eh
 * total energy  :   -83.6489830 Eh     change       -0.4481283E-03 Eh
 * total energy  :   -83.6492201 Eh     change       -0.2371550E-03 Eh
 * total energy  :   -83.6493914 Eh     change       -0.1712769E-03 Eh
 * total energy  :   -83.6494889 Eh     change       -0.9752888E-04 Eh
 * total energy  :   -83.6495451 Eh     change       -0.5614120E-04 Eh
 * total energy  :   -83.6495855 Eh     change       -0.4046581E-04 Eh
 * total energy  :   -83.6497556 Eh     change       -0.2217856E-04 Eh
 * total energy  :   -83.6497858 Eh     change       -0.3022778E-04 Eh
 * total energy  :   -83.6498037 Eh     change       -0.1789746E-04 Eh
 * total energy  :   -83.6498232 Eh     change       -0.1951863E-04 Eh
 * total energy  :   -83.6498343 Eh     change       -0.1104132E-04 Eh
 * total energy  :   -83.6498412 Eh     change       -0.6948698E-05 Eh
 * total energy  :   -83.6498463 Eh     change       -0.5060717E-05 Eh
 * total energy  :   -83.6498532 Eh     change       -0.6883767E-05 Eh
 * total energy  :   -83.6498571 Eh     change       -0.3988242E-05 Eh
   *** GEOMETRY OPTIMIZATION CONVERGED AFTER 26 ITERATIONS ***

 final structure:
================
42
 xtb: 6.5.1 (579679a)
C            7.06167863806959        0.04460059909577       -1.10882849124409
O            5.75293645926081        0.58698137796972       -1.16100314573218
C            4.77581716559310       -0.16977270092683       -0.58613690053971
O            5.05906943058257       -1.24281597244595       -0.05997946738682
C            3.44217815869808        0.39728229347503       -0.66014222924872
N            2.48217854395113       -0.40830780463569       -0.06260582909551
C            1.25030629539096       -0.04840731040359       -0.05831808774915
C            0.18097783746963       -0.89843235388889        0.63195271865996
C            0.36947017177479       -2.35828639804372        0.18029551530097
C            0.45300499295543       -0.79989871957799        2.14078734411219
N           -1.11875917822570       -0.37731474725197        0.20265559363291
C           -2.31449940164603       -0.32145000958141        1.16641419673813
C           -2.98345689319075       -1.73749401970616        1.18124520144641
O           -2.08373130846487        0.18717903458919        2.33783929967724
C           -3.27212103475801        0.61380094197005        0.33677100000793
N           -2.93911694235132        1.70794003309943       -0.27374145639242
N           -4.10752337706375        2.28987216172207       -0.72855613090479
C           -5.06537431796983        1.51115820388598       -0.35708587170802
C           -6.51822081491296        1.67915281856570       -0.60604757344293
O           -4.61485279097607        0.43637518106399        0.32214289485933
N            0.84091623308286        1.13670048204772       -0.61907159124057
C            1.66800123335039        2.02503873831830       -1.23597413651351
O            1.21320728595785        3.06477107671519       -1.72213362885340
C            3.13011396634702        1.64099347290510       -1.26808947566315
O            3.93874418090113        2.42031310802650       -1.81695708559592
H            7.72385300248848        0.75461616368866       -1.60315069007378
H            7.38467671891172       -0.09938340945016       -0.07252787100483
H            7.10515857148938       -0.91979903773949       -1.62560938235042
H           -0.29941171244733       -3.01821533891348        0.72944422811314
H            1.39956517655330       -2.66778409777337        0.36201576736011
H            0.16017074931539       -2.45742045195513       -0.88443142776532
H           -0.23701422146637       -1.42426344916558        2.70494598277199
H            1.47182771061181       -1.14382297950512        2.32940043637022
H            0.35963738507938        0.22891749266767        2.48797345898323
H           -1.42174304350543       -0.90541591245125       -0.60935664831918
H           -3.92496896337375       -1.66644738805228        1.72368112317430
H           -2.33226591851011       -2.43521286516730        1.70372333483936
H           -3.17604200477150       -2.10256133962642        0.17428996684357
H           -6.89179117945358        0.85881783106900       -1.21911749635021
H           -6.69436000419006        2.62081749111473       -1.12102981038597
H           -7.06676935249987        1.67247787989198        0.33539637395836
H           -0.16146744808076        1.32469792437954       -0.60163000929682

          :  Hamiltonian                  GFN1-xTB          :
         :: total energy             -83.649857148279 Eh    ::
         :: gradient norm              0.000620756424 Eh/a0 ::
         :: HOMO-LUMO gap              2.134648652836 eV    ::
         :: SCC energy               -84.383494945996 Eh    ::
         :: -> Gsolv                  -0.276260470680 Eh    ::
         :: repulsion energy           0.759767867852 Eh    ::

    * Orbital Energies and Occupations

         #    Occupation            Energy/Eh            Energy/eV
      -------------------------------------------------------------
         1        2.0000           -0.8152095             -22.1830
       ...           ...                  ...                  ...
        56        2.0000           -0.4409161             -11.9979
        57        2.0000           -0.4398512             -11.9690
        58        2.0000           -0.4314320             -11.7399
        59        2.0000           -0.4268525             -11.6152
        60        2.0000           -0.4218410             -11.4789
        61        2.0000           -0.4104246             -11.1682
        62        2.0000           -0.4054253             -11.0322
        63        2.0000           -0.3991651             -10.8618
        64        2.0000           -0.3703511             -10.0778
        65        2.0000           -0.3623617              -9.8604
        66        2.0000           -0.3509031              -9.5486
        67        2.0000           -0.3455597              -9.4032
        68        2.0000           -0.3367495              -9.1634 (HOMO)
        69                         -0.2583026              -7.0288 (LUMO)
        70                         -0.2225140              -6.0549
        71                         -0.2180511              -5.9335
        72                         -0.2059595              -5.6044
        73                         -0.1850523              -5.0355
        74                         -0.1271593              -3.4602
        75                         -0.1186874              -3.2296
        76                         -0.1021062              -2.7785
        77                         -0.0958211              -2.6074
        78                         -0.0858264              -2.3355
        79                         -0.0801543              -2.1811
       ...                                ...                  ...
       134                          0.7562411              20.5784
      -------------------------------------------------------------
                  HL-Gap            0.0784469 Eh            2.1346 eV

Wiberg/Mayer (AO) data.
largest (>0.10) Wiberg bond orders for each atom

     #   Z sym  total        # sym  WBO       # sym  WBO       # sym  WBO
 ---------------------------------------------------------------------------
     1   6 C    3.904 --    26 H    0.987    28 H    0.980    27 H    0.980
                             2 O    0.931
     2   8 O    2.151 --     3 C    1.034     1 C    0.931     4 O    0.106
     3   6 C    3.849 --     4 O    1.565     5 C    1.129     2 O    1.034
     4   8 O    1.843 --     3 C    1.565     2 O    0.106
     5   6 C    3.920 --    24 C    1.281     6 N    1.142     3 C    1.129
                            25 O    0.130
     6   7 N    3.019 --     7 C    1.627     5 C    1.142
     7   6 C    3.925 --     6 N    1.627    21 N    1.111     8 C    0.966
     8   6 C    3.968 --     9 C    0.984    10 C    0.984    11 N    0.978
                             7 C    0.966
     9   6 C    3.995 --    31 H    0.985    29 H    0.985     8 C    0.984
                            30 H    0.983
    10   6 C    3.995 --    33 H    0.986     8 C    0.984    34 H    0.983
                            32 H    0.982
    11   7 N    3.010 --     8 C    0.978    35 H    0.951    12 C    0.847
    12   6 C    3.933 --    14 O    1.220    13 C    0.938    15 C    0.874
                            11 N    0.847
    13   6 C    3.991 --    38 H    0.989    36 H    0.985    37 H    0.983
                            12 C    0.938
    14   8 O    1.545 --    12 C    1.220
    15   6 C    3.801 --    16 N    1.653    20 O    1.045    12 C    0.874
    16   7 N    2.970 --    15 C    1.653    17 N    1.148
    17   7 N    2.977 --    18 C    1.658    16 N    1.148
    18   6 C    3.888 --    17 N    1.658    20 O    1.061    19 C    1.024
    19   6 C    3.993 --    18 C    1.024    40 H    0.985    41 H    0.972
                            39 H    0.969
    20   8 O    2.291 --    18 C    1.061    15 C    1.045
    21   7 N    3.451 --    22 C    1.186     7 C    1.111    42 H    0.878
                            23 O    0.136
    22   6 C    3.886 --    23 O    1.549    21 N    1.186    24 C    0.974
    23   8 O    1.830 --    22 C    1.549    21 N    0.136
    24   6 C    3.945 --    25 O    1.499     5 C    1.281    22 C    0.974
    25   8 O    1.804 --    24 C    1.499     5 C    0.130
    26   1 H    1.017 --     1 C    0.987
    27   1 H    1.015 --     1 C    0.980
    28   1 H    1.015 --     1 C    0.980
    29   1 H    1.009 --     9 C    0.985
    30   1 H    1.018 --     9 C    0.983
    31   1 H    1.007 --     9 C    0.985
    32   1 H    1.026 --    10 C    0.982
    33   1 H    1.014 --    10 C    0.986
    34   1 H    1.031 --    10 C    0.983
    35   1 H    0.981 --    11 N    0.951
    36   1 H    1.017 --    13 C    0.985
    37   1 H    1.016 --    13 C    0.983
    38   1 H    1.008 --    13 C    0.989
    39   1 H    1.002 --    19 C    0.969
    40   1 H    1.003 --    19 C    0.985
    41   1 H    1.002 --    19 C    0.972
    42   1 H    0.985 --    21 N    0.878
 ---------------------------------------------------------------------------

           -------------------------------------------------
          | TOTAL ENERGY              -83.649857148279 Eh   |
          | GRADIENT NORM               0.000620756424 Eh/α |
          | HOMO-LUMO GAP               2.134648652836 eV   |
           -------------------------------------------------

 * finished run on 2023/06/21 at 17:00:47.911
