   * xtb version 6.5.1 (579679a) compiled by 'ehlert@majestix' on 2022-07-11
          program call               : /lustre/hpc/kemi/ree/PhD/git/ReactivityQM/dep/xtb-6.5.1/bin/xtb --gfn 1 /lustre/hpc/kemi/ree/PhD/git/ReactivityQM/calculations/R02oxygendeprot/reac01prodE04/conf18/R02oxygendeprot_reac01prodE04_conf18_gfn1.xyz --opt --vfukui --chrg -2 --uhf 0 --alpb DMSO

   ID    Z sym.   atoms
    1    6 C      1, 3, 5, 6, 8-11, 13, 15, 18, 19, 22, 24
    2    8 O      2, 4, 14, 20, 23, 25
    3    7 N      7, 12, 16, 17, 21
    4    1 H      26-42

      * Solvation model:               ALPB
        Solvent                        DMSO
        Solvent mass                       7.8130E+01 g/mol
          :  Hamiltonian                  GFN1-xTB          :
 * total energy  :   -83.5795447 Eh     change       -0.1097220E-09 Eh
 * total energy  :   -83.5999099 Eh     change       -0.2036520E-01 Eh
 * total energy  :   -83.6061501 Eh     change       -0.6240225E-02 Eh
 * total energy  :   -83.6072935 Eh     change       -0.1143364E-02 Eh
 * total energy  :   -83.6081813 Eh     change       -0.8878162E-03 Eh
 * total energy  :   -83.6085792 Eh     change       -0.3978856E-03 Eh
 * total energy  :   -83.6088758 Eh     change       -0.2965758E-03 Eh
 * total energy  :   -83.6091245 Eh     change       -0.2487362E-03 Eh
 * total energy  :   -83.6093258 Eh     change       -0.2012819E-03 Eh
 * total energy  :   -83.6094747 Eh     change       -0.1489078E-03 Eh
 * total energy  :   -83.6134449 Eh     change       -0.7639957E-05 Eh
 * total energy  :   -83.6134513 Eh     change       -0.6394797E-05 Eh
 * total energy  :   -83.6134569 Eh     change       -0.5638749E-05 Eh
 * total energy  :   -83.6134624 Eh     change       -0.5483394E-05 Eh
 * total energy  :   -83.6134682 Eh     change       -0.5843911E-05 Eh
 * total energy  :   -83.6134748 Eh     change       -0.6562756E-05 Eh
 * total energy  :   -83.6134821 Eh     change       -0.7344314E-05 Eh
 * total energy  :   -83.6134896 Eh     change       -0.7447627E-05 Eh
 * total energy  :   -83.6134932 Eh     change       -0.3614432E-05 Eh
   *** GEOMETRY OPTIMIZATION CONVERGED AFTER 68 ITERATIONS ***

 final structure:
================
42
 xtb: 6.5.1 (579679a)
C            4.74786924226397       -0.90382260427901       -1.06410951977725
O            3.57539320166900       -0.32139689015768       -0.50962346332893
C            3.74095820963286        0.89425027680273        0.07051746309890
O            4.83468327753677        1.43991687221011        0.09744630664954
C            2.44349570776799        1.52966516128412        0.54106378750456
C            2.73446509142867        2.50927835655462        1.68264168472742
N            1.50198737294859        0.52032265114709        0.99755132183219
C            0.73658087420946       -0.02683396252072        0.12546402946512
C           -0.13036281788911       -1.21119230636490        0.53097313148492
C            0.49186315094498       -2.46475388739164       -0.10431361601031
C           -0.16245078680527       -1.33768516076324        2.06003419898869
N           -1.47534250227082       -0.97438798448216       -0.00382289486928
C           -2.51544939299809       -1.87037364608049        0.28737998037997
O           -2.31790828519655       -3.07099217151038        0.57928881613859
C           -3.81898880308699       -1.30006927709467        0.16142122935265
N           -4.99837306628479       -1.90688210854896        0.33279090169748
N           -5.95696693193322       -0.94809620711065        0.15579377211597
C           -5.35283911402804        0.16464124910073       -0.10575744429566
C           -5.97828130208049        1.48520168880628       -0.36636048141335
O           -4.00236833869336        0.04220725212336       -0.12533350659955
N            0.69458235700017        0.33330177151285       -1.18413249648826
C            1.16956744927590        1.60776252713977       -1.64212941188144
O            0.73481065811773        1.99871619697249       -2.76442976587654
C            2.01775659820116        2.29634014953551       -0.74593332161309
O            2.47168275959987        3.47800195649976       -0.91775855520984
H            5.16672864706941       -0.26667240911264       -1.84950719966418
H            4.46170246136835       -1.86746614569041       -1.48278846964648
H            5.50642325976947       -1.05010268983870       -0.28914924672424
H            3.11149746553136        1.97245609196339        2.55254505457978
H            1.81929886831394        3.03064080251971        1.96118424285674
H            3.47653694715099        3.24100053311586        1.36339905036374
H            1.54537946513486       -2.52145895755855        0.17068575145952
H           -0.01033532121723       -3.36716812423052        0.23891799197534
H            0.41500619615161       -2.40947496947877       -1.18974638300336
H            0.85415308859213       -1.43802171990907        2.43944859047560
H           -0.60932674736422       -0.44593545530592        2.49886122101339
H           -0.74101846851948       -2.21107212942798        2.35691287522641
H           -1.76258755014528       -0.00551818318493        0.06783366990008
H           -5.62491837091241        2.22223799080000        0.35545357633931
H           -7.05892644790543        1.39557143799033       -0.28705681975046
H           -5.71998988917499        1.84002405139503       -1.36473287880734
H           -0.01598621316829       -0.08216202743101       -1.76779017265953

          :  Hamiltonian                  GFN1-xTB          :
         :: total energy             -83.613493210385 Eh    ::
         :: gradient norm              0.000183916507 Eh/a0 ::
         :: HOMO-LUMO gap              0.035973784027 eV    ::
         :: SCC energy               -84.339194590074 Eh    ::
         :: -> Gsolv                  -0.265757824694 Eh    ::
         :: repulsion energy           0.752686470775 Eh    ::

    * Orbital Energies and Occupations

         #    Occupation            Energy/Eh            Energy/eV
      -------------------------------------------------------------
         1        2.0000           -0.8026719             -21.8418
       ...           ...                  ...                  ...
        56        2.0000           -0.4469035             -12.1609
        57        2.0000           -0.4455546             -12.1242
        58        2.0000           -0.4277601             -11.6399
        59        2.0000           -0.4252694             -11.5722
        60        2.0000           -0.4086166             -11.1190
        61        2.0000           -0.4057620             -11.0413
        62        2.0000           -0.4040520             -10.9948
        63        2.0000           -0.3982423             -10.8367
        64        2.0000           -0.3897287             -10.6051
        65        2.0000           -0.3788906             -10.3101
        66        2.0000           -0.3746720             -10.1953
        67        2.0000           -0.3454426              -9.4000
        68        1.3345           -0.2688896              -7.3169 (HOMO)
        69        0.6655           -0.2675676              -7.2809 (LUMO)
        70                         -0.2236758              -6.0865
        71                         -0.2101292              -5.7179
        72                         -0.2017574              -5.4901
        73                         -0.1413134              -3.8453
        74                         -0.1234316              -3.3587
        75                         -0.1226432              -3.3373
        76                         -0.1148115              -3.1242
        77                         -0.0959489              -2.6109
        78                         -0.0929374              -2.5290
        79                         -0.0870347              -2.3683
       ...                                ...                  ...
       134                          0.7144434              19.4410
      -------------------------------------------------------------
                  HL-Gap            0.0013220 Eh            0.0360 eV

Wiberg/Mayer (AO) data.
largest (>0.10) Wiberg bond orders for each atom

     #   Z sym  total        # sym  WBO       # sym  WBO       # sym  WBO
 ---------------------------------------------------------------------------
     1   6 C    3.897 --    27 H    0.987    28 H    0.981    26 H    0.981
                             2 O    0.921
     2   8 O    2.152 --     3 C    1.051     1 C    0.921     4 O    0.109
     3   6 C    3.778 --     4 O    1.602     2 O    1.051     5 C    0.946
     4   8 O    1.866 --     3 C    1.602     2 O    0.109
     5   6 C    3.958 --     6 C    0.990     7 N    0.980     3 C    0.946
                            24 C    0.877
     6   6 C    3.989 --     5 C    0.990    29 H    0.989    30 H    0.987
                            31 H    0.984
     7   7 N    2.937 --     8 C    1.652     5 C    0.980    21 N    0.149
     8   6 C    3.931 --     7 N    1.652    21 N    1.177     9 C    0.970
     9   6 C    3.950 --    11 C    0.992    10 C    0.985     8 C    0.970
                            12 N    0.941
    10   6 C    3.993 --    32 H    0.987    34 H    0.986     9 C    0.985
                            33 H    0.980
    11   6 C    3.993 --     9 C    0.992    36 H    0.986    35 H    0.985
                            37 H    0.984
    12   7 N    3.144 --    13 C    1.080     9 C    0.941    38 H    0.920
                            14 O    0.106
    13   6 C    3.746 --    14 O    1.443    15 C    1.157    12 N    1.080
    14   8 O    1.684 --    13 C    1.443    12 N    0.106
    15   6 C    3.696 --    16 N    1.400    13 C    1.157    20 O    0.968
    16   7 N    2.725 --    15 C    1.400    17 N    1.190
    17   7 N    2.981 --    18 C    1.627    16 N    1.190
    18   6 C    3.813 --    17 N    1.627    20 O    1.042    19 C    1.024
    19   6 C    3.994 --    18 C    1.024    40 H    0.986    39 H    0.971
                            41 H    0.970
    20   8 O    2.181 --    18 C    1.042    15 C    0.968
    21   7 N    3.325 --     8 C    1.177    22 C    0.960    42 H    0.911
                             7 N    0.149
    22   6 C    3.740 --    23 O    1.390    24 C    1.243    21 N    0.960
    23   8 O    1.599 --    22 C    1.390
    24   6 C    3.727 --    25 O    1.376    22 C    1.243     5 C    0.877
    25   8 O    1.576 --    24 C    1.376
    26   1 H    1.013 --     1 C    0.981
    27   1 H    1.016 --     1 C    0.987
    28   1 H    1.014 --     1 C    0.981
    29   1 H    1.011 --     6 C    0.989
    30   1 H    1.012 --     6 C    0.987
    31   1 H    1.026 --     6 C    0.984
    32   1 H    1.010 --    10 C    0.987
    33   1 H    1.024 --    10 C    0.980
    34   1 H    1.010 --    10 C    0.986
    35   1 H    1.020 --    11 C    0.985
    36   1 H    1.011 --    11 C    0.986
    37   1 H    1.014 --    11 C    0.984
    38   1 H    0.965 --    12 N    0.920
    39   1 H    1.000 --    19 C    0.971
    40   1 H    1.004 --    19 C    0.986
    41   1 H    1.000 --    19 C    0.970
    42   1 H    0.970 --    21 N    0.911
 ---------------------------------------------------------------------------

           -------------------------------------------------
          | TOTAL ENERGY              -83.613493210385 Eh   |
          | GRADIENT NORM               0.000183916507 Eh/α |
          | HOMO-LUMO GAP               0.035973784027 eV   |
           -------------------------------------------------

 * finished run on 2023/06/21 at 17:04:58.469
