   * xtb version 6.5.1 (579679a) compiled by 'ehlert@majestix' on 2022-07-11
          program call               : /lustre/hpc/kemi/ree/PhD/git/ReactivityQM/dep/xtb-6.5.1/bin/xtb --gfn 1 /lustre/hpc/kemi/ree/PhD/git/ReactivityQM/calculations/R02methylcation/reac01prodE02/conf19/R02methylcation_reac01prodE02_conf19_gfn1.xyz --opt --vfukui --chrg -2 --uhf 0 --alpb DMSO

   ID    Z sym.   atoms
    1    6 C      1, 3, 4, 6, 8-11, 13, 15, 18, 19, 22, 24
    2    8 O      2, 5, 14, 20, 23, 25
    3    7 N      7, 12, 16, 17, 21
    4    1 H      26-42

      * Solvation model:               ALPB
        Solvent                        DMSO
        Solvent mass                       7.8130E+01 g/mol
          :  Hamiltonian                  GFN1-xTB          :
 * total energy  :   -83.5918243 Eh     change       -0.2355875E-09 Eh
 * total energy  :   -83.6046724 Eh     change       -0.1284812E-01 Eh
 * total energy  :   -83.6101172 Eh     change       -0.5444858E-02 Eh
 * total energy  :   -83.6113200 Eh     change       -0.1202713E-02 Eh
 * total energy  :   -83.6121219 Eh     change       -0.8019011E-03 Eh
 * total energy  :   -83.6125672 Eh     change       -0.4453202E-03 Eh
 * total energy  :   -83.6129052 Eh     change       -0.3380499E-03 Eh
 * total energy  :   -83.6131364 Eh     change       -0.2312023E-03 Eh
 * total energy  :   -83.6132909 Eh     change       -0.1544365E-03 Eh
 * total energy  :   -83.6133936 Eh     change       -0.1027601E-03 Eh
 * total energy  :   -83.6149357 Eh     change       -0.2934166E-04 Eh
 * total energy  :   -83.6149488 Eh     change       -0.1305910E-04 Eh
 * total energy  :   -83.6149768 Eh     change       -0.2797061E-04 Eh
 * total energy  :   -83.6149938 Eh     change       -0.1699479E-04 Eh
 * total energy  :   -83.6149983 Eh     change       -0.4512887E-05 Eh
 * total energy  :   -83.6150146 Eh     change       -0.1635411E-04 Eh
 * total energy  :   -83.6150240 Eh     change       -0.9365883E-05 Eh
 * total energy  :   -83.6150318 Eh     change       -0.7828123E-05 Eh
 * total energy  :   -83.6150351 Eh     change       -0.3289138E-05 Eh
   *** GEOMETRY OPTIMIZATION CONVERGED AFTER 44 ITERATIONS ***

 final structure:
================
42
 xtb: 6.5.1 (579679a)
C           -4.54137697986463       -0.26679016107385       -1.25642729078389
O           -4.26539181663121        0.87846070081158       -0.51339590364321
C           -3.71152602241767        0.69789470883031        0.94990949473253
C           -4.87600171943743       -0.03689536858821        1.69819717719167
O           -3.43377176791135        1.86090403598546        1.44234722918293
C           -2.45014749773462       -0.23211136093666        0.77687778763958
N           -1.59556594786347        0.21467974754156       -0.19073625166486
C           -0.46212488527188       -0.36057222533290       -0.40698516108912
C            0.45681334913723        0.12134039575408       -1.51083561572499
C            0.62242096810355       -0.96761759904069       -2.58190694758574
C           -0.11778260582970        1.40393611729204       -2.12015762922893
N            1.78034383724923        0.39475791569336       -0.90872225671217
C            2.82391228415695        0.88349228327874       -1.59321706505841
O            2.81373786321367        1.24343708690682       -2.76337060857955
C            4.06404527232216        0.98584370136633       -0.77374342525555
N            5.18932595495304        1.53383796065945       -1.11988544639194
N            6.03692086713434        1.39715682757164       -0.05893006496981
C            5.37754885139124        0.77300474019096        0.86653383157311
C            5.86026437825745        0.37518856178937        2.20714455698408
O            4.12263638675203        0.48741375198629        0.48093379062930
N           -0.05924831593317       -1.44803606184946        0.34225673294016
C           -0.81761238822377       -1.98252009345993        1.35984264617391
O           -0.37013953236977       -2.96413729919710        1.97757814544917
C           -2.12931778475833       -1.31501902372055        1.61842195039337
O           -2.85473801875577       -1.77273823272685        2.55533038344697
H           -4.57138538983286        0.00528441752303       -2.32124180669491
H           -5.51935008239062       -0.71742396771023       -1.00744047610161
H           -3.77278919131008       -1.05167370975223       -1.13842541956743
H           -4.64462304249396       -0.05635044557262        2.76219418045978
H           -5.03181334140227       -1.05549016850330        1.34794455061893
H           -5.78949985219550        0.54133769659847        1.55273873832048
H           -0.35494732653348       -1.23915609912587       -2.97838869646001
H            1.08551410975999       -1.85180847867591       -2.14785427785133
H            1.24814076715177       -0.60968931582666       -3.39766771857815
H            0.47064024191220        1.72712405490840       -2.97557556008823
H           -0.13321289013409        2.19734347101877       -1.37290035068940
H           -1.14022420415912        1.21101396412341       -2.44510038542924
H            1.94091644188150        0.07688751149893        0.03482589766333
H            6.88413893429808        0.71485588042077        2.33992193224077
H            5.22720636631816        0.81155264092727        2.97952274961495
H            5.82131007255163       -0.70907279409269        2.31043033823171
H            0.81675565686591       -1.89964476749755        0.15064724465368

          :  Hamiltonian                  GFN1-xTB          :
         :: total energy             -83.615035104425 Eh    ::
         :: gradient norm              0.000384800272 Eh/a0 ::
         :: HOMO-LUMO gap              0.269171248096 eV    ::
         :: SCC energy               -84.352960129542 Eh    ::
         :: -> Gsolv                  -0.306577124227 Eh    ::
         :: repulsion energy           0.764254103442 Eh    ::

    * Orbital Energies and Occupations

         #    Occupation            Energy/Eh            Energy/eV
      -------------------------------------------------------------
         1        2.0000           -0.8564941             -23.3064
       ...           ...                  ...                  ...
        56        2.0000           -0.4416256             -12.0172
        57        2.0000           -0.4369529             -11.8901
        58        2.0000           -0.4302895             -11.7088
        59        2.0000           -0.4240927             -11.5402
        60        2.0000           -0.4163117             -11.3284
        61        2.0000           -0.4092323             -11.1358
        62        2.0000           -0.4011232             -10.9151
        63        2.0000           -0.3816974             -10.3865
        64        2.0000           -0.3786594             -10.3038
        65        2.0000           -0.3471076              -9.4453
        66        2.0000           -0.3312051              -9.0125
        67        2.0000           -0.3165526              -8.6138
        68        1.9891           -0.3076931              -8.3728 (HOMO)
        69        0.0109           -0.2978012              -8.1036 (LUMO)
        70                         -0.2493319              -6.7847
        71                         -0.2166309              -5.8948
        72                         -0.2006168              -5.4591
        73                         -0.1867185              -5.0809
        74                         -0.1383245              -3.7640
        75                         -0.1093825              -2.9764
        76                         -0.1035351              -2.8173
        77                         -0.0932840              -2.5384
        78                         -0.0891890              -2.4270
        79                         -0.0871347              -2.3711
       ...                                ...                  ...
       134                          0.7462148              20.3055
      -------------------------------------------------------------
                  HL-Gap            0.0098919 Eh            0.2692 eV

Wiberg/Mayer (AO) data.
largest (>0.10) Wiberg bond orders for each atom

     #   Z sym  total        # sym  WBO       # sym  WBO       # sym  WBO
 ---------------------------------------------------------------------------
     1   6 C    3.954 --     2 O    1.004    26 H    0.980    27 H    0.977
                            28 H    0.972
     2   8 O    1.907 --     1 C    1.004     3 C    0.713
     3   6 C    3.882 --     5 O    1.265     4 C    0.943     6 C    0.908
                             2 O    0.713
     4   6 C    3.988 --    31 H    0.988    30 H    0.988    29 H    0.984
                             3 C    0.943
     5   8 O    1.512 --     3 C    1.265
     6   6 C    3.920 --    24 C    1.340     7 N    1.238     3 C    0.908
                            25 O    0.136
     7   7 N    3.037 --     8 C    1.560     6 C    1.238
     8   6 C    3.923 --     7 N    1.560    21 N    1.092     9 C    0.978
     9   6 C    3.923 --    11 C    0.997    10 C    0.983     8 C    0.978
                            12 N    0.899
    10   6 C    3.991 --    32 H    0.986    33 H    0.985     9 C    0.983
                            34 H    0.983
    11   6 C    3.993 --     9 C    0.997    36 H    0.985    35 H    0.984
                            37 H    0.983
    12   7 N    3.367 --    13 C    1.291     9 C    0.899    38 H    0.898
                            14 O    0.183
    13   6 C    3.918 --    14 O    1.562    12 N    1.291    15 C    0.986
    14   8 O    1.880 --    13 C    1.562    12 N    0.183
    15   6 C    3.863 --    16 N    1.622    20 O    1.047    13 C    0.986
    16   7 N    2.989 --    15 C    1.622    17 N    1.193
    17   7 N    2.980 --    18 C    1.616    16 N    1.193
    18   6 C    3.870 --    17 N    1.616    20 O    1.072    19 C    1.031
    19   6 C    3.988 --    18 C    1.031    39 H    0.983    40 H    0.965
                            41 H    0.963
    20   8 O    2.313 --    18 C    1.072    15 C    1.047
    21   7 N    3.414 --    22 C    1.142     8 C    1.092    42 H    0.907
                            23 O    0.127
    22   6 C    3.879 --    23 O    1.505    21 N    1.142    24 C    1.023
    23   8 O    1.797 --    22 C    1.505    21 N    0.127
    24   6 C    3.955 --    25 O    1.399     6 C    1.340    22 C    1.023
    25   8 O    1.741 --    24 C    1.399     6 C    0.136
    26   1 H    1.027 --     1 C    0.980
    27   1 H    1.022 --     1 C    0.977
    28   1 H    1.028 --     1 C    0.972
    29   1 H    1.040 --     4 C    0.984
    30   1 H    1.021 --     4 C    0.988
    31   1 H    1.022 --     4 C    0.988
    32   1 H    1.006 --    10 C    0.986
    33   1 H    1.005 --    10 C    0.985
    34   1 H    1.009 --    10 C    0.983
    35   1 H    1.015 --    11 C    0.984
    36   1 H    1.012 --    11 C    0.985
    37   1 H    1.020 --    11 C    0.983
    38   1 H    0.948 --    12 N    0.898
    39   1 H    0.999 --    19 C    0.983
    40   1 H    0.997 --    19 C    0.965
    41   1 H    0.997 --    19 C    0.963
    42   1 H    0.957 --    21 N    0.907
 ---------------------------------------------------------------------------

           -------------------------------------------------
          | TOTAL ENERGY              -83.615035104425 Eh   |
          | GRADIENT NORM               0.000384800272 Eh/α |
          | HOMO-LUMO GAP               0.269171248096 eV   |
           -------------------------------------------------

 * finished run on 2023/06/21 at 17:07:00.216
