   * xtb version 6.5.1 (579679a) compiled by 'ehlert@majestix' on 2022-07-11
          program call               : /lustre/hpc/kemi/ree/PhD/git/ReactivityQM/dep/xtb-6.5.1/bin/xtb --gfn 1 /lustre/hpc/kemi/ree/PhD/git/ReactivityQM/calculations/R02methylcation/reac01prodN12/conf16/R02methylcation_reac01prodN12_conf16_gfn1.xyz --opt --vfukui --chrg 0 --uhf 0 --alpb DMSO

   ID    Z sym.   atoms
    1    6 C      1, 3, 5, 7-10, 12, 14, 15, 18, 19, 22, 24
    2    8 O      2, 4, 13, 20, 23, 25
    3    7 N      6, 11, 16, 17, 21
    4    1 H      26-42

      * Solvation model:               ALPB
        Solvent                        DMSO
        Solvent mass                       7.8130E+01 g/mol
          :  Hamiltonian                  GFN1-xTB          :
 * total energy  :   -82.9279589 Eh     change       -0.4938272E-10 Eh
 * total energy  :   -82.9395681 Eh     change       -0.1160919E-01 Eh
 * total energy  :   -82.9442819 Eh     change       -0.4713877E-02 Eh
 * total energy  :   -82.9452574 Eh     change       -0.9754285E-03 Eh
 * total energy  :   -82.9457991 Eh     change       -0.5417229E-03 Eh
 * total energy  :   -82.9460807 Eh     change       -0.2816650E-03 Eh
 * total energy  :   -82.9462780 Eh     change       -0.1972387E-03 Eh
 * total energy  :   -82.9464033 Eh     change       -0.1253377E-03 Eh
 * total energy  :   -82.9464827 Eh     change       -0.7939602E-04 Eh
 * total energy  :   -82.9465510 Eh     change       -0.6827351E-04 Eh
 * total energy  :   -82.9472487 Eh     change       -0.6573332E-05 Eh
 * total energy  :   -82.9472686 Eh     change       -0.1987648E-04 Eh
 * total energy  :   -82.9472494 Eh     change        0.1917566E-04 Eh
 * total energy  :   -82.9472745 Eh     change       -0.2510823E-04 Eh
 * total energy  :   -82.9472861 Eh     change       -0.1154065E-04 Eh
 * total energy  :   -82.9472945 Eh     change       -0.8388759E-05 Eh
 * total energy  :   -82.9473092 Eh     change       -0.1476406E-04 Eh
 * total energy  :   -82.9473172 Eh     change       -0.7927518E-05 Eh
 * total energy  :   -82.9473221 Eh     change       -0.4913695E-05 Eh
   *** GEOMETRY OPTIMIZATION CONVERGED AFTER 39 ITERATIONS ***

 final structure:
================
42
 xtb: 6.5.1 (579679a)
C            6.46681348768228        1.54007957516678       -0.52292331669408
O            5.04988685427647        1.70199750497655       -0.48283858706519
C            4.33717304050276        0.60525871410766       -0.19990335338228
O            4.86117964554989       -0.47012554590186        0.02412590142959
C            2.87390381645387        0.81807913508889       -0.18467526489559
N            2.17933273803913       -0.31492818655030        0.10594744458852
C            0.88666133773551       -0.29875569030829        0.15395630640182
C            0.14285092914689       -1.58336268735810        0.46304141754662
C            0.59752189949211       -2.67257587726123       -0.51745595619258
C            0.44393806116149       -2.00380921024117        1.90287520716589
N           -1.28927781033435       -1.35225880356900        0.22120810839888
C           -2.24547034126474       -1.16396710436497        1.12575106253068
O           -2.20492319959830       -1.30594768530573        2.32179282786412
C           -3.58323662211107       -0.62288368477322        0.44694279232139
C           -4.78482223361330       -0.97583982147113        1.31299225948020
N           -3.68164029622488       -1.08156813456451       -0.89443488408935
N           -3.53741202792541       -0.07560061915230       -1.69461806271122
C           -3.37850042000936        1.03474526689793       -0.95661004460784
C           -3.13465782918217        2.38572220671460       -1.46741284248935
O           -3.40540929385102        0.78049458818967        0.32788761618154
N            0.17229470610901        0.84030693612975       -0.07205269135815
C            0.72660986735690        2.04668596270312       -0.43608325595067
O           -0.00330093304609        2.99208954713043       -0.69638632245120
C            2.23879227093221        2.07295556477175       -0.47028845624323
O            2.81583331822153        3.12997949754712       -0.73460459187625
H            6.83315983768312        1.15501772097674        0.43247583153263
H            6.74493053575860        0.84413653155551       -1.31889723189639
H            6.89076822830282        2.52325414237503       -0.71947551089076
H            1.67464396651714       -2.80747721185168       -0.42642716310972
H            0.36423890827163       -2.37995886188437       -1.53972854927073
H            0.09266780665952       -3.60930454484408       -0.29014522726866
H           -0.12071067706192       -2.89666747278966        2.16212721289610
H            1.50987223928969       -2.21799232113948        1.97799609977350
H            0.19789585432143       -1.20641973557076        2.60091922749911
H           -1.55076907549931       -1.25114342247133       -0.75005849408974
H           -5.67064669358397       -0.48695517760193        0.91520006016126
H           -4.92172488891123       -2.05457571590253        1.30405770338678
H           -4.59795631352416       -0.63774148820489        2.33055772882425
H           -3.35599136574166        2.43820915228874       -2.53042100199657
H           -2.07704486459690        2.63636064157123       -1.30534444148391
H           -3.72428653154324        3.11249507189705       -0.90888998455716
H           -0.83318893184969        0.81199124299905       -0.02072857342034

          :  Hamiltonian                  GFN1-xTB          :
         :: total energy             -82.947322084287 Eh    ::
         :: gradient norm              0.000723352607 Eh/a0 ::
         :: HOMO-LUMO gap              0.077737451758 eV    ::
         :: SCC energy               -83.713809859194 Eh    ::
         :: -> Gsolv                  -0.066143191996 Eh    ::
         :: repulsion energy           0.794477407315 Eh    ::

    * Orbital Energies and Occupations

         #    Occupation            Energy/Eh            Energy/eV
      -------------------------------------------------------------
         1        2.0000           -0.8895062             -24.2047
       ...           ...                  ...                  ...
        55        2.0000           -0.5178391             -14.0911
        56        2.0000           -0.5070061             -13.7963
        57        2.0000           -0.5064493             -13.7812
        58        2.0000           -0.4959230             -13.4948
        59        2.0000           -0.4876819             -13.2705
        60        2.0000           -0.4858636             -13.2210
        61        2.0000           -0.4802330             -13.0678
        62        2.0000           -0.4789891             -13.0340
        63        2.0000           -0.4748291             -12.9208
        64        2.0000           -0.4665190             -12.6946
        65        2.0000           -0.4527631             -12.3203
        66        2.0000           -0.4165596             -11.3352
        67        1.6362           -0.4003125             -10.8931 (HOMO)
        68        0.3638           -0.3974557             -10.8153 (LUMO)
        69                         -0.3041619              -8.2767
        70                         -0.2947218              -8.0198
        71                         -0.2815267              -7.6607
        72                         -0.2758780              -7.5070
        73                         -0.2290400              -6.2325
        74                         -0.1490364              -4.0555
        75                         -0.1470596              -4.0017
        76                         -0.1406989              -3.8286
        77                         -0.1345058              -3.6601
        78                         -0.1315854              -3.5806
       ...                                ...                  ...
       134                          0.7391311              20.1128
      -------------------------------------------------------------
                  HL-Gap            0.0028568 Eh            0.0777 eV

Wiberg/Mayer (AO) data.
largest (>0.10) Wiberg bond orders for each atom

     #   Z sym  total        # sym  WBO       # sym  WBO       # sym  WBO
 ---------------------------------------------------------------------------
     1   6 C    3.880 --    28 H    0.986    26 H    0.980    27 H    0.979
                             2 O    0.907
     2   8 O    2.187 --     3 C    1.097     1 C    0.907     4 O    0.127
     3   6 C    3.842 --     4 O    1.621     2 O    1.097     5 C    1.041
     4   8 O    1.869 --     3 C    1.621     2 O    0.127
     5   6 C    3.748 --     6 N    1.252    24 C    1.194     3 C    1.041
     6   7 N    2.997 --     7 C    1.525     5 C    1.252
     7   6 C    3.837 --     6 N    1.525    21 N    1.157     8 C    0.976
     8   6 C    3.918 --    10 C    0.983     9 C    0.979     7 C    0.976
                            11 N    0.907
     9   6 C    3.982 --    31 H    0.984    30 H    0.984    29 H    0.981
                             8 C    0.979
    10   6 C    3.979 --     8 C    0.983    33 H    0.982    32 H    0.982
                            34 H    0.981
    11   7 N    3.367 --    12 C    1.317     8 C    0.907    35 H    0.887
                            13 O    0.177
    12   6 C    3.869 --    13 O    1.652    11 N    1.317    14 C    0.796
    13   8 O    1.993 --    12 C    1.652    11 N    0.177
    14   6 C    3.842 --    16 N    1.067    15 C    0.948    20 O    0.893
                            12 C    0.796
    15   6 C    3.942 --    37 H    0.980    36 H    0.980    38 H    0.976
                            14 C    0.948
    16   7 N    2.731 --    17 N    1.486    14 C    1.067
    17   7 N    2.958 --    16 N    1.486    18 C    1.313
    18   6 C    3.705 --    17 N    1.313    20 O    1.186    19 C    1.064
    19   6 C    3.967 --    18 C    1.064    39 H    0.977    41 H    0.953
                            40 H    0.907
    20   8 O    2.250 --    18 C    1.186    14 C    0.893
    21   7 N    3.431 --     7 C    1.157    22 C    1.130    42 H    0.886
                            23 O    0.117
    22   6 C    3.845 --    23 O    1.608    21 N    1.130    24 C    0.957
    23   8 O    1.891 --    22 C    1.608    21 N    0.117
    24   6 C    3.885 --    25 O    1.584     5 C    1.194    22 C    0.957
    25   8 O    1.789 --    24 C    1.584
    26   1 H    1.009 --     1 C    0.980
    27   1 H    1.008 --     1 C    0.979
    28   1 H    1.012 --     1 C    0.986
    29   1 H    1.006 --     9 C    0.981
    30   1 H    0.998 --     9 C    0.984
    31   1 H    0.999 --     9 C    0.984
    32   1 H    1.002 --    10 C    0.982
    33   1 H    1.004 --    10 C    0.982
    34   1 H    1.009 --    10 C    0.981
    35   1 H    0.942 --    11 N    0.887
    36   1 H    0.995 --    15 C    0.980
    37   1 H    0.996 --    15 C    0.980
    38   1 H    1.001 --    15 C    0.976
    39   1 H    0.993 --    19 C    0.977
    40   1 H    0.998 --    19 C    0.907
    41   1 H    0.984 --    19 C    0.953
    42   1 H    0.943 --    21 N    0.886
 ---------------------------------------------------------------------------

           -------------------------------------------------
          | TOTAL ENERGY              -82.947322084287 Eh   |
          | GRADIENT NORM               0.000723352607 Eh/α |
          | HOMO-LUMO GAP               0.077737451758 eV   |
           -------------------------------------------------

 * finished run on 2023/06/21 at 17:44:49.799
