   * xtb version 6.5.1 (579679a) compiled by 'ehlert@majestix' on 2022-07-11
          program call               : /lustre/hpc/kemi/ree/PhD/git/ReactivityQM/dep/xtb-6.5.1/bin/xtb --gfn 1 /lustre/hpc/kemi/ree/PhD/git/ReactivityQM/calculations/R02/reac01prodN16/conf16/R02_reac01prodN16_conf16_gfn1.xyz --opt --vfukui --chrg 1 --uhf 0 --alpb DMSO

   ID    Z sym.   atoms
    1    6 C      1, 2, 5, 6, 9-12, 14, 15, 18-20, 22
    2    7 N      3, 4, 8, 13, 24
    3    8 O      7, 16, 17, 21, 23, 25
    4    1 H      26-43

      * Solvation model:               ALPB
        Solvent                        DMSO
        Solvent mass                       7.8130E+01 g/mol
          :  Hamiltonian                  GFN1-xTB          :
 * total energy  :   -83.0984920 Eh     change       -0.2310685E-10 Eh
 * total energy  :   -83.1126939 Eh     change       -0.1420193E-01 Eh
 * total energy  :   -83.1179977 Eh     change       -0.5303805E-02 Eh
 * total energy  :   -83.1195583 Eh     change       -0.1560539E-02 Eh
 * total energy  :   -83.1207817 Eh     change       -0.1223423E-02 Eh
 * total energy  :   -83.1217442 Eh     change       -0.9625419E-03 Eh
 * total energy  :   -83.1225620 Eh     change       -0.8177873E-03 Eh
 * total energy  :   -83.1231744 Eh     change       -0.6123863E-03 Eh
 * total energy  :   -83.1234668 Eh     change       -0.2924401E-03 Eh
 * total energy  :   -83.1237551 Eh     change       -0.2882687E-03 Eh
 * total energy  :   -83.1292312 Eh     change       -0.2555032E-04 Eh
 * total energy  :   -83.1292573 Eh     change       -0.2614680E-04 Eh
 * total energy  :   -83.1292717 Eh     change       -0.1435992E-04 Eh
 * total energy  :   -83.1292841 Eh     change       -0.1240501E-04 Eh
 * total energy  :   -83.1292940 Eh     change       -0.9846622E-05 Eh
 * total energy  :   -83.1293046 Eh     change       -0.1067937E-04 Eh
 * total energy  :   -83.1293127 Eh     change       -0.8063023E-05 Eh
 * total energy  :   -83.1293185 Eh     change       -0.5793345E-05 Eh
 * total energy  :   -83.1293215 Eh     change       -0.2977390E-05 Eh
   *** GEOMETRY OPTIMIZATION CONVERGED AFTER 49 ITERATIONS ***

 final structure:
================
43
 xtb: 6.5.1 (579679a)
C           -6.04087492017768       -3.10010841484685        1.12251771116682
C           -5.38354832930299       -2.27487840152062        0.08648942931736
N           -5.68772562358428       -2.18038601591084       -1.17134165895437
N           -4.81483215093687       -1.29403181809271       -1.72195804933404
C           -4.02900690407387       -0.90043515828086       -0.76865845403021
C           -2.91040384774728        0.06278088807210       -0.85193032749482
O           -2.61033045451812        0.61534338836280       -1.90379313729634
N           -2.27709314267335        0.22897686655615        0.32490312575057
C           -1.20439554017587        1.19138241245105        0.60291678192304
C           -1.59465950025383        2.59181633591478        0.10857700030208
C           -1.00277321205437        1.20406339821729        2.11917239616107
C            0.08402748727435        0.75458608206284       -0.07557119061559
N            1.15237168066197        0.62075041661513        0.63694524117322
C            2.34403192728322        0.27688396180423        0.03521808630271
C            3.40554428736483        0.10588579517458        0.99965033262360
O            3.38355152515555        0.09086001050957        2.18024502128983
O            4.74579486720777       -0.16851520186064        0.35266380364169
C            5.63093471972339       -0.93230684843247        1.22264332024883
C            5.38555424476001        1.00652004472948       -0.22837003103916
C            2.40343119968914        0.06935926672549       -1.32329883900390
O            3.49631966606310       -0.26348742165158       -1.98914932668131
C            1.18427730712304        0.20985700955712       -2.13775066523564
O            1.19938174272048        0.02023716124259       -3.33982837332350
N            0.07707888327856        0.56634938744984       -1.42525552116642
O           -4.34126446069517       -1.49031882735903        0.40598850542811
H           -6.55164218209370       -2.45523674570535        1.83833634205951
H           -5.29385611118431       -3.67781714749094        1.66508934748502
H           -6.76248395529166       -3.76899058598753        0.65913947217675
H           -2.61475060054291       -0.29607392728172        1.11642577848927
H           -0.81107805730096        3.29747577046889        0.37927877497601
H           -1.72338092394635        2.60592405190221       -0.97140718840307
H           -2.52690184450102        2.89374974637558        0.58284611722370
H           -1.92702046991747        1.50024383555950        2.61152991220444
H           -0.21754848929587        1.91191475521203        2.37862571175563
H           -0.70904813095555        0.21555260236438        2.46832247841955
H            6.49769112462066       -1.19623538293917        0.62313859025860
H            5.91130147373334       -0.32615256216845        2.08378265356380
H            5.07975374501684       -1.81886309395431        1.52675172110492
H            6.15867391156004        0.63606038399842       -0.89733662607176
H            4.62585645384000        1.54810644378738       -0.78365435372818
H            5.80493426497443        1.62026672613675        0.56845852632056
H            3.27631322115722       -0.37551928526278       -2.93919103340999
H           -0.81220488199632        0.67441209749674       -1.93035240558680

          :  Hamiltonian                  GFN1-xTB          :
         :: total energy             -83.129321470984 Eh    ::
         :: gradient norm              0.000368043430 Eh/a0 ::
         :: HOMO-LUMO gap              2.123080200341 eV    ::
         :: SCC energy               -83.931764541557 Eh    ::
         :: -> Gsolv                  -0.113806003612 Eh    ::
         :: repulsion energy           0.828882696122 Eh    ::

    * Orbital Energies and Occupations

         #    Occupation            Energy/Eh            Energy/eV
      -------------------------------------------------------------
         1        2.0000           -0.9284944             -25.2656
       ...           ...                  ...                  ...
        55        2.0000           -0.5276563             -14.3583
        56        2.0000           -0.5222592             -14.2114
        57        2.0000           -0.5160517             -14.0425
        58        2.0000           -0.5113347             -13.9141
        59        2.0000           -0.5106311             -13.8950
        60        2.0000           -0.4933631             -13.4251
        61        2.0000           -0.4857359             -13.2175
        62        2.0000           -0.4802327             -13.0678
        63        2.0000           -0.4749654             -12.9245
        64        2.0000           -0.4692772             -12.7697
        65        2.0000           -0.4622596             -12.5787
        66        2.0000           -0.4583134             -12.4713
        67        2.0000           -0.4569762             -12.4350 (HOMO)
        68                         -0.3789545             -10.3119 (LUMO)
        69                         -0.3215284              -8.7492
        70                         -0.3119022              -8.4873
        71                         -0.2869663              -7.8087
        72                         -0.2617352              -7.1222
        73                         -0.2085239              -5.6742
        74                         -0.1953984              -5.3171
        75                         -0.1806381              -4.9154
        76                         -0.1721766              -4.6852
        77                         -0.1442388              -3.9249
        78                         -0.1373212              -3.7367
       ...                                ...                  ...
       136                          0.7503065              20.4169
      -------------------------------------------------------------
                  HL-Gap            0.0780218 Eh            2.1231 eV

Wiberg/Mayer (AO) data.
largest (>0.10) Wiberg bond orders for each atom

     #   Z sym  total        # sym  WBO       # sym  WBO       # sym  WBO
 ---------------------------------------------------------------------------
     1   6 C    3.985 --     2 C    1.033    28 H    0.982    27 H    0.966
                            26 H    0.958
     2   6 C    3.866 --     3 N    1.604    25 O    1.073     1 C    1.033
     3   7 N    2.982 --     2 C    1.604     4 N    1.205
     4   7 N    3.003 --     5 C    1.617     3 N    1.205
     5   6 C    3.876 --     4 N    1.617    25 O    1.046     6 C    1.004
     6   6 C    3.913 --     7 O    1.550     8 N    1.270     5 C    1.004
     7   8 O    1.922 --     6 C    1.550     8 N    0.171
     8   7 N    3.351 --     6 C    1.270     9 C    0.922    29 H    0.888
                             7 O    0.171
     9   6 C    3.933 --    11 C    1.001    10 C    0.977    12 C    0.971
                             8 N    0.922
    10   6 C    3.984 --    30 H    0.984    32 H    0.982    31 H    0.979
                             9 C    0.977
    11   6 C    3.988 --     9 C    1.001    33 H    0.984    35 H    0.983
                            34 H    0.982
    12   6 C    3.923 --    13 N    1.591    24 N    1.182     9 C    0.971
    13   7 N    3.021 --    12 C    1.591    14 C    1.150
    14   6 C    3.959 --    20 C    1.441    13 N    1.150    15 C    1.106
    15   6 C    3.801 --    16 O    1.825    14 C    1.106    17 O    0.730
    16   8 O    2.088 --    15 C    1.825
    17   8 O    2.478 --    18 C    0.818    19 C    0.811    15 C    0.730
    18   6 C    3.788 --    37 H    0.979    36 H    0.977    38 H    0.977
                            17 O    0.818
    19   6 C    3.786 --    41 H    0.980    39 H    0.976    40 H    0.975
                            17 O    0.811
    20   6 C    3.909 --    14 C    1.441    21 O    1.155    22 C    1.029
    21   8 O    2.132 --    20 C    1.155    42 H    0.779
    22   6 C    3.918 --    23 O    1.599    24 N    1.168    20 C    1.029
    23   8 O    1.926 --    22 C    1.599    24 N    0.143
    24   7 N    3.485 --    12 C    1.182    22 C    1.168    43 H    0.819
                            23 O    0.143
    25   8 O    2.317 --     2 C    1.073     5 C    1.046
    26   1 H    0.996 --     1 C    0.958
    27   1 H    0.996 --     1 C    0.966
    28   1 H    0.998 --     1 C    0.982
    29   1 H    0.932 --     8 N    0.888
    30   1 H    0.999 --    10 C    0.984
    31   1 H    1.006 --    10 C    0.979
    32   1 H    0.997 --    10 C    0.982
    33   1 H    0.997 --    11 C    0.984
    34   1 H    1.006 --    11 C    0.982
    35   1 H    1.002 --    11 C    0.983
    36   1 H    0.994 --    18 C    0.977
    37   1 H    0.997 --    18 C    0.979
    38   1 H    0.995 --    18 C    0.977
    39   1 H    0.996 --    19 C    0.976
    40   1 H    1.001 --    19 C    0.975
    41   1 H    0.992 --    19 C    0.980
    42   1 H    0.822 --    21 O    0.779
    43   1 H    0.915 --    24 N    0.819
 ---------------------------------------------------------------------------

           -------------------------------------------------
          | TOTAL ENERGY              -83.129321470984 Eh   |
          | GRADIENT NORM               0.000368043430 Eh/α |
          | HOMO-LUMO GAP               2.123080200341 eV   |
           -------------------------------------------------

 * finished run on 2023/06/20 at 15:43:07.514
