                         Program Version 5.0.1 -  RELEASE  -
|  1> # ORCA input file
|  2> ! SP r2SCAN-3c CPCM
|  3>
|  4> %maxcore 1875.0
|  5> %pal nprocs 4 end
|  6> %cpcm smd true SMDsolvent "DMSO" end
|  7>
|  8> *xyz -2 1
|  9> C      -6.016765   -1.499586   -1.129734
| 10> O      -4.847950   -0.905091   -0.590616
| 11> C      -4.893849   -0.619071    0.752042
| 12> O      -5.901479   -0.878744    1.395819
| 13> C      -3.667930   -0.015758    1.235178
| 14> N      -2.683652    0.171955    0.278624
| 15> C      -1.557488    0.700029    0.597491
| 16> C      -0.492677    0.931194   -0.468340
| 17> C      -0.955130    0.263397   -1.767681
| 18> C      -0.325585    2.442456   -0.709614
| 19> N       0.770921    0.291971   -0.089747
| 20> C       1.716154    0.881901    0.757722
| 21> O       1.404192    1.757950    1.601345
| 22> C       3.015815    0.354169    0.620597
| 23> N       4.091182    0.678642    1.326468
| 24> N       5.131768    0.011332    0.934145
| 25> C       4.710249   -0.866931   -0.168766
| 26> C       4.949289   -2.336157    0.216720
| 27> C       5.486994   -0.504875   -1.444976
| 28> O       3.321997   -0.624729   -0.349779
| 29> N      -1.283617    1.102697    1.881399
| 30> C      -2.154051    0.979114    2.923102
| 31> O      -1.834441    1.362395    4.051230
| 32> C      -3.493757    0.356539    2.594151
| 33> O      -4.330441    0.213605    3.508412
| 34> H      -6.232435   -2.454421   -0.638905
| 35> H      -6.882347   -0.840157   -1.009244
| 36> H      -5.831353   -1.667923   -2.189411
| 37> H      -1.915984    0.674723   -2.074797
| 38> H      -0.228411    0.437387   -2.558999
| 39> H      -1.071241   -0.809966   -1.619680
| 40> H      -1.263763    2.852136   -1.082075
| 41> H       0.452202    2.614471   -1.452127
| 42> H      -0.057544    2.962592    0.208576
| 43> H       1.191913   -0.223995   -0.849793
| 44> H       6.010382   -2.500303    0.391734
| 45> H       4.398256   -2.565990    1.127593
| 46> H       4.609460   -2.994316   -0.580830
| 47> H       6.553929   -0.631171   -1.272494
| 48> H       5.289051    0.533799   -1.704579
| 49> H       5.177381   -1.142999   -2.270310
| 50> H      -0.359246    1.507724    2.061706
| 51> **                         ****END OF INPUT****

CARTESIAN COORDINATES (ANGSTROEM)
---------------------------------
  C     -6.016765   -1.499586   -1.129734
  O     -4.847950   -0.905091   -0.590616
  C     -4.893849   -0.619071    0.752042
  O     -5.901479   -0.878744    1.395819
  C     -3.667930   -0.015758    1.235178
  N     -2.683652    0.171955    0.278624
  C     -1.557488    0.700029    0.597491
  C     -0.492677    0.931194   -0.468340
  C     -0.955130    0.263397   -1.767681
  C     -0.325585    2.442456   -0.709614
  N      0.770921    0.291971   -0.089747
  C      1.716154    0.881901    0.757722
  O      1.404192    1.757950    1.601345
  C      3.015815    0.354169    0.620597
  N      4.091182    0.678642    1.326468
  N      5.131768    0.011332    0.934145
  C      4.710249   -0.866931   -0.168766
  C      4.949289   -2.336157    0.216720
  C      5.486994   -0.504875   -1.444976
  O      3.321997   -0.624729   -0.349779
  N     -1.283617    1.102697    1.881399
  C     -2.154051    0.979114    2.923102
  O     -1.834441    1.362395    4.051230
  C     -3.493757    0.356539    2.594151
  O     -4.330441    0.213605    3.508412
  H     -6.232435   -2.454421   -0.638905
  H     -6.882347   -0.840157   -1.009244
  H     -5.831353   -1.667923   -2.189411
  H     -1.915984    0.674723   -2.074797
  H     -0.228411    0.437387   -2.558999
  H     -1.071241   -0.809966   -1.619680
  H     -1.263763    2.852136   -1.082075
  H      0.452202    2.614471   -1.452127
  H     -0.057544    2.962592    0.208576
  H      1.191913   -0.223995   -0.849793
  H      6.010382   -2.500303    0.391734
  H      4.398256   -2.565990    1.127593
  H      4.609460   -2.994316   -0.580830
  H      6.553929   -0.631171   -1.272494
  H      5.289051    0.533799   -1.704579
  H      5.177381   -1.142999   -2.270310
  H     -0.359246    1.507724    2.061706

 Total Charge           Charge          ....   -2
 Multiplicity           Mult            ....    1
 Number of Electrons    NEL             ....  186
 Basis Dimension        Dim             ....  615

ORBITAL ENERGIES
----------------

  NO   OCC          E(Eh)            E(eV)
   0   2.0000     -18.961322      -515.9638
   1   2.0000     -18.953375      -515.7475
   2   2.0000     -18.897301      -514.2217
   3   2.0000     -18.895070      -514.1610
   4   2.0000     -18.891478      -514.0633
   5   2.0000     -18.870042      -513.4800
   6   2.0000     -14.178590      -385.8191
   7   2.0000     -14.165761      -385.4700
   8   2.0000     -14.158173      -385.2635
   9   2.0000     -14.129516      -384.4837
  10   2.0000     -14.125611      -384.3774
  11   2.0000     -10.118082      -275.3270
  12   2.0000     -10.104086      -274.9462
  13   2.0000     -10.102739      -274.9095
  14   2.0000     -10.089831      -274.5583
  15   2.0000     -10.075752      -274.1751
  16   2.0000     -10.075203      -274.1602
  17   2.0000     -10.063714      -273.8476
  18   2.0000     -10.059019      -273.7198
  19   2.0000     -10.057835      -273.6876
  20   2.0000     -10.027160      -272.8529
  21   2.0000     -10.008588      -272.3475
  22   2.0000     -10.006135      -272.2808
  23   2.0000     -10.002925      -272.1934
  24   2.0000     -10.002898      -272.1927
  25   2.0000      -1.034255       -28.1435
  26   2.0000      -1.030854       -28.0510
  27   2.0000      -0.984849       -26.7991
  28   2.0000      -0.966760       -26.3069
  29   2.0000      -0.940883       -25.6027
  30   2.0000      -0.926323       -25.2065
  31   2.0000      -0.920311       -25.0429
  32   2.0000      -0.912413       -24.8280
  33   2.0000      -0.866920       -23.5901
  34   2.0000      -0.834257       -22.7013
  35   2.0000      -0.767450       -20.8834
  36   2.0000      -0.742028       -20.1916
  37   2.0000      -0.696925       -18.9643
  38   2.0000      -0.669137       -18.2081
  39   2.0000      -0.661448       -17.9989
  40   2.0000      -0.647325       -17.6146
  41   2.0000      -0.644093       -17.5267
  42   2.0000      -0.609342       -16.5810
  43   2.0000      -0.598225       -16.2785
  44   2.0000      -0.582456       -15.8494
  45   2.0000      -0.540050       -14.6955
  46   2.0000      -0.528334       -14.3767
  47   2.0000      -0.515826       -14.0363
  48   2.0000      -0.506667       -13.7871
  49   2.0000      -0.484956       -13.1963
  50   2.0000      -0.476691       -12.9714
  51   2.0000      -0.466828       -12.7030
  52   2.0000      -0.444256       -12.0888
  53   2.0000      -0.424939       -11.5632
  54   2.0000      -0.420496       -11.4423
  55   2.0000      -0.418116       -11.3775
  56   2.0000      -0.408578       -11.1180
  57   2.0000      -0.407574       -11.0907
  58   2.0000      -0.399159       -10.8617
  59   2.0000      -0.396265       -10.7829
  60   2.0000      -0.378040       -10.2870
  61   2.0000      -0.374649       -10.1947
  62   2.0000      -0.372565       -10.1380
  63   2.0000      -0.364127        -9.9084
  64   2.0000      -0.357684        -9.7331
  65   2.0000      -0.348947        -9.4953
  66   2.0000      -0.348327        -9.4785
  67   2.0000      -0.345210        -9.3936
  68   2.0000      -0.343067        -9.3353
  69   2.0000      -0.340453        -9.2642
  70   2.0000      -0.337272        -9.1776
  71   2.0000      -0.336779        -9.1642
  72   2.0000      -0.328519        -8.9395
  73   2.0000      -0.322737        -8.7821
  74   2.0000      -0.315553        -8.5866
  75   2.0000      -0.309041        -8.4094
  76   2.0000      -0.301122        -8.1940
  77   2.0000      -0.296748        -8.0749
  78   2.0000      -0.295433        -8.0392
  79   2.0000      -0.294531        -8.0146
  80   2.0000      -0.269222        -7.3259
  81   2.0000      -0.264908        -7.2085
  82   2.0000      -0.243194        -6.6176
  83   2.0000      -0.232280        -6.3206
  84   2.0000      -0.231604        -6.3023
  85   2.0000      -0.221709        -6.0330
  86   2.0000      -0.216699        -5.8967
  87   2.0000      -0.211283        -5.7493
  88   2.0000      -0.202174        -5.5014
  89   2.0000      -0.195980        -5.3329
  90   2.0000      -0.158967        -4.3257
  91   2.0000      -0.149100        -4.0572
  92   2.0000      -0.124781        -3.3955
  93   0.0000      -0.043505        -1.1838
  94   0.0000      -0.031864        -0.8671
  95   0.0000       0.003906         0.1063
  96   0.0000       0.052117         1.4182
  97   0.0000       0.066003         1.7960

MULLIKEN ATOMIC CHARGES
-----------------------
   0 C :   -0.325457
   1 O :   -0.196778
   2 C :    0.081687
   3 O :   -0.406809
   4 C :    0.008099
   5 N :   -0.125093
   6 C :   -0.025568
   7 C :    0.324441
   8 C :   -0.643768
   9 C :   -0.607993
  10 N :   -0.232512
  11 C :   -0.226998
  12 O :   -0.545495
  13 C :    0.217493
  14 N :   -0.138293
  15 N :   -0.361206
  16 C :    0.227810
  17 C :   -0.565146
  18 C :   -0.565621
  19 O :   -0.172188
  20 N :   -0.016514
  21 C :   -0.004601
  22 O :   -0.409236
  23 C :   -0.121721
  24 O :   -0.370228
  25 H :    0.160733
  26 H :    0.160722
  27 H :    0.160489
  28 H :    0.188731
  29 H :    0.175062
  30 H :    0.182929
  31 H :    0.174275
  32 H :    0.182938
  33 H :    0.193246
  34 H :    0.322685
  35 H :    0.170048
  36 H :    0.164458
  37 H :    0.166126
  38 H :    0.170944
  39 H :    0.164238
  40 H :    0.165783
  41 H :    0.298289
Sum of atomic charges:   -2.0000000

LOEWDIN ATOMIC CHARGES
----------------------
   0 C :   -0.058356
   1 O :   -0.624000
   2 C :    0.384806
   3 O :   -0.476048
   4 C :    0.114243
   5 N :   -0.618886
   6 C :    0.313407
   7 C :    0.096925
   8 C :   -0.351911
   9 C :   -0.361825
  10 N :   -0.636087
  11 C :    0.344647
  12 O :   -0.595143
  13 C :    0.314704
  14 N :   -0.429028
  15 N :   -0.477901
  16 C :    0.237739
  17 C :   -0.371185
  18 C :   -0.371561
  19 O :   -0.572758
  20 N :   -0.489591
  21 C :    0.349381
  22 O :   -0.495390
  23 C :    0.225568
  24 O :   -0.579881
  25 H :    0.171301
  26 H :    0.171179
  27 H :    0.175630
  28 H :    0.176082
  29 H :    0.162020
  30 H :    0.171400
  31 H :    0.165546
  32 H :    0.167023
  33 H :    0.178915
  34 H :    0.290150
  35 H :    0.167249
  36 H :    0.165563
  37 H :    0.162536
  38 H :    0.167416
  39 H :    0.165479
  40 H :    0.162342
  41 H :    0.308297

  Mayer bond orders larger than 0.100000
B(  0-C ,  1-O ) :   0.8550 B(  0-C , 25-H ) :   0.9639 B(  0-C , 26-H ) :   0.9638
B(  0-C , 27-H ) :   0.9688 B(  1-O ,  2-C ) :   1.0446 B(  2-C ,  3-O ) :   1.9015
B(  2-C ,  4-C ) :   1.0841 B(  4-C ,  5-N ) :   0.9344 B(  4-C , 23-C ) :   1.0237
B(  4-C , 24-O ) :  -0.1462 B(  5-N ,  6-C ) :   1.8634 B(  5-N ,  7-C ) :  -0.1016
B(  6-C ,  7-C ) :   0.9867 B(  6-C , 20-N ) :   1.1082 B(  7-C ,  8-C ) :   0.8700
B(  7-C ,  9-C ) :   0.8632 B(  7-C , 10-N ) :   0.7636 B(  8-C , 28-H ) :   0.9724
B(  8-C , 29-H ) :   0.9767 B(  8-C , 30-H ) :   0.9716 B(  9-C , 31-H ) :   0.9645
B(  9-C , 32-H ) :   0.9825 B(  9-C , 33-H ) :   0.9601 B( 10-N , 11-C ) :   1.0408
B( 10-N , 34-H ) :   0.8758 B( 11-C , 12-O ) :   1.7216 B( 11-C , 13-C ) :   1.0767
B( 11-C , 15-N ) :   0.1857 B( 13-C , 14-N ) :   1.5352 B( 13-C , 19-O ) :   0.9594
B( 14-N , 15-N ) :   1.6520 B( 15-N , 16-C ) :   0.8358 B( 16-C , 17-C ) :   0.9341
B( 16-C , 18-C ) :   0.9317 B( 16-C , 19-O ) :   0.7823 B( 17-C , 35-H ) :   0.9654
B( 17-C , 36-H ) :   0.9705 B( 17-C , 37-H ) :   0.9764 B( 18-C , 38-H ) :   0.9665
B( 18-C , 39-H ) :   0.9701 B( 18-C , 40-H ) :   0.9762 B( 20-N , 21-C ) :   1.0338
B( 20-N , 41-H ) :   0.8309 B( 21-C , 22-O ) :   2.0713 B( 21-C , 23-C ) :   0.8786
B( 23-C , 24-O ) :   1.9703

Dispersion correction           -0.018922381
FINAL SINGLE POINT ENERGY     -1268.897475400797

DIPOLE MOMENT
-------------
                                X             Y             Z
Electronic contribution:    -14.83601       4.89554      18.54565
Nuclear contribution   :     15.70856      -6.47196     -25.68415
                        -----------------------------------------
Total Dipole Moment    :      0.87255      -1.57641      -7.13849
                        -----------------------------------------
Magnitude (a.u.)       :      7.36237
Magnitude (Debye)      :     18.71366

Rotational constants in cm-1:     0.014527     0.003335     0.003029
Rotational constants in MHz :   435.507885    99.988689    90.808847

                             ****ORCA TERMINATED NORMALLY****
TOTAL RUN TIME: 0 days 0 hours 1 minutes 30 seconds 862 msec
