   * xtb version 6.5.1 (579679a) compiled by 'ehlert@majestix' on 2022-07-11
          program call               : /lustre/hpc/kemi/ree/PhD/git/ReactivityQM/dep/xtb-6.5.1/bin/xtb --gfn 1 /lustre/hpc/kemi/ree/PhD/git/ReactivityQM/calculations/R02oxygendeprot/reac01prodE11/conf14/R02oxygendeprot_reac01prodE11_conf14_gfn1.xyz --opt --vfukui --chrg -2 --uhf 0 --alpb DMSO

   ID    Z sym.   atoms
    1    6 C      1, 3, 5, 7-10, 12, 14, 17-19, 22, 24
    2    8 O      2, 4, 13, 20, 23, 25
    3    7 N      6, 11, 15, 16, 21
    4    1 H      26-42

      * Solvation model:               ALPB
        Solvent                        DMSO
        Solvent mass                       7.8130E+01 g/mol
          :  Hamiltonian                  GFN1-xTB          :
 * total energy  :   -83.6552506 Eh     change       -0.3979039E-11 Eh
 * total energy  :   -83.6642056 Eh     change       -0.8955001E-02 Eh
 * total energy  :   -83.6668716 Eh     change       -0.2665970E-02 Eh
 * total energy  :   -83.6674723 Eh     change       -0.6007706E-03 Eh
 * total energy  :   -83.6681336 Eh     change       -0.6612798E-03 Eh
 * total energy  :   -83.6684874 Eh     change       -0.3538012E-03 Eh
 * total energy  :   -83.6687587 Eh     change       -0.2712549E-03 Eh
 * total energy  :   -83.6689832 Eh     change       -0.2244898E-03 Eh
 * total energy  :   -83.6691327 Eh     change       -0.1495384E-03 Eh
 * total energy  :   -83.6692224 Eh     change       -0.8971025E-04 Eh
 * total energy  :   -83.6704797 Eh     change       -0.2758007E-04 Eh
 * total energy  :   -83.6705028 Eh     change       -0.2305217E-04 Eh
 * total energy  :   -83.6705226 Eh     change       -0.1989162E-04 Eh
 * total energy  :   -83.6705476 Eh     change       -0.2498380E-04 Eh
 * total energy  :   -83.6705786 Eh     change       -0.3092950E-04 Eh
 * total energy  :   -83.6705955 Eh     change       -0.1696341E-04 Eh
 * total energy  :   -83.6706026 Eh     change       -0.7060274E-05 Eh
 * total energy  :   -83.6706100 Eh     change       -0.7412570E-05 Eh
 * total energy  :   -83.6706131 Eh     change       -0.3102937E-05 Eh
   *** GEOMETRY OPTIMIZATION CONVERGED AFTER 40 ITERATIONS ***

 final structure:
================
42
 xtb: 6.5.1 (579679a)
C           -6.01676523528665       -1.49958598390817       -1.12973360740525
O           -4.84795005231230       -0.90509097573129       -0.59061640708608
C           -4.89384919790795       -0.61907140038567        0.75204158044825
O           -5.90147940651817       -0.87874426121535        1.39581862644804
C           -3.66792997322923       -0.01575799556775        1.23517806414693
N           -2.68365185142340        0.17195543415419        0.27862361659422
C           -1.55748763211362        0.70002926655602        0.59749138925571
C           -0.49267664176906        0.93119371682768       -0.46833972139543
C           -0.95512971248316        0.26339708517731       -1.76768053952274
C           -0.32558492238471        2.44245625957425       -0.70961366166690
N            0.77092064866542        0.29197145516131       -0.08974686076444
C            1.71615357277663        0.88190121092775        0.75772176579563
O            1.40419163496105        1.75795024510017        1.60134520149456
C            3.01581486737594        0.35416935509919        0.62059722418014
N            4.09118246981838        0.67864165523150        1.32646779353747
N            5.13176837922645        0.01133184647947        0.93414470020396
C            4.71024885338960       -0.86693119815202       -0.16876594691247
C            4.94928900370958       -2.33615686724809        0.21672040483249
C            5.48699429570518       -0.50487470621376       -1.44497593025588
O            3.32199723159501       -0.62472884737579       -0.34977861299054
N           -1.28361740306768        1.10269679921664        1.88139947362133
C           -2.15405148343522        0.97911420282038        2.92310240420892
O           -1.83444058879097        1.36239504075048        4.05123040511800
C           -3.49375692356854        0.35653937981931        2.59415128483928
O           -4.33044131199118        0.21360508152168        3.50841174163713
H           -6.23243526318189       -2.45442063945789       -0.63890543722809
H           -6.88234653996749       -0.84015671362185       -1.00924352403479
H           -5.83135302906418       -1.66792328857550       -2.18941057909570
H           -1.91598413276486        0.67472347141532       -2.07479687347714
H           -0.22841104259063        0.43738724201684       -2.55899869028533
H           -1.07124103981153       -0.80996558073487       -1.61967977600378
H           -1.26376316395909        2.85213630148586       -1.08207505973512
H            0.45220246259400        2.61447123623335       -1.45212680560695
H           -0.05754377106515        2.96259183637688        0.20857557607994
H            1.19191327562674       -0.22399502189552       -0.84979281492574
H            6.01038159341316       -2.50030272496515        0.39173413402350
H            4.39825586789918       -2.56599033614087        1.12759265668925
H            4.60945984389140       -2.99431647349327       -0.58082995963630
H            6.55392882145444       -0.63117122392592       -1.27249417996737
H            5.28905114321572        0.53379933269601       -1.70457881002015
H            5.17738117828210       -1.14299920353187       -2.27031038313856
H           -0.35924582490503        1.50772398748528        2.06170613799437

          :  Hamiltonian                  GFN1-xTB          :
         :: total energy             -83.670613099892 Eh    ::
         :: gradient norm              0.000917039630 Eh/a0 ::
         :: HOMO-LUMO gap              1.486516094030 eV    ::
         :: SCC energy               -84.406033190025 Eh    ::
         :: -> Gsolv                  -0.262885007686 Eh    ::
         :: repulsion energy           0.761106638555 Eh    ::

    * Orbital Energies and Occupations

         #    Occupation            Energy/Eh            Energy/eV
      -------------------------------------------------------------
         1        2.0000           -0.7894827             -21.4829
       ...           ...                  ...                  ...
        56        2.0000           -0.4438524             -12.0778
        57        2.0000           -0.4407772             -11.9942
        58        2.0000           -0.4309034             -11.7255
        59        2.0000           -0.4287451             -11.6667
        60        2.0000           -0.4218108             -11.4781
        61        2.0000           -0.4104251             -11.1682
        62        2.0000           -0.4053874             -11.0312
        63        2.0000           -0.3981311             -10.8337
        64        2.0000           -0.3885547             -10.5731
        65        2.0000           -0.3664018              -9.9703
        66        2.0000           -0.3634668              -9.8904
        67        2.0000           -0.3521829              -9.5834
        68        2.0000           -0.3124090              -8.5011 (HOMO)
        69                         -0.2577805              -7.0146 (LUMO)
        70                         -0.2348055              -6.3894
        71                         -0.2217307              -6.0336
        72                         -0.1841832              -5.0119
        73                         -0.1225188              -3.3339
        74                         -0.1186310              -3.2281
        75                         -0.1034500              -2.8150
        76                         -0.1015557              -2.7635
        77                         -0.1001070              -2.7240
        78                         -0.0954783              -2.5981
        79                         -0.0948091              -2.5799
       ...                                ...                  ...
       134                          0.7707634              20.9735
      -------------------------------------------------------------
                  HL-Gap            0.0546285 Eh            1.4865 eV

Wiberg/Mayer (AO) data.
largest (>0.10) Wiberg bond orders for each atom

     #   Z sym  total        # sym  WBO       # sym  WBO       # sym  WBO
 ---------------------------------------------------------------------------
     1   6 C    3.904 --    28 H    0.987    27 H    0.980    26 H    0.980
                             2 O    0.932
     2   8 O    2.131 --     3 C    1.015     1 C    0.932     4 O    0.105
     3   6 C    3.848 --     4 O    1.581     5 C    1.132     2 O    1.015
     4   8 O    1.859 --     3 C    1.581     2 O    0.105
     5   6 C    3.918 --    24 C    1.271     6 N    1.147     3 C    1.132
                            25 O    0.128
     6   7 N    3.022 --     7 C    1.626     5 C    1.147
     7   6 C    3.933 --     6 N    1.626    21 N    1.117     8 C    0.971
     8   6 C    3.957 --     9 C    1.001    10 C    0.981     7 C    0.971
                            11 N    0.944
     9   6 C    3.996 --     8 C    1.001    30 H    0.987    31 H    0.985
                            29 H    0.984
    10   6 C    3.992 --    32 H    0.987    33 H    0.986     8 C    0.981
                            34 H    0.980
    11   7 N    3.190 --    12 C    1.086     8 C    0.944    35 H    0.916
    12   6 C    3.924 --    13 O    1.414    14 C    1.239    11 N    1.086
    13   8 O    1.808 --    12 C    1.414
    14   6 C    3.843 --    15 N    1.391    12 C    1.239    20 O    0.922
                            16 N    0.154
    15   7 N    3.025 --    16 N    1.477    14 C    1.391
    16   7 N    2.881 --    15 N    1.477    17 C    0.981    14 C    0.154
    17   6 C    3.899 --    16 N    0.981    19 C    0.978    18 C    0.978
                            20 O    0.923
    18   6 C    3.994 --    36 H    0.988    38 H    0.987    37 H    0.986
                            17 C    0.978
    19   6 C    3.994 --    39 H    0.988    41 H    0.987    40 H    0.985
                            17 C    0.978
    20   8 O    2.052 --    17 C    0.923    14 C    0.922
    21   7 N    3.447 --    22 C    1.189     7 C    1.117    42 H    0.845
                            23 O    0.137
    22   6 C    3.886 --    23 O    1.555    21 N    1.189    24 C    0.971
    23   8 O    1.833 --    22 C    1.555    21 N    0.137
    24   6 C    3.943 --    25 O    1.511     5 C    1.271    22 C    0.971
    25   8 O    1.813 --    24 C    1.511     5 C    0.128
    26   1 H    1.015 --     1 C    0.980
    27   1 H    1.015 --     1 C    0.980
    28   1 H    1.017 --     1 C    0.987
    29   1 H    1.017 --     9 C    0.984
    30   1 H    1.003 --     9 C    0.987
    31   1 H    1.011 --     9 C    0.985
    32   1 H    1.006 --    10 C    0.987
    33   1 H    1.004 --    10 C    0.986
    34   1 H    1.018 --    10 C    0.980
    35   1 H    0.966 --    11 N    0.916
    36   1 H    1.010 --    18 C    0.988
    37   1 H    1.015 --    18 C    0.986
    38   1 H    1.008 --    18 C    0.987
    39   1 H    1.011 --    19 C    0.988
    40   1 H    1.014 --    19 C    0.985
    41   1 H    1.008 --    19 C    0.987
    42   1 H    0.952 --    21 N    0.845
 ---------------------------------------------------------------------------

           -------------------------------------------------
          | TOTAL ENERGY              -83.670613099892 Eh   |
          | GRADIENT NORM               0.000917039630 Eh/α |
          | HOMO-LUMO GAP               1.486516094030 eV   |
           -------------------------------------------------

 * finished run on 2023/06/21 at 17:12:37.212
