   * xtb version 6.5.1 (579679a) compiled by 'ehlert@majestix' on 2022-07-11
          program call               : /lustre/hpc/kemi/ree/PhD/git/ReactivityQM/dep/xtb-6.5.1/bin/xtb --gfn 1 /lustre/hpc/kemi/ree/PhD/git/ReactivityQM/calculations/R02methylcation/reac01prodN10/conf11/R02methylcation_reac01prodN10_conf11_gfn1.xyz --opt --vfukui --chrg 0 --uhf 0 --alpb DMSO

   ID    Z sym.   atoms
    1    6 C      1, 3, 5, 6, 8, 11-15, 17, 19, 22, 23
    2    8 O      2, 4, 7, 9, 18, 24
    3    7 N      10, 16, 20, 21, 25
    4    1 H      26-42

      * Solvation model:               ALPB
        Solvent                        DMSO
        Solvent mass                       7.8130E+01 g/mol
          :  Hamiltonian                  GFN1-xTB          :
 * total energy  :   -82.9625023 Eh     change       -0.1563194E-10 Eh
 * total energy  :   -82.9748799 Eh     change       -0.1237764E-01 Eh
 * total energy  :   -82.9800327 Eh     change       -0.5152816E-02 Eh
 * total energy  :   -82.9809188 Eh     change       -0.8861168E-03 Eh
 * total energy  :   -82.9814289 Eh     change       -0.5100655E-03 Eh
 * total energy  :   -82.9817164 Eh     change       -0.2875231E-03 Eh
 * total energy  :   -82.9819334 Eh     change       -0.2170296E-03 Eh
 * total energy  :   -82.9820922 Eh     change       -0.1587128E-03 Eh
 * total energy  :   -82.9822167 Eh     change       -0.1245220E-03 Eh
 * total energy  :   -82.9823143 Eh     change       -0.9759308E-04 Eh
 * total energy  :   -82.9826808 Eh     change       -0.2024773E-04 Eh
 * total energy  :   -82.9826965 Eh     change       -0.1575205E-04 Eh
 * total energy  :   -82.9827109 Eh     change       -0.1440206E-04 Eh
 * total energy  :   -82.9827184 Eh     change       -0.7469108E-05 Eh
 * total energy  :   -82.9827263 Eh     change       -0.7902087E-05 Eh
 * total energy  :   -82.9827315 Eh     change       -0.5234232E-05 Eh
 * total energy  :   -82.9827465 Eh     change       -0.1499700E-04 Eh
 * total energy  :   -82.9827546 Eh     change       -0.8027764E-05 Eh
 * total energy  :   -82.9827594 Eh     change       -0.4870800E-05 Eh
   *** GEOMETRY OPTIMIZATION CONVERGED AFTER 27 ITERATIONS ***

 final structure:
================
42
 xtb: 6.5.1 (579679a)
C           -4.25921824307220        3.20216462493537       -1.21811257176961
O           -3.60519256772964        2.25747314046934       -0.36004228792959
C           -3.12882515058619        1.16631127933307       -0.92970059566625
O           -3.19168294694765        0.92230268861221       -2.10771592943409
C           -2.46536599376487        0.23555857938420        0.06788037387340
C           -2.74280315545745        0.33161946741354        1.53079759024236
O           -3.75418266274356        0.78536000039371        1.99950218873035
C           -1.62665607238713       -0.25506537340121        2.40107880271710
O           -1.45411261515701        0.06341081700643        3.55886990308560
N           -0.83056617592470       -1.12981345905264        1.74866792813304
C           -1.02801623569743       -1.61851745589442        0.39341143820171
C           -1.93215670996177       -2.85909716645963        0.43577060961421
C            0.36722393087966       -1.87648811258717       -0.26011822151287
C            1.14627135996691       -2.99115542854032        0.44350324213271
C            0.20798341999286       -2.19751040151729       -1.74958550176017
N            1.08899169587821       -0.60923469964493       -0.10758774733743
C            2.34514238576854       -0.39494054310334       -0.55379493313255
O            3.00483872783577       -1.16446096707556       -1.22836232664997
C            2.82830552353386        0.94308481462480       -0.12389391402777
N            2.16427122890854        1.80357059669942        0.58806910725515
N            2.97829832378084        2.88295167586812        0.75839876197563
C            4.08769393996956        2.61083713467601        0.14014805604943
C            5.29281325211978        3.46138865806929        0.02676959491919
O            4.05291571683030        1.40103601818994       -0.43778129381735
N           -1.69832324783959       -0.65400377407662       -0.42576965630004
H           -4.55468889776313        4.03855573263999       -0.58886987952482
H           -3.57085069566463        3.53322805791704       -1.99809487147219
H           -5.13496375234285        2.73968836339620       -1.67764882609615
H           -0.16715123224981       -1.62854822087941        2.32128419469026
H           -1.47503630244887       -3.62948112636950        1.05065667537472
H           -2.88871043804173       -2.57747544521327        0.87272233641573
H           -2.09907406891892       -3.24221988950994       -0.56771128933463
H            0.62323168887603       -3.93966427889612        0.34481068745130
H            2.12705897199111       -3.08816163248471       -0.02031997678805
H            1.28558335419119       -2.76814510593699        1.49915709396942
H           -0.32325606900957       -1.39298504023307       -2.25597663664390
H           -0.34689305417588       -3.12504233307520       -1.87399043083913
H            1.18910461823470       -2.32024495372086       -2.20446317502760
H            0.69736680917035        0.07306658524718        0.52720681301138
H            5.46812105624704        3.72089695861085       -1.01744512484028
H            5.15644811816018        4.36987089452620        0.60836543103059
H            6.16606116554122        2.91988131962662        0.38991236101487

          :  Hamiltonian                  GFN1-xTB          :
         :: total energy             -82.982759436793 Eh    ::
         :: gradient norm              0.000867379145 Eh/a0 ::
         :: HOMO-LUMO gap              1.767116416659 eV    ::
         :: SCC energy               -83.763789409588 Eh    ::
         :: -> Gsolv                  -0.054952118625 Eh    ::
         :: repulsion energy           0.808394511723 Eh    ::

    * Orbital Energies and Occupations

         #    Occupation            Energy/Eh            Energy/eV
      -------------------------------------------------------------
         1        2.0000           -0.8662034             -23.5706
       ...           ...                  ...                  ...
        55        2.0000           -0.5084676             -13.8361
        56        2.0000           -0.5082652             -13.8306
        57        2.0000           -0.5076454             -13.8137
        58        2.0000           -0.5042214             -13.7206
        59        2.0000           -0.4981019             -13.5540
        60        2.0000           -0.4853303             -13.2065
        61        2.0000           -0.4837307             -13.1630
        62        2.0000           -0.4720483             -12.8451
        63        2.0000           -0.4649069             -12.6508
        64        2.0000           -0.4631730             -12.6036
        65        2.0000           -0.4545543             -12.3691
        66        2.0000           -0.4502475             -12.2519
        67        2.0000           -0.4404313             -11.9847 (HOMO)
        68                         -0.3754910             -10.2176 (LUMO)
        69                         -0.3226931              -8.7809
        70                         -0.3134762              -8.5301
        71                         -0.2592848              -7.0555
        72                         -0.2528087              -6.8793
        73                         -0.2077792              -5.6540
        74                         -0.2016144              -5.4862
        75                         -0.1458113              -3.9677
        76                         -0.1445297              -3.9329
        77                         -0.1436558              -3.9091
        78                         -0.1390280              -3.7831
       ...                                ...                  ...
       134                          0.7648542              20.8127
      -------------------------------------------------------------
                  HL-Gap            0.0649403 Eh            1.7671 eV

Wiberg/Mayer (AO) data.
largest (>0.10) Wiberg bond orders for each atom

     #   Z sym  total        # sym  WBO       # sym  WBO       # sym  WBO
 ---------------------------------------------------------------------------
     1   6 C    3.859 --    26 H    0.985    27 H    0.979    28 H    0.978
                             2 O    0.884
     2   8 O    2.225 --     3 C    1.148     1 C    0.884     4 O    0.147
     3   6 C    3.854 --     4 O    1.684     2 O    1.148     5 C    0.945
     4   8 O    1.949 --     3 C    1.684     2 O    0.147
     5   6 C    3.954 --    25 N    1.796     6 C    0.991     3 C    0.945
     6   6 C    3.855 --     7 O    1.808     5 C    0.991     8 C    0.904
     7   8 O    2.013 --     6 C    1.808
     8   6 C    3.903 --     9 O    1.639    10 N    1.243     6 C    0.904
     9   8 O    1.931 --     8 C    1.639    10 N    0.183
    10   7 N    3.359 --     8 C    1.243    11 C    0.934    29 H    0.881
                             9 O    0.183
    11   6 C    3.913 --    25 N    0.998    12 C    0.950    10 N    0.934
                            13 C    0.934
    12   6 C    3.982 --    31 H    0.982    32 H    0.980    30 H    0.979
                            11 C    0.950
    13   6 C    3.927 --    15 C    0.997    14 C    0.995    11 C    0.934
                            16 N    0.927
    14   6 C    3.989 --    13 C    0.995    33 H    0.982    35 H    0.979
                            34 H    0.975
    15   6 C    3.988 --    13 C    0.997    36 H    0.982    37 H    0.982
                            38 H    0.977
    16   7 N    3.342 --    17 C    1.249    13 C    0.927    39 H    0.894
                            18 O    0.177
    17   6 C    3.917 --    18 O    1.596    16 N    1.249    19 C    0.988
    18   8 O    1.915 --    17 C    1.596    16 N    0.177
    19   6 C    3.875 --    20 N    1.609    24 O    1.066    17 C    0.988
    20   7 N    3.017 --    19 C    1.609    21 N    1.200
    21   7 N    2.980 --    22 C    1.604    20 N    1.200
    22   6 C    3.870 --    21 N    1.604    24 O    1.083    23 C    1.032
    23   6 C    3.986 --    22 C    1.032    41 H    0.982    42 H    0.964
                            40 H    0.962
    24   8 O    2.331 --    22 C    1.083    19 C    1.066
    25   7 N    3.052 --     5 C    1.796    11 C    0.998
    26   1 H    1.008 --     1 C    0.985
    27   1 H    1.005 --     1 C    0.979
    28   1 H    1.004 --     1 C    0.978
    29   1 H    0.928 --    10 N    0.881
    30   1 H    0.999 --    12 C    0.979
    31   1 H    0.999 --    12 C    0.982
    32   1 H    0.999 --    12 C    0.980
    33   1 H    1.000 --    14 C    0.982
    34   1 H    1.005 --    14 C    0.975
    35   1 H    0.999 --    14 C    0.979
    36   1 H    1.014 --    15 C    0.982
    37   1 H    1.001 --    15 C    0.982
    38   1 H    1.009 --    15 C    0.977
    39   1 H    0.961 --    16 N    0.894
    40   1 H    0.997 --    23 C    0.962
    41   1 H    0.998 --    23 C    0.982
    42   1 H    0.996 --    23 C    0.964
 ---------------------------------------------------------------------------

           -------------------------------------------------
          | TOTAL ENERGY              -82.982759436793 Eh   |
          | GRADIENT NORM               0.000867379145 Eh/α |
          | HOMO-LUMO GAP               1.767116416659 eV   |
           -------------------------------------------------

 * finished run on 2023/06/21 at 17:41:38.020
