   * xtb version 6.5.1 (579679a) compiled by 'ehlert@majestix' on 2022-07-11
          program call               : /lustre/hpc/kemi/ree/PhD/git/ReactivityQM/dep/xtb-6.5.1/bin/xtb --gfn 1 /lustre/hpc/kemi/ree/PhD/git/ReactivityQM/calculations/R02/reac01prodN10/conf06/R02_reac01prodN10_conf06_gfn1.xyz --opt --vfukui --chrg 1 --uhf 0 --alpb DMSO

   ID    Z sym.   atoms
    1    6 C      1, 3, 5, 6, 8, 11-15, 17, 19, 22, 23
    2    8 O      2, 4, 7, 9, 18, 24
    3    7 N      10, 16, 20, 21, 25
    4    1 H      26-43

      * Solvation model:               ALPB
        Solvent                        DMSO
        Solvent mass                       7.8130E+01 g/mol
          :  Hamiltonian                  GFN1-xTB          :
 * total energy  :   -83.0890080 Eh     change       -0.4406786E-10 Eh
 * total energy  :   -83.1062353 Eh     change       -0.1722726E-01 Eh
 * total energy  :   -83.1132308 Eh     change       -0.6995542E-02 Eh
 * total energy  :   -83.1143790 Eh     change       -0.1148134E-02 Eh
 * total energy  :   -83.1152298 Eh     change       -0.8508442E-03 Eh
 * total energy  :   -83.1157662 Eh     change       -0.5363737E-03 Eh
 * total energy  :   -83.1163469 Eh     change       -0.5807322E-03 Eh
 * total energy  :   -83.1168582 Eh     change       -0.5113003E-03 Eh
 * total energy  :   -83.1172896 Eh     change       -0.4314061E-03 Eh
 * total energy  :   -83.1176369 Eh     change       -0.3472949E-03 Eh
 * total energy  :   -83.1244426 Eh     change       -0.9844513E-05 Eh
 * total energy  :   -83.1244635 Eh     change       -0.2097705E-04 Eh
 * total energy  :   -83.1244780 Eh     change       -0.1445562E-04 Eh
 * total energy  :   -83.1244977 Eh     change       -0.1972165E-04 Eh
 * total energy  :   -83.1245054 Eh     change       -0.7637975E-05 Eh
 * total energy  :   -83.1245155 Eh     change       -0.1010447E-04 Eh
 * total energy  :   -83.1245221 Eh     change       -0.6627718E-05 Eh
 * total energy  :   -83.1245264 Eh     change       -0.4274928E-05 Eh
 * total energy  :   -83.1245302 Eh     change       -0.3827839E-05 Eh
   *** GEOMETRY OPTIMIZATION CONVERGED AFTER 86 ITERATIONS ***

 final structure:
================
43
 xtb: 6.5.1 (579679a)
C           -6.36120612567289        0.81205894544374        0.23634379215781
O           -5.08557640666645        0.21977273014551        0.56994741607675
C           -4.01783203254116        0.97847712517329        0.35991051004719
O           -4.04337848934773        2.09427548670627       -0.07839368765658
C           -2.72787752549334        0.27454036365948        0.72751754782397
C           -2.64467092916484       -1.06050393908250        1.18955133469673
O           -3.64290436838911       -1.85255061798699        1.35759756375472
C           -1.30770278489309       -1.63954305635131        1.54214552711398
O           -1.15327755803777       -2.75363796705816        1.98052612364727
N           -0.28546930903259       -0.76609883752193        1.33425395945982
C           -0.38442831954240        0.54155216381258        0.77857465932167
C            0.46354165365129        1.51880641066452        1.59565972466336
C            0.21542288694644        0.47741746834042       -0.79654620301958
C           -0.40767955559736       -0.73907483342750       -1.46807279962944
C           -0.16699506409401        1.75985730077057       -1.51862677829593
N            1.61138800710000        0.26423430362219       -0.68143815172190
C            2.59660569455210        1.22939306668619       -0.67276252320735
O            2.39794638611404        2.42297343559032       -0.71882816748775
C            3.93945247867385        0.63120636527309       -0.61146693314007
N            5.08765162571618        1.23736395524276       -0.63980893200948
N            6.04030098679804        0.27814120929494       -0.56023747795048
C            5.42288202700425       -0.86404619098010       -0.48673769900637
C            6.01400521743122       -2.21335883204384       -0.38165505859551
O            4.09089291508265       -0.70785686931598       -0.51475551553927
N           -1.65671873465813        1.01848109128553        0.59521281168286
H           -6.37405794550763        1.06608503757057       -0.82449332329035
H           -6.51043853085944        1.71062533037071        0.83714716512191
H           -7.11512209366629        0.06394162277416        0.46425594866178
H           -4.52042245096831       -1.47239935128161        1.12799849357597
H            0.63698403726994       -1.10550419175074        1.56428291619052
H            0.46985430460223        2.50278128627902        1.13289674611669
H            0.02635121394418        1.58934517084466        2.59018024592436
H            1.47935531984759        1.14104346556430        1.67515478632560
H           -1.49371603533634       -0.69957476367168       -1.41546344568767
H           -0.11101511755673       -0.73403783506550       -2.51678833432363
H           -0.05978698337336       -1.66369077512954       -1.01332241254532
H            0.02596697620718        2.64874762330991       -0.92392088569852
H            0.40847066516367        1.82710641225064       -2.44111015477538
H           -1.22958479157211        1.72558088062653       -1.75393582054464
H            1.91541642487587       -0.69196337316004       -0.57626336265179
H            5.67889340594882       -2.69089142034670        0.53893090578060
H            7.09944742727926       -2.14379001100298       -0.38641368790030
H            5.67903049776705       -2.82782838611494       -1.21704782346051

          :  Hamiltonian                  GFN1-xTB          :
         :: total energy             -83.124530185768 Eh    ::
         :: gradient norm              0.000556376268 Eh/a0 ::
         :: HOMO-LUMO gap              1.029287777891 eV    ::
         :: SCC energy               -83.915550900841 Eh    ::
         :: -> Gsolv                  -0.123363293474 Eh    ::
         :: repulsion energy           0.819541346856 Eh    ::

    * Orbital Energies and Occupations

         #    Occupation            Energy/Eh            Energy/eV
      -------------------------------------------------------------
         1        2.0000           -0.8957786             -24.3754
       ...           ...                  ...                  ...
        55        2.0000           -0.5328923             -14.5007
        56        2.0000           -0.5300927             -14.4246
        57        2.0000           -0.5232672             -14.2388
        58        2.0000           -0.5214618             -14.1897
        59        2.0000           -0.5212840             -14.1849
        60        2.0000           -0.5138829             -13.9835
        61        2.0000           -0.5038751             -13.7111
        62        2.0000           -0.4975054             -13.5378
        63        2.0000           -0.4921419             -13.3919
        64        2.0000           -0.4891088             -13.3093
        65        2.0000           -0.4820555             -13.1174
        66        2.0000           -0.4686514             -12.7527
        67        2.0000           -0.4674697             -12.7205 (HOMO)
        68                         -0.4296440             -11.6912 (LUMO)
        69                         -0.3580128              -9.7420
        70                         -0.3358593              -9.1392
        71                         -0.2789472              -7.5905
        72                         -0.2702346              -7.3535
        73                         -0.2274739              -6.1899
        74                         -0.2206239              -6.0035
        75                         -0.1587283              -4.3192
        76                         -0.1536779              -4.1818
        77                         -0.1501589              -4.0860
        78                         -0.1470748              -4.0021
       ...                                ...                  ...
       136                          0.7254482              19.7404
      -------------------------------------------------------------
                  HL-Gap            0.0378256 Eh            1.0293 eV

Wiberg/Mayer (AO) data.
largest (>0.10) Wiberg bond orders for each atom

     #   Z sym  total        # sym  WBO       # sym  WBO       # sym  WBO
 ---------------------------------------------------------------------------
     1   6 C    3.834 --    28 H    0.985    27 H    0.978    26 H    0.978
                             2 O    0.859
     2   8 O    2.225 --     3 C    1.124     1 C    0.859     4 O    0.143
     3   6 C    3.858 --     4 O    1.709     2 O    1.124     5 C    0.954
     4   8 O    1.973 --     3 C    1.709     2 O    0.143
     5   6 C    3.955 --    25 N    1.498     6 C    1.246     3 C    0.954
     6   6 C    3.833 --     7 O    1.311     5 C    1.246     8 C    0.976
     7   8 O    2.234 --     6 C    1.311    29 H    0.747
     8   6 C    3.917 --     9 O    1.648    10 N    1.196     6 C    0.976
     9   8 O    1.948 --     8 C    1.648    10 N    0.183
    10   7 N    3.423 --     8 C    1.196    11 C    0.992    30 H    0.873
                             9 O    0.183
    11   6 C    3.907 --    25 N    1.157    10 N    0.992    12 C    0.942
                            13 C    0.674
    12   6 C    3.962 --    33 H    0.980    31 H    0.976    32 H    0.975
                            11 C    0.942
    13   6 C    3.899 --    16 N    1.034    15 C    1.003    14 C    1.002
                            11 C    0.674
    14   6 C    3.984 --    13 C    1.002    34 H    0.980    36 H    0.980
                            35 H    0.964
    15   6 C    3.978 --    13 C    1.003    39 H    0.979    37 H    0.971
                            38 H    0.969
    16   7 N    3.382 --    17 C    1.140    13 C    1.034    40 H    0.882
                            18 O    0.131
    17   6 C    3.898 --    18 O    1.639    16 N    1.140    19 C    1.018
    18   8 O    1.940 --    17 C    1.639    16 N    0.131
    19   6 C    3.874 --    20 N    1.596    24 O    1.044    17 C    1.018
    20   7 N    3.004 --    19 C    1.596    21 N    1.224
    21   7 N    2.980 --    22 C    1.582    20 N    1.224
    22   6 C    3.855 --    21 N    1.582    24 O    1.078    23 C    1.036
    23   6 C    3.982 --    22 C    1.036    42 H    0.981    43 H    0.959
                            41 H    0.958
    24   8 O    2.322 --    22 C    1.078    19 C    1.044
    25   7 N    3.031 --     5 C    1.498    11 C    1.157
    26   1 H    1.001 --     1 C    0.978
    27   1 H    1.001 --     1 C    0.978
    28   1 H    1.005 --     1 C    0.985
    29   1 H    0.812 --     7 O    0.747
    30   1 H    0.910 --    10 N    0.873
    31   1 H    1.001 --    12 C    0.976
    32   1 H    0.995 --    12 C    0.975
    33   1 H    0.996 --    12 C    0.980
    34   1 H    0.998 --    14 C    0.980
    35   1 H    0.991 --    14 C    0.964
    36   1 H    0.995 --    14 C    0.980
    37   1 H    1.010 --    15 C    0.971
    38   1 H    0.993 --    15 C    0.969
    39   1 H    1.005 --    15 C    0.979
    40   1 H    0.928 --    16 N    0.882
    41   1 H    0.994 --    23 C    0.958
    42   1 H    0.996 --    23 C    0.981
    43   1 H    0.994 --    23 C    0.959
 ---------------------------------------------------------------------------

           -------------------------------------------------
          | TOTAL ENERGY              -83.124530185768 Eh   |
          | GRADIENT NORM               0.000556376268 Eh/α |
          | HOMO-LUMO GAP               1.029287777891 eV   |
           -------------------------------------------------

 * finished run on 2023/06/20 at 15:31:11.418
