   * xtb version 6.5.1 (579679a) compiled by 'ehlert@majestix' on 2022-07-11
          program call               : /lustre/hpc/kemi/ree/PhD/git/ReactivityQM/dep/xtb-6.5.1/bin/xtb --gfn 1 /lustre/hpc/kemi/ree/PhD/git/ReactivityQM/calculations/R02oxygendeprot/reac01prodN02/conf06/R02oxygendeprot_reac01prodN02_conf06_gfn1.xyz --opt --vfukui --chrg 0 --uhf 0 --alpb DMSO

   ID    Z sym.   atoms
    1    6 C      1, 3, 5, 7-10, 12, 14, 15, 18, 19, 22, 24
    2    8 O      2, 4, 13, 20, 23, 25
    3    7 N      6, 11, 16, 17, 21
    4    1 H      26-42

      * Solvation model:               ALPB
        Solvent                        DMSO
        Solvent mass                       7.8130E+01 g/mol
          :  Hamiltonian                  GFN1-xTB          :
 * total energy  :   -82.9416600 Eh     change       -0.5789502E-10 Eh
 * total energy  :   -82.9599301 Eh     change       -0.1827008E-01 Eh
 * total energy  :   -82.9677120 Eh     change       -0.7781921E-02 Eh
 * total energy  :   -82.9689112 Eh     change       -0.1199250E-02 Eh
 * total energy  :   -82.9697197 Eh     change       -0.8084783E-03 Eh
 * total energy  :   -82.9700316 Eh     change       -0.3118258E-03 Eh
 * total energy  :   -82.9703157 Eh     change       -0.2841441E-03 Eh
 * total energy  :   -82.9705213 Eh     change       -0.2055971E-03 Eh
 * total energy  :   -82.9706754 Eh     change       -0.1540612E-03 Eh
 * total energy  :   -82.9707931 Eh     change       -0.1177738E-03 Eh
 * total energy  :   -82.9714614 Eh     change       -0.1117537E-04 Eh
 * total energy  :   -82.9714752 Eh     change       -0.1376300E-04 Eh
 * total energy  :   -82.9714882 Eh     change       -0.1296702E-04 Eh
 * total energy  :   -82.9714956 Eh     change       -0.7458210E-05 Eh
 * total energy  :   -82.9715044 Eh     change       -0.8790592E-05 Eh
 * total energy  :   -82.9715146 Eh     change       -0.1013352E-04 Eh
 * total energy  :   -82.9715249 Eh     change       -0.1036839E-04 Eh
 * total energy  :   -82.9715306 Eh     change       -0.5700433E-05 Eh
 * total energy  :   -82.9715353 Eh     change       -0.4648611E-05 Eh
   *** GEOMETRY OPTIMIZATION CONVERGED AFTER 41 ITERATIONS ***

 final structure:
================
42
 xtb: 6.5.1 (579679a)
C            6.38348109969095        0.02914053726019        2.56858822708047
O            5.35403141970951        0.62944955439043        1.79160129852558
C            4.31943770502883       -0.17456902901697        1.45800306569991
O            4.28885326012730       -1.34401524078806        1.81860458140000
C            3.28504334293863        0.46659043410688        0.65251769455936
N            2.25129494218698       -0.39096157887777        0.33897955876286
C            1.26227287951109        0.00495069925809       -0.36873449275869
C            0.15993023442848       -0.96244673268408       -0.74167688216142
C            0.28357873773994       -2.23486021191626        0.09794590385449
C            0.22259341952638       -1.26134788071142       -2.24464071796297
N           -1.12888438968909       -0.29247420128698       -0.43028448841875
C           -2.32766373199303       -0.77579272785837       -0.63536888126307
O           -2.46025484391423       -1.96685594183668       -1.14469499391581
C           -3.73952807062569       -2.56012443913356       -1.41230958591975
C           -3.45024531466606        0.05689103829068       -0.27692159111357
N           -4.73223592028063       -0.17588081067908       -0.37050709074503
N           -5.36437315676158        0.91861658214703        0.09353458295239
C           -4.44257553232043        1.77187968795788        0.45010428215217
C           -4.62808907530998        3.11899231248895        1.02178582934840
O           -3.21467127301155        1.28159129419578        0.24052841330195
N            1.17939681906653        1.29241345441880       -0.86444755752145
C            2.13333811982847        2.25690440426156       -0.62384056915769
O            1.98902179970261        3.38008350837614       -1.08980431844933
C            3.31481004919210        1.81953548709614        0.21773883904241
O            4.20550544895807        2.64883168955260        0.46010905767321
H            7.14023549060777        0.79385163097922        2.74016296867046
H            6.82504000592544       -0.81823247706024        2.03489379279083
H            5.98764767144057       -0.32370717470736        3.52584065711994
H            0.14423489110534       -1.99742230362773        1.15140454855268
H            1.28387293431647       -2.64469431227142       -0.03963651806212
H           -0.45200175850766       -2.97417205061058       -0.20642092744195
H            0.03162955096552       -0.35406580857409       -2.81385234412642
H           -0.50865964569593       -2.01529639397621       -2.52369244012245
H            1.21845939747891       -1.63079270814395       -2.48644777828906
H           -1.08587677461434        0.63239298593947       -0.02024935265964
H           -3.52302193331041       -3.53514165410667       -1.84483827784916
H           -4.30394540424189       -2.66529361627348       -0.48449986803325
H           -4.29819750855275       -1.94095208965363       -2.11554208410154
H           -4.19613737155700        3.15699061087397        2.02252166734265
H           -5.68867056410730        3.35470166511308        1.07096032424494
H           -4.11133180277330        3.85656139229030        0.40682245459261
H            0.39265185245517        1.56873141480075       -1.42423998759565

          :  Hamiltonian                  GFN1-xTB          :
         :: total energy             -82.971535278262 Eh    ::
         :: gradient norm              0.000550679327 Eh/a0 ::
         :: HOMO-LUMO gap              0.213046570737 eV    ::
         :: SCC energy               -83.747604784841 Eh    ::
         :: -> Gsolv                  -0.103965043287 Eh    ::
         :: repulsion energy           0.801428799941 Eh    ::

    * Orbital Energies and Occupations

         #    Occupation            Energy/Eh            Energy/eV
      -------------------------------------------------------------
         1        2.0000           -0.8979819             -24.4353
       ...           ...                  ...                  ...
        55        2.0000           -0.5076631             -13.8142
        56        2.0000           -0.5028478             -13.6832
        57        2.0000           -0.4982034             -13.5568
        58        2.0000           -0.4919732             -13.3873
        59        2.0000           -0.4835918             -13.1592
        60        2.0000           -0.4797440             -13.0545
        61        2.0000           -0.4699788             -12.7888
        62        2.0000           -0.4670424             -12.7089
        63        2.0000           -0.4520817             -12.3018
        64        2.0000           -0.4438062             -12.0766
        65        2.0000           -0.4298991             -11.6982
        66        2.0000           -0.3889812             -10.5847
        67        1.9680           -0.3768241             -10.2539 (HOMO)
        68        0.0320           -0.3689948             -10.0409 (LUMO)
        69                         -0.2843678              -7.7380
        70                         -0.2790240              -7.5926
        71                         -0.2544861              -6.9249
        72                         -0.2493603              -6.7854
        73                         -0.2056932              -5.5972
        74                         -0.1586325              -4.3166
        75                         -0.1521871              -4.1412
        76                         -0.1362103              -3.7065
        77                         -0.1340119              -3.6467
        78                         -0.1238953              -3.3714
       ...                                ...                  ...
       134                          0.7544762              20.5303
      -------------------------------------------------------------
                  HL-Gap            0.0078293 Eh            0.2130 eV

Wiberg/Mayer (AO) data.
largest (>0.10) Wiberg bond orders for each atom

     #   Z sym  total        # sym  WBO       # sym  WBO       # sym  WBO
 ---------------------------------------------------------------------------
     1   6 C    3.894 --    26 H    0.987    28 H    0.980    27 H    0.980
                             2 O    0.920
     2   8 O    2.168 --     3 C    1.060     1 C    0.920     4 O    0.113
     3   6 C    3.850 --     4 O    1.584     5 C    1.099     2 O    1.060
     4   8 O    1.855 --     3 C    1.584     2 O    0.113
     5   6 C    3.895 --    24 C    1.260     6 N    1.166     3 C    1.099
                            25 O    0.124
     6   7 N    3.036 --     7 C    1.628     5 C    1.166
     7   6 C    3.924 --     6 N    1.628    21 N    1.089     8 C    0.978
     8   6 C    3.893 --     9 C    0.989    10 C    0.979     7 C    0.978
                            11 N    0.874
     9   6 C    3.983 --     8 C    0.989    31 H    0.984    29 H    0.984
                            30 H    0.979
    10   6 C    3.982 --    32 H    0.983    34 H    0.982    33 H    0.981
                             8 C    0.979
    11   7 N    3.471 --    12 C    1.454     8 C    0.874    35 H    0.874
                            13 O    0.108
    12   6 C    3.880 --    11 N    1.454    13 O    1.188    15 C    1.090
    13   8 O    2.270 --    12 C    1.188    14 C    0.864    11 N    0.108
    14   6 C    3.831 --    36 H    0.980    38 H    0.974    37 H    0.974
                            13 O    0.864
    15   6 C    3.881 --    16 N    1.543    12 C    1.090    20 O    1.046
    16   7 N    3.014 --    15 C    1.543    17 N    1.248
    17   7 N    2.986 --    18 C    1.553    16 N    1.248
    18   6 C    3.847 --    17 N    1.553    20 O    1.086    19 C    1.039
    19   6 C    3.979 --    18 C    1.039    40 H    0.980    41 H    0.957
                            39 H    0.954
    20   8 O    2.329 --    18 C    1.086    15 C    1.046
    21   7 N    3.412 --    22 C    1.142     7 C    1.089    42 H    0.896
                            23 O    0.133
    22   6 C    3.871 --    23 O    1.599    21 N    1.142    24 C    0.962
    23   8 O    1.875 --    22 C    1.599    21 N    0.133
    24   6 C    3.937 --    25 O    1.537     5 C    1.260    22 C    0.962
    25   8 O    1.832 --    24 C    1.537     5 C    0.124
    26   1 H    1.015 --     1 C    0.987
    27   1 H    1.013 --     1 C    0.980
    28   1 H    1.013 --     1 C    0.980
    29   1 H    1.004 --     9 C    0.984
    30   1 H    1.012 --     9 C    0.979
    31   1 H    1.004 --     9 C    0.984
    32   1 H    0.999 --    10 C    0.983
    33   1 H    1.003 --    10 C    0.981
    34   1 H    1.000 --    10 C    0.982
    35   1 H    0.925 --    11 N    0.874
    36   1 H    1.003 --    14 C    0.980
    37   1 H    1.008 --    14 C    0.974
    38   1 H    1.008 --    14 C    0.974
    39   1 H    0.992 --    19 C    0.954
    40   1 H    0.995 --    19 C    0.980
    41   1 H    0.992 --    19 C    0.957
    42   1 H    0.940 --    21 N    0.896
 ---------------------------------------------------------------------------

           -------------------------------------------------
          | TOTAL ENERGY              -82.971535278262 Eh   |
          | GRADIENT NORM               0.000550679327 Eh/α |
          | HOMO-LUMO GAP               0.213046570737 eV   |
           -------------------------------------------------

 * finished run on 2023/06/21 at 17:18:06.991
