   * xtb version 6.5.1 (579679a) compiled by 'ehlert@majestix' on 2022-07-11
          program call               : /lustre/hpc/kemi/ree/PhD/git/ReactivityQM/dep/xtb-6.5.1/bin/xtb --gfn 1 /lustre/hpc/kemi/ree/PhD/git/ReactivityQM/calculations/R02/reac01prodN10/conf09/R02_reac01prodN10_conf09_gfn1.xyz --opt --vfukui --chrg 1 --uhf 0 --alpb DMSO

   ID    Z sym.   atoms
    1    6 C      1, 3, 5, 6, 8, 11-15, 17, 19, 22, 23
    2    8 O      2, 4, 7, 9, 18, 24
    3    7 N      10, 16, 20, 21, 25
    4    1 H      26-43

      * Solvation model:               ALPB
        Solvent                        DMSO
        Solvent mass                       7.8130E+01 g/mol
          :  Hamiltonian                  GFN1-xTB          :
 * total energy  :   -83.0910767 Eh     change       -0.6300098E-09 Eh
 * total energy  :   -83.1074684 Eh     change       -0.1639167E-01 Eh
 * total energy  :   -83.1140521 Eh     change       -0.6583697E-02 Eh
 * total energy  :   -83.1152416 Eh     change       -0.1189512E-02 Eh
 * total energy  :   -83.1161392 Eh     change       -0.8976165E-03 Eh
 * total energy  :   -83.1167117 Eh     change       -0.5725038E-03 Eh
 * total energy  :   -83.1173439 Eh     change       -0.6322133E-03 Eh
 * total energy  :   -83.1179034 Eh     change       -0.5594608E-03 Eh
 * total energy  :   -83.1182971 Eh     change       -0.3936799E-03 Eh
 * total energy  :   -83.1185804 Eh     change       -0.2833223E-03 Eh
 * total energy  :   -83.1229078 Eh     change       -0.1379284E-04 Eh
 * total energy  :   -83.1229156 Eh     change       -0.7797860E-05 Eh
 * total energy  :   -83.1229222 Eh     change       -0.6580169E-05 Eh
 * total energy  :   -83.1229310 Eh     change       -0.8775224E-05 Eh
 * total energy  :   -83.1229396 Eh     change       -0.8656366E-05 Eh
 * total energy  :   -83.1229467 Eh     change       -0.7089162E-05 Eh
 * total energy  :   -83.1229528 Eh     change       -0.6058346E-05 Eh
 * total energy  :   -83.1229582 Eh     change       -0.5418672E-05 Eh
 * total energy  :   -83.1229625 Eh     change       -0.4343545E-05 Eh
   *** GEOMETRY OPTIMIZATION CONVERGED AFTER 105 ITERATIONS ***

 final structure:
================
43
 xtb: 6.5.1 (579679a)
C           -3.74760445083724        3.54527533434131        1.20990948360090
O           -3.54435261705152        2.20777449586161        0.71996683806297
C           -2.30211541395733        1.83860533521059        0.50003285030895
O           -1.32802964328073        2.52274673816802        0.66766403239727
C           -2.19556121322334        0.41019303548270       -0.00943715784352
C           -3.22479831572480       -0.55228882523922        0.04461991777819
O           -4.39225537978807       -0.33241972406937        0.53678399916996
C           -2.99416007283923       -1.91681543592869       -0.50614865712266
O           -3.88776055872312       -2.73661671688121       -0.50312212450591
N           -1.75372656361234       -2.10929407060657       -1.00799311180667
C           -0.69128218655952       -1.15995685613099       -0.95515972740118
C            0.02845928659061       -1.07089191354960       -2.30330518877757
C            0.39455903558110       -1.67877386439828        0.23010090747223
C           -0.30424586748759       -1.57093487018553        1.57967798653445
C            0.76983765164072       -3.12324270256531       -0.06242909710583
N            1.48306666976125       -0.77595229270755        0.20383717116899
C            2.64700577785837       -0.90449804218259       -0.51503703023336
O            2.90912185403677       -1.83122690112709       -1.25089592232732
C            3.56146548410040        0.22561378305585       -0.27590820214687
N            4.76527074472770        0.39016267517910       -0.73429800628265
N            5.21445413588918        1.57083339557392       -0.24385751499975
C            4.25936079739524        2.06536924256370        0.48677981999467
C            4.25548159744156        3.33999148884810        1.23343677734460
O            3.18590712083517        1.26075037916203        0.50701276197595
N           -1.02802671614436        0.09902393600257       -0.51522661123623
H           -4.82090527839049        3.66194545674364        1.34082792831755
H           -3.36554191888377        4.26469367119979        0.48312065473303
H           -3.22531223638888        3.67023787720783        2.16006755347952
H           -4.95662574012320       -1.13775099284374        0.48644703965546
H           -1.57987211438302       -3.00394191267779       -1.44450706415193
H            0.78970378185522       -0.29639866572062       -2.25198000601798
H           -0.70943853636654       -0.79849701494164       -3.05625130497683
H            0.48267854733397       -2.02010859063361       -2.57386756409040
H           -0.46413162464120       -0.53194785972224        1.86022594470727
H           -1.25970770203983       -2.09091886417321        1.56337950678578
H            0.33106983933180       -2.04151387988832        2.32973665358076
H            1.63672430620592       -3.37803996735895        0.54723998753955
H           -0.05885054847613       -3.77209854759435        0.21307348395793
H            1.02758340596646       -3.29868050581342       -1.10301635563945
H            1.35517382496116        0.08449356645641        0.71975313778606
H            3.50438901048873        4.01050808162880        0.81495976126801
H            3.99743901185278        3.15746121201778        2.27615042801587
H            5.23554881505266        3.80713031223589        1.17059402101689

          :  Hamiltonian                  GFN1-xTB          :
         :: total energy             -83.122962528330 Eh    ::
         :: gradient norm              0.000328994590 Eh/a0 ::
         :: HOMO-LUMO gap              0.991740095720 eV    ::
         :: SCC energy               -83.914589921708 Eh    ::
         :: -> Gsolv                  -0.115976966314 Eh    ::
         :: repulsion energy           0.820116630574 Eh    ::

    * Orbital Energies and Occupations

         #    Occupation            Energy/Eh            Energy/eV
      -------------------------------------------------------------
         1        2.0000           -0.8969663             -24.4077
       ...           ...                  ...                  ...
        55        2.0000           -0.5323889             -14.4870
        56        2.0000           -0.5291236             -14.3982
        57        2.0000           -0.5224247             -14.2159
        58        2.0000           -0.5215103             -14.1910
        59        2.0000           -0.5176411             -14.0857
        60        2.0000           -0.5164092             -14.0522
        61        2.0000           -0.5108083             -13.8998
        62        2.0000           -0.4978416             -13.5470
        63        2.0000           -0.4927560             -13.4086
        64        2.0000           -0.4893454             -13.3158
        65        2.0000           -0.4814578             -13.1011
        66        2.0000           -0.4687316             -12.7548
        67        2.0000           -0.4679106             -12.7325 (HOMO)
        68                         -0.4314649             -11.7408 (LUMO)
        69                         -0.3563497              -9.6968
        70                         -0.3353893              -9.1264
        71                         -0.2793136              -7.6005
        72                         -0.2708534              -7.3703
        73                         -0.2277246              -6.1967
        74                         -0.2207543              -6.0070
        75                         -0.1609882              -4.3807
        76                         -0.1550080              -4.2180
        77                         -0.1490526              -4.0559
        78                         -0.1487496              -4.0477
       ...                                ...                  ...
       136                          0.7233654              19.6838
      -------------------------------------------------------------
                  HL-Gap            0.0364458 Eh            0.9917 eV

Wiberg/Mayer (AO) data.
largest (>0.10) Wiberg bond orders for each atom

     #   Z sym  total        # sym  WBO       # sym  WBO       # sym  WBO
 ---------------------------------------------------------------------------
     1   6 C    3.847 --    26 H    0.985    27 H    0.978    28 H    0.978
                             2 O    0.873
     2   8 O    2.229 --     3 C    1.160     1 C    0.873     4 O    0.150
     3   6 C    3.865 --     4 O    1.691     2 O    1.160     5 C    0.942
     4   8 O    1.958 --     3 C    1.691     2 O    0.150
     5   6 C    3.952 --    25 N    1.509     6 C    1.247     3 C    0.942
     6   6 C    3.836 --     7 O    1.307     5 C    1.247     8 C    0.985
     7   8 O    2.229 --     6 C    1.307    29 H    0.755
     8   6 C    3.919 --     9 O    1.615    10 N    1.219     6 C    0.985
     9   8 O    1.945 --     8 C    1.615    10 N    0.182
    10   7 N    3.435 --     8 C    1.219    11 C    0.991    30 H    0.869
                             9 O    0.182
    11   6 C    3.905 --    25 N    1.153    10 N    0.991    12 C    0.943
                            13 C    0.673
    12   6 C    3.961 --    31 H    0.979    33 H    0.976    32 H    0.974
                            11 C    0.943
    13   6 C    3.903 --    16 N    1.038    14 C    1.004    15 C    0.999
                            11 C    0.673
    14   6 C    3.984 --    13 C    1.004    34 H    0.980    35 H    0.980
                            36 H    0.966
    15   6 C    3.977 --    13 C    0.999    38 H    0.981    39 H    0.969
                            37 H    0.960
    16   7 N    3.386 --    17 C    1.154    13 C    1.038    40 H    0.882
                            18 O    0.134
    17   6 C    3.901 --    18 O    1.632    16 N    1.154    19 C    1.015
    18   8 O    1.934 --    17 C    1.632    16 N    0.134
    19   6 C    3.876 --    20 N    1.599    24 O    1.045    17 C    1.015
    20   7 N    3.003 --    19 C    1.599    21 N    1.222
    21   7 N    2.980 --    22 C    1.585    20 N    1.222
    22   6 C    3.856 --    21 N    1.585    24 O    1.077    23 C    1.035
    23   6 C    3.983 --    22 C    1.035    43 H    0.981    42 H    0.962
                            41 H    0.957
    24   8 O    2.322 --    22 C    1.077    19 C    1.045
    25   7 N    3.031 --     5 C    1.509    11 C    1.153
    26   1 H    1.007 --     1 C    0.985
    27   1 H    1.002 --     1 C    0.978
    28   1 H    1.002 --     1 C    0.978
    29   1 H    0.802 --     7 O    0.755
    30   1 H    0.907 --    10 N    0.869
    31   1 H    1.000 --    12 C    0.979
    32   1 H    0.995 --    12 C    0.974
    33   1 H    1.000 --    12 C    0.976
    34   1 H    0.997 --    14 C    0.980
    35   1 H    0.997 --    14 C    0.980
    36   1 H    0.992 --    14 C    0.966
    37   1 H    0.989 --    15 C    0.960
    38   1 H    0.997 --    15 C    0.981
    39   1 H    1.008 --    15 C    0.969
    40   1 H    0.934 --    16 N    0.882
    41   1 H    0.994 --    23 C    0.957
    42   1 H    0.994 --    23 C    0.962
    43   1 H    0.997 --    23 C    0.981
 ---------------------------------------------------------------------------

           -------------------------------------------------
          | TOTAL ENERGY              -83.122962528330 Eh   |
          | GRADIENT NORM               0.000328994590 Eh/α |
          | HOMO-LUMO GAP               0.991740095720 eV   |
           -------------------------------------------------

 * finished run on 2023/06/20 at 15:31:33.665
