   * xtb version 6.5.1 (579679a) compiled by 'ehlert@majestix' on 2022-07-11
          program call               : /lustre/hpc/kemi/ree/PhD/git/ReactivityQM/dep/xtb-6.5.1/bin/xtb --gfn 1 /lustre/hpc/kemi/ree/PhD/git/ReactivityQM/calculations/R01/reac02prodN09/conf06/R01_reac02prodN09_conf06_gfn1.xyz --opt --vfukui --chrg 1 --uhf 0 --alpb DMSO

   ID    Z sym.   atoms
    1    6 C      1, 3, 5, 7-10, 13, 15, 16
    2    8 O      2, 4, 14, 17
    3    7 N      6, 11, 12
    4    1 H      18-33

      * Solvation model:               ALPB
        Solvent                        DMSO
        Solvent mass                       7.8130E+01 g/mol
          :  Hamiltonian                  GFN1-xTB          :
 * total energy  :   -57.7924891 Eh     change       -0.2316369E-11 Eh
 * total energy  :   -57.8038897 Eh     change       -0.1140058E-01 Eh
 * total energy  :   -57.8089618 Eh     change       -0.5072086E-02 Eh
 * total energy  :   -57.8100439 Eh     change       -0.1082131E-02 Eh
 * total energy  :   -57.8108663 Eh     change       -0.8224494E-03 Eh
 * total energy  :   -57.8113085 Eh     change       -0.4421356E-03 Eh
 * total energy  :   -57.8117658 Eh     change       -0.4573098E-03 Eh
 * total energy  :   -57.8121349 Eh     change       -0.3691129E-03 Eh
 * total energy  :   -57.8123928 Eh     change       -0.2578997E-03 Eh
 * total energy  :   -57.8125616 Eh     change       -0.1688011E-03 Eh
 * total energy  :   -57.8145495 Eh     change       -0.9712782E-05 Eh
 * total energy  :   -57.8145656 Eh     change       -0.1605391E-04 Eh
 * total energy  :   -57.8145950 Eh     change       -0.2942552E-04 Eh
 * total energy  :   -57.8146174 Eh     change       -0.2237996E-04 Eh
 * total energy  :   -57.8146295 Eh     change       -0.1210319E-04 Eh
 * total energy  :   -57.8146401 Eh     change       -0.1062776E-04 Eh
 * total energy  :   -57.8146491 Eh     change       -0.8981766E-05 Eh
 * total energy  :   -57.8146551 Eh     change       -0.6063280E-05 Eh
 * total energy  :   -57.8146589 Eh     change       -0.3792958E-05 Eh
   *** GEOMETRY OPTIMIZATION CONVERGED AFTER 64 ITERATIONS ***

 final structure:
================
33
 xtb: 6.5.1 (579679a)
C           -3.50815929645439        2.58158656354215        0.48795049311222
O           -2.32966698328905        1.75746987631516        0.55318609751484
C           -2.47476130169110        0.48832586939060        0.27722020081068
O           -3.50682281623915       -0.05921040951727       -0.02350017445383
C           -1.16908769280453       -0.28039567806929        0.35810662289968
N           -0.06392104880896        0.38015149012554        0.27393295900510
C            1.12625524238324       -0.27162939581353        0.37620269496840
C            2.36618128900724        0.55961961322530        0.24390945901060
C            2.39133554148132        1.56026907374281        1.41390104393003
C            2.26836561505093        1.31616642957447       -1.09589754049819
N            3.57138061708728       -0.23043736205604        0.25590014421874
N            1.18284857201250       -1.56585864711925        0.60372658311222
C            0.05006768561992       -2.41245525926063        0.82155149117303
O            0.20641411697712       -3.50944987108908        1.25219337162432
C           -1.24259784659441       -1.78037809519769        0.34855370078625
C           -1.33029116985319       -2.15410899886422       -1.17060331936932
O           -2.30205909518150       -2.32172360317866        1.05289280278301
H           -3.87757795824328        2.60378369677472       -0.53861127500871
H           -3.20321045435642        3.57366830834776        0.81225998810465
H           -4.27684006554516        2.17320858147659        1.14627045700018
H            1.49308754068077        2.17548125237181        1.40230452249786
H            3.26995232516019        2.19373026449349        1.30498211948748
H            2.44916992652679        1.02531125544375        2.36028986791547
H            2.24202375567665        0.60740741747179       -1.92087664667419
H            3.14840033554565        1.94878805218300       -1.19561779685469
H            1.37034238784994        1.93016741518497       -1.12056413729732
H            3.55017207773202       -0.95041187560856       -0.44975849237211
H            3.75141849886703       -0.63598037344692        1.16127470171572
H            2.08425144106250       -1.99555844199979        0.78305798651217
H           -1.36079775405343       -3.23999789648757       -1.23875972245466
H           -2.24957044502998       -1.73440654922019       -1.57281894318734
H           -0.47382589807163       -1.76765889450014       -1.71578510197418
H           -3.15247514250252       -1.96547480823589        0.74356184196108

          :  Hamiltonian                  GFN1-xTB          :
         :: total energy             -57.814658929767 Eh    ::
         :: gradient norm              0.000774582493 Eh/a0 ::
         :: HOMO-LUMO gap              0.582925256815 eV    ::
         :: SCC energy               -58.387746280522 Eh    ::
         :: -> Gsolv                  -0.102958765117 Eh    ::
         :: repulsion energy           0.592363812422 Eh    ::

    * Orbital Energies and Occupations

         #    Occupation            Energy/Eh            Energy/eV
      -------------------------------------------------------------
         1        2.0000           -0.8961287             -24.3849
       ...           ...                  ...                  ...
        35        2.0000           -0.5500308             -14.9671
        36        2.0000           -0.5434243             -14.7873
        37        2.0000           -0.5428006             -14.7704
        38        2.0000           -0.5395752             -14.6826
        39        2.0000           -0.5377969             -14.6342
        40        2.0000           -0.5341255             -14.5343
        41        2.0000           -0.5321298             -14.4800
        42        2.0000           -0.5242580             -14.2658
        43        2.0000           -0.5238806             -14.2555
        44        2.0000           -0.5177173             -14.0878
        45        2.0000           -0.5056985             -13.7608
        46        2.0000           -0.4899491             -13.3322
        47        2.0000           -0.4476832             -12.1821 (HOMO)
        48        0.0000           -0.4262611             -11.5992 (LUMO)
        49                         -0.3519915              -9.5782
        50                         -0.3069007              -8.3512
        51                         -0.2651359              -7.2147
        52                         -0.1618515              -4.4042
        53                         -0.1530802              -4.1655
        54                         -0.1522466              -4.1428
        55                         -0.1458293              -3.9682
        56                         -0.1423654              -3.8740
        57                         -0.1085936              -2.9550
        58                         -0.1018804              -2.7723
       ...                                ...                  ...
       100                          0.7103398              19.3293
      -------------------------------------------------------------
                  HL-Gap            0.0214221 Eh            0.5829 eV

Wiberg/Mayer (AO) data.
largest (>0.10) Wiberg bond orders for each atom

     #   Z sym  total        # sym  WBO       # sym  WBO       # sym  WBO
 ---------------------------------------------------------------------------
     1   6 C    3.838 --    19 H    0.984    20 H    0.975    18 H    0.975
                             2 O    0.867
     2   8 O    2.255 --     3 C    1.186     1 C    0.867     4 O    0.156
     3   6 C    3.864 --     4 O    1.665     2 O    1.186     5 C    0.944
     4   8 O    1.977 --     3 C    1.665     2 O    0.156
     5   6 C    3.908 --     6 N    1.644    15 C    0.996     3 C    0.944
     6   7 N    3.054 --     5 C    1.644     7 C    1.191
     7   6 C    3.858 --    12 N    1.428     6 N    1.191     8 C    1.007
     8   6 C    3.958 --    11 N    1.010     7 C    1.007     9 C    0.944
                            10 C    0.942
     9   6 C    3.979 --    23 H    0.984    21 H    0.984    22 H    0.976
                             8 C    0.944
    10   6 C    3.980 --    24 H    0.984    26 H    0.984    25 H    0.976
                             8 C    0.942
    11   7 N    2.968 --     8 C    1.010    27 H    0.930    28 H    0.927
    12   7 N    3.526 --     7 C    1.428    13 C    0.978    29 H    0.853
    13   6 C    3.856 --    14 O    1.806    12 N    0.978    15 C    0.950
    14   8 O    2.049 --    13 C    1.806
    15   6 C    3.942 --    17 O    1.007     5 C    0.996    13 C    0.950
                            16 C    0.860
    16   6 C    3.961 --    32 H    0.985    31 H    0.975    30 H    0.970
                            15 C    0.860
    17   8 O    1.924 --    15 C    1.007    33 H    0.811
    18   1 H    1.000 --     1 C    0.975
    19   1 H    1.005 --     1 C    0.984
    20   1 H    1.000 --     1 C    0.975
    21   1 H    1.001 --     9 C    0.984
    22   1 H    0.997 --     9 C    0.976
    23   1 H    0.996 --     9 C    0.984
    24   1 H    0.996 --    10 C    0.984
    25   1 H    0.999 --    10 C    0.976
    26   1 H    1.003 --    10 C    0.984
    27   1 H    0.943 --    11 N    0.930
    28   1 H    0.942 --    11 N    0.927
    29   1 H    0.904 --    12 N    0.853
    30   1 H    0.992 --    16 C    0.970
    31   1 H    0.998 --    16 C    0.975
    32   1 H    0.993 --    16 C    0.985
    33   1 H    0.850 --    17 O    0.811
 ---------------------------------------------------------------------------

           -------------------------------------------------
          | TOTAL ENERGY              -57.814658929767 Eh   |
          | GRADIENT NORM               0.000774582493 Eh/α |
          | HOMO-LUMO GAP               0.582925256815 eV   |
           -------------------------------------------------

 * finished run on 2023/06/20 at 15:09:43.535
