   * xtb version 6.5.1 (579679a) compiled by 'ehlert@majestix' on 2022-07-11
          program call               : /lustre/hpc/kemi/ree/PhD/git/ReactivityQM/dep/xtb-6.5.1/bin/xtb --gfn 1 /lustre/hpc/kemi/ree/PhD/git/ReactivityQM/calculations/R02/reac01prodN09/conf01/R02_reac01prodN09_conf01_gfn1.xyz --opt --vfukui --chrg 1 --uhf 0 --alpb DMSO

   ID    Z sym.   atoms
    1    6 C      1, 3, 5, 6, 8-11, 13, 15, 18, 19, 22, 24
    2    8 O      2, 4, 14, 20, 23, 25
    3    7 N      7, 12, 16, 17, 21
    4    1 H      26-43

      * Solvation model:               ALPB
        Solvent                        DMSO
        Solvent mass                       7.8130E+01 g/mol
          :  Hamiltonian                  GFN1-xTB          :
 * total energy  :   -83.0963828 Eh     change       -0.3181810E-10 Eh
 * total energy  :   -83.1161042 Eh     change       -0.1972141E-01 Eh
 * total energy  :   -83.1243749 Eh     change       -0.8270628E-02 Eh
 * total energy  :   -83.1259646 Eh     change       -0.1589719E-02 Eh
 * total energy  :   -83.1268302 Eh     change       -0.8656205E-03 Eh
 * total energy  :   -83.1271160 Eh     change       -0.2858391E-03 Eh
 * total energy  :   -83.1273914 Eh     change       -0.2753930E-03 Eh
 * total energy  :   -83.1275779 Eh     change       -0.1865185E-03 Eh
 * total energy  :   -83.1277278 Eh     change       -0.1498052E-03 Eh
 * total energy  :   -83.1278781 Eh     change       -0.1503283E-03 Eh
 * total energy  :   -83.1290233 Eh     change       -0.1323894E-04 Eh
 * total energy  :   -83.1290356 Eh     change       -0.1233137E-04 Eh
 * total energy  :   -83.1290524 Eh     change       -0.1675924E-04 Eh
 * total energy  :   -83.1290466 Eh     change        0.5783497E-05 Eh
 * total energy  :   -83.1290592 Eh     change       -0.1264070E-04 Eh
 * total energy  :   -83.1290687 Eh     change       -0.9500799E-05 Eh
 * total energy  :   -83.1290759 Eh     change       -0.7191694E-05 Eh
 * total energy  :   -83.1290841 Eh     change       -0.8146273E-05 Eh
 * total energy  :   -83.1290887 Eh     change       -0.4634585E-05 Eh
   *** GEOMETRY OPTIMIZATION CONVERGED AFTER 43 ITERATIONS ***

 final structure:
================
43
 xtb: 6.5.1 (579679a)
C           -4.50728003658426        2.09213836412267        0.44418262153514
O           -3.59986337408955        0.96560143054858        0.34187977853433
C           -4.04800527540249       -0.13681157234126       -0.15550500737080
O           -5.13809174063755       -0.42679036715040       -0.52153722727873
C           -2.84716203784239       -1.24203324346327       -0.25074897363950
C           -3.32682790371241       -2.33720325042572       -1.20586056656909
N           -1.73551168724943       -0.53067301153361       -0.78098416975629
C           -0.81406315760675       -0.07408468435689       -0.02574519714775
C            0.30484140512396        0.75695926521469       -0.60825330851227
C            0.00899246076217        2.22292276725754       -0.25151615372269
C            0.38858414226652        0.55736913908560       -2.12397146900910
N            1.54495529057863        0.31464862801164        0.03234397755303
C            2.74262372541958        0.91105900866090       -0.22687377618328
O            2.89073012219237        1.95465744706238       -0.82851433204718
C            3.85616449951001        0.11800230420998        0.34249192798873
N            3.75282790021248       -1.01695203225956        0.96831436518426
N            5.01703426718818       -1.40657046424753        1.28472973022708
C            5.81441418094719       -0.48591491265504        0.82807938549455
C            7.29097844251528       -0.44755469582443        0.90965124052621
O            5.13947826366032        0.50129005185555        0.22334511396752
N           -0.78951384092189       -0.25217407970791        1.34814383582427
C           -1.68772028984295       -1.00931196685510        2.02535831587863
O           -1.67780787110771       -1.23793611582619        3.21273674017552
C           -2.73080998442055       -1.61772891109419        1.14405047827108
O           -3.55212869478395       -2.42748725777718        1.68788407489905
H           -4.07607546538741        2.75128762000865        1.19346538998049
H           -4.55805693798780        2.58918608424816       -0.52451182195156
H           -5.49373294963047        1.73983015711711        0.74600710893431
H           -4.22714466691931       -2.80205744441147       -0.80997359745316
H           -3.53533741820528       -1.89520672741862       -2.17749639933583
H           -2.53984936016799       -3.08141477328864       -1.30645310849045
H           -0.99523512914891        2.47715625205602       -0.58663867697993
H            0.72634891583529        2.87857013304288       -0.74144090664537
H            0.07149801451270        2.36378168696060        0.82561538744010
H            1.19474060940295        1.16642645293525       -2.52933493951874
H           -0.55278653788024        0.85547219779882       -2.58147923149747
H            0.57641405193019       -0.49041553607037       -2.35073672922226
H            1.57362241678018       -0.62902880251824        0.38717316583650
H            7.71731410994562       -0.44141527695993       -0.09394194480854
H            7.64989949149080       -1.31832631120921        1.45319057975302
H            7.61226146637192        0.46147707703199        1.41833998611528
H           -0.03890861731268        0.16466566210271        1.88521989635774
H           -3.40181279980432       -2.53541029193784        2.65537443665936

          :  Hamiltonian                  GFN1-xTB          :
         :: total energy             -83.129088687374 Eh    ::
         :: gradient norm              0.000764103785 Eh/a0 ::
         :: HOMO-LUMO gap              0.798038793019 eV    ::
         :: SCC energy               -83.930012221867 Eh    ::
         :: -> Gsolv                  -0.112482721616 Eh    ::
         :: repulsion energy           0.828298177541 Eh    ::

    * Orbital Energies and Occupations

         #    Occupation            Energy/Eh            Energy/eV
      -------------------------------------------------------------
         1        2.0000           -0.9201314             -25.0380
       ...           ...                  ...                  ...
        55        2.0000           -0.5342795             -14.5385
        56        2.0000           -0.5301911             -14.4272
        57        2.0000           -0.5275466             -14.3553
        58        2.0000           -0.5171356             -14.0720
        59        2.0000           -0.5129586             -13.9583
        60        2.0000           -0.5120933             -13.9348
        61        2.0000           -0.4985951             -13.5675
        62        2.0000           -0.4970921             -13.5266
        63        2.0000           -0.4894550             -13.3187
        64        2.0000           -0.4757441             -12.9457
        65        2.0000           -0.4707036             -12.8085
        66        2.0000           -0.4593607             -12.4998
        67        2.0000           -0.4572633             -12.4428 (HOMO)
        68        0.0000           -0.4279359             -11.6447 (LUMO)
        69                         -0.3388998              -9.2219
        70                         -0.3212965              -8.7429
        71                         -0.3111511              -8.4669
        72                         -0.2711761              -7.3791
        73                         -0.2621864              -7.1345
        74                         -0.2086356              -5.6773
        75                         -0.1676083              -4.5609
        76                         -0.1569214              -4.2700
        77                         -0.1525025              -4.1498
        78                         -0.1475647              -4.0154
       ...                                ...                  ...
       136                          0.7497475              20.4017
      -------------------------------------------------------------
                  HL-Gap            0.0293274 Eh            0.7980 eV

Wiberg/Mayer (AO) data.
largest (>0.10) Wiberg bond orders for each atom

     #   Z sym  total        # sym  WBO       # sym  WBO       # sym  WBO
 ---------------------------------------------------------------------------
     1   6 C    3.815 --    26 H    0.980    28 H    0.980    27 H    0.976
                             2 O    0.835
     2   8 O    2.256 --     3 C    1.223     1 C    0.835     4 O    0.149
     3   6 C    3.857 --     4 O    1.752     2 O    1.223     5 C    0.698
     4   8 O    2.097 --     3 C    1.752     2 O    0.149
     5   6 C    3.955 --    24 C    1.109     7 N    1.023     6 C    0.951
                             3 C    0.698
     6   6 C    3.965 --    30 H    0.980    29 H    0.980    31 H    0.977
                             5 C    0.951
     7   7 N    3.030 --     8 C    1.694     5 C    1.023
     8   6 C    3.912 --     7 N    1.694    21 N    1.097     9 C    0.981
     9   6 C    3.933 --    11 C    0.988     8 C    0.981    10 C    0.968
                            12 N    0.930
    10   6 C    3.983 --    32 H    0.985    34 H    0.984    33 H    0.973
                             9 C    0.968
    11   6 C    3.986 --     9 C    0.988    37 H    0.984    36 H    0.983
                            35 H    0.981
    12   7 N    3.302 --    13 C    1.206     9 C    0.930    38 H    0.893
                            14 O    0.165
    13   6 C    3.911 --    14 O    1.622    12 N    1.206    15 C    0.996
    14   8 O    1.933 --    13 C    1.622    12 N    0.165
    15   6 C    3.878 --    16 N    1.603    20 O    1.065    13 C    0.996
    16   7 N    3.020 --    15 C    1.603    17 N    1.208
    17   7 N    2.981 --    18 C    1.596    16 N    1.208
    18   6 C    3.868 --    17 N    1.596    20 O    1.086    19 C    1.032
    19   6 C    3.985 --    18 C    1.032    40 H    0.982    41 H    0.963
                            39 H    0.961
    20   8 O    2.335 --    18 C    1.086    15 C    1.065
    21   7 N    3.482 --    22 C    1.198     8 C    1.097    42 H    0.863
                            23 O    0.166
    22   6 C    3.921 --    23 O    1.641    21 N    1.198    24 C    0.972
    23   8 O    1.980 --    22 C    1.641    21 N    0.166
    24   6 C    3.805 --    25 O    1.364     5 C    1.109    22 C    0.972
    25   8 O    2.284 --    24 C    1.364    43 H    0.741
    26   1 H    1.002 --     1 C    0.980
    27   1 H    0.997 --     1 C    0.976
    28   1 H    0.997 --     1 C    0.980
    29   1 H    0.998 --     6 C    0.980
    30   1 H    0.997 --     6 C    0.980
    31   1 H    0.994 --     6 C    0.977
    32   1 H    1.001 --    10 C    0.985
    33   1 H    1.008 --    10 C    0.973
    34   1 H    0.999 --    10 C    0.984
    35   1 H    1.003 --    11 C    0.981
    36   1 H    1.005 --    11 C    0.983
    37   1 H    1.001 --    11 C    0.984
    38   1 H    0.948 --    12 N    0.893
    39   1 H    0.996 --    19 C    0.961
    40   1 H    0.998 --    19 C    0.982
    41   1 H    0.996 --    19 C    0.963
    42   1 H    0.909 --    21 N    0.863
    43   1 H    0.785 --    25 O    0.741
 ---------------------------------------------------------------------------

           -------------------------------------------------
          | TOTAL ENERGY              -83.129088687374 Eh   |
          | GRADIENT NORM               0.000764103785 Eh/α |
          | HOMO-LUMO GAP               0.798038793019 eV   |
           -------------------------------------------------

 * finished run on 2023/06/20 at 15:29:39.621
