   * xtb version 6.5.1 (579679a) compiled by 'ehlert@majestix' on 2022-07-11
          program call               : /lustre/hpc/kemi/ree/PhD/git/ReactivityQM/dep/xtb-6.5.1/bin/xtb --gfn 1 /lustre/hpc/kemi/ree/PhD/git/ReactivityQM/calculations/R02methylcation/reac01prodN02/conf02/R02methylcation_reac01prodN02_conf02_gfn1.xyz --opt --vfukui --chrg 0 --uhf 0 --alpb DMSO

   ID    Z sym.   atoms
    1    6 C      1, 3, 5, 7-10, 12, 14, 15, 18, 19, 22, 24
    2    8 O      2, 4, 13, 20, 23, 25
    3    7 N      6, 11, 16, 17, 21
    4    1 H      26-42

      * Solvation model:               ALPB
        Solvent                        DMSO
        Solvent mass                       7.8130E+01 g/mol
          :  Hamiltonian                  GFN1-xTB          :
 * total energy  :   -82.9416038 Eh     change       -0.7023004E-10 Eh
 * total energy  :   -82.9598810 Eh     change       -0.1827721E-01 Eh
 * total energy  :   -82.9676785 Eh     change       -0.7797512E-02 Eh
 * total energy  :   -82.9688842 Eh     change       -0.1205668E-02 Eh
 * total energy  :   -82.9696686 Eh     change       -0.7843508E-03 Eh
 * total energy  :   -82.9699699 Eh     change       -0.3013060E-03 Eh
 * total energy  :   -82.9702591 Eh     change       -0.2892021E-03 Eh
 * total energy  :   -82.9704672 Eh     change       -0.2081506E-03 Eh
 * total energy  :   -82.9706246 Eh     change       -0.1574318E-03 Eh
 * total energy  :   -82.9707515 Eh     change       -0.1268877E-03 Eh
 * total energy  :   -82.9714473 Eh     change       -0.1142195E-04 Eh
 * total energy  :   -82.9714567 Eh     change       -0.9320861E-05 Eh
 * total energy  :   -82.9714637 Eh     change       -0.7033109E-05 Eh
 * total energy  :   -82.9714694 Eh     change       -0.5688147E-05 Eh
 * total energy  :   -82.9714752 Eh     change       -0.5857100E-05 Eh
 * total energy  :   -82.9714815 Eh     change       -0.6220735E-05 Eh
 * total energy  :   -82.9714876 Eh     change       -0.6146326E-05 Eh
 * total energy  :   -82.9714927 Eh     change       -0.5121517E-05 Eh
 * total energy  :   -82.9714969 Eh     change       -0.4114333E-05 Eh
   *** GEOMETRY OPTIMIZATION CONVERGED AFTER 36 ITERATIONS ***

 final structure:
================
42
 xtb: 6.5.1 (579679a)
C            6.49953856140022        2.18409164017710       -0.95859166015543
O            5.42954291488791        1.77096793484557       -0.11708377080632
C            4.38367301517410        1.17859308735138       -0.73654831694071
O            4.37717611459813        1.02183751208272       -1.95052129633666
C            3.30791551389475        0.75749174105186        0.15517697507579
N            2.26877890485195        0.14852386836198       -0.51767893976271
C            1.24769081436068       -0.29153082134713        0.11435175251749
C            0.13952426453823       -1.00476230212359       -0.62935709291263
C            0.19607373529872       -2.50395307809390       -0.30857139785018
C            0.26288446211451       -0.73861414073857       -2.13043244110719
N           -1.14558509915805       -0.44726989135963       -0.13640343567285
C           -2.34664046266235       -0.84176803363229       -0.47584562359733
O           -2.48440123796635       -1.78482517571391       -1.36341446194431
C           -3.76467525681384       -2.28663339195662       -1.77400394235921
C           -3.46602469337814       -0.19993216075855        0.16959720409819
N           -4.74850912666229       -0.38414328521332        0.00201090493210
N           -5.37885776247785        0.45139369330904        0.84875500033599
C           -4.45556809155034        1.10893454060949        1.49708573336313
C           -4.64051399582049        2.13755685989965        2.53794394627574
O           -3.22851787186696        0.74060110249742        1.10908056721626
N            1.13456622556358       -0.19692868099994        1.48878392523847
C            2.08977468802161        0.39315596195621        2.28701250935280
O            1.91850569199853        0.44391281956087        3.49836283089632
C            3.30724041298015        0.93425617484254        1.56569926514243
O            4.19818767018790        1.47662941582784        2.23783796030777
H            6.93363685392825        1.32525976282796       -1.47980352871872
H            6.14921735792344        2.90743764908940       -1.70113773332655
H            7.24931056042572        2.64549143709473       -0.31693325776024
H           -0.53331179080812       -3.05843402623106       -0.89277242021767
H            0.00026248024991       -2.66561916423805        0.74934286801215
H            1.19216151195391       -2.87480644362628       -0.54746292210447
H           -0.47587119970273       -1.30960655141585       -2.68624750069982
H            0.12475527874856        0.32238458410998       -2.33177199147423
H            1.26206910439199       -1.02996916526279       -2.45351883649871
H           -1.09950379658895        0.30734222282051        0.53744806263603
H           -3.55077942808695       -3.07054452688231       -2.49794457297382
H           -4.30025821624248       -2.69060838346541       -0.91387114351477
H           -4.35006115434050       -1.48763561296750       -2.23118809092666
H           -4.17845057110175        3.07265004750906        2.21977223612643
H           -5.70172347885305        2.29297215922872        2.71658163754993
H           -4.15287352367589        1.82030825868097        3.46036225316474
H            0.32964362026402       -0.57420863770319        1.95589674542034

          :  Hamiltonian                  GFN1-xTB          :
         :: total energy             -82.971496850044 Eh    ::
         :: gradient norm              0.000409697383 Eh/a0 ::
         :: HOMO-LUMO gap              0.215151226930 eV    ::
         :: SCC energy               -83.747547034033 Eh    ::
         :: -> Gsolv                  -0.104038476070 Eh    ::
         :: repulsion energy           0.801424803330 Eh    ::

    * Orbital Energies and Occupations

         #    Occupation            Energy/Eh            Energy/eV
      -------------------------------------------------------------
         1        2.0000           -0.8978003             -24.4304
       ...           ...                  ...                  ...
        55        2.0000           -0.5074907             -13.8095
        56        2.0000           -0.5028847             -13.6842
        57        2.0000           -0.4980771             -13.5534
        58        2.0000           -0.4919752             -13.3873
        59        2.0000           -0.4834435             -13.1552
        60        2.0000           -0.4796450             -13.0518
        61        2.0000           -0.4699599             -12.7883
        62        2.0000           -0.4671736             -12.7124
        63        2.0000           -0.4521696             -12.3042
        64        2.0000           -0.4438272             -12.0772
        65        2.0000           -0.4299887             -11.7006
        66        2.0000           -0.3890517             -10.5866
        67        1.9693           -0.3768559             -10.2548 (HOMO)
        68        0.0307           -0.3689493             -10.0396 (LUMO)
        69                         -0.2842343              -7.7344
        70                         -0.2790932              -7.5945
        71                         -0.2543585              -6.9214
        72                         -0.2493691              -6.7857
        73                         -0.2057242              -5.5980
        74                         -0.1585112              -4.3133
        75                         -0.1520562              -4.1377
        76                         -0.1361845              -3.7058
        77                         -0.1339357              -3.6446
        78                         -0.1239245              -3.3722
       ...                                ...                  ...
       134                          0.7545368              20.5320
      -------------------------------------------------------------
                  HL-Gap            0.0079067 Eh            0.2152 eV

Wiberg/Mayer (AO) data.
largest (>0.10) Wiberg bond orders for each atom

     #   Z sym  total        # sym  WBO       # sym  WBO       # sym  WBO
 ---------------------------------------------------------------------------
     1   6 C    3.894 --    28 H    0.987    26 H    0.980    27 H    0.980
                             2 O    0.920
     2   8 O    2.168 --     3 C    1.060     1 C    0.920     4 O    0.113
     3   6 C    3.850 --     4 O    1.584     5 C    1.099     2 O    1.060
     4   8 O    1.855 --     3 C    1.584     2 O    0.113
     5   6 C    3.895 --    24 C    1.260     6 N    1.165     3 C    1.099
                            25 O    0.124
     6   7 N    3.036 --     7 C    1.628     5 C    1.165
     7   6 C    3.925 --     6 N    1.628    21 N    1.089     8 C    0.978
     8   6 C    3.893 --    10 C    0.989     9 C    0.978     7 C    0.978
                            11 N    0.875
     9   6 C    3.981 --    30 H    0.984    31 H    0.982    29 H    0.981
                             8 C    0.978
    10   6 C    3.983 --     8 C    0.989    32 H    0.984    33 H    0.984
                            34 H    0.979
    11   7 N    3.471 --    12 C    1.453     8 C    0.875    35 H    0.874
                            13 O    0.108
    12   6 C    3.879 --    11 N    1.453    13 O    1.188    15 C    1.090
    13   8 O    2.270 --    12 C    1.188    14 C    0.864    11 N    0.108
    14   6 C    3.831 --    36 H    0.980    38 H    0.974    37 H    0.974
                            13 O    0.864
    15   6 C    3.881 --    16 N    1.542    12 C    1.090    20 O    1.046
    16   7 N    3.014 --    15 C    1.542    17 N    1.248
    17   7 N    2.986 --    18 C    1.553    16 N    1.248
    18   6 C    3.847 --    17 N    1.553    20 O    1.086    19 C    1.039
    19   6 C    3.979 --    18 C    1.039    40 H    0.980    39 H    0.955
                            41 H    0.955
    20   8 O    2.328 --    18 C    1.086    15 C    1.046
    21   7 N    3.411 --    22 C    1.142     7 C    1.089    42 H    0.896
                            23 O    0.133
    22   6 C    3.871 --    23 O    1.599    21 N    1.142    24 C    0.962
    23   8 O    1.875 --    22 C    1.599    21 N    0.133
    24   6 C    3.937 --    25 O    1.537     5 C    1.260    22 C    0.962
    25   8 O    1.832 --    24 C    1.537     5 C    0.124
    26   1 H    1.013 --     1 C    0.980
    27   1 H    1.013 --     1 C    0.980
    28   1 H    1.015 --     1 C    0.987
    29   1 H    1.003 --     9 C    0.981
    30   1 H    0.999 --     9 C    0.984
    31   1 H    1.000 --     9 C    0.982
    32   1 H    1.004 --    10 C    0.984
    33   1 H    1.004 --    10 C    0.984
    34   1 H    1.012 --    10 C    0.979
    35   1 H    0.925 --    11 N    0.874
    36   1 H    1.003 --    14 C    0.980
    37   1 H    1.008 --    14 C    0.974
    38   1 H    1.009 --    14 C    0.974
    39   1 H    0.992 --    19 C    0.955
    40   1 H    0.995 --    19 C    0.980
    41   1 H    0.992 --    19 C    0.955
    42   1 H    0.940 --    21 N    0.896
 ---------------------------------------------------------------------------

           -------------------------------------------------
          | TOTAL ENERGY              -82.971496850044 Eh   |
          | GRADIENT NORM               0.000409697383 Eh/α |
          | HOMO-LUMO GAP               0.215151226930 eV   |
           -------------------------------------------------

 * finished run on 2023/06/21 at 17:31:07.301
