   * xtb version 6.5.1 (579679a) compiled by 'ehlert@majestix' on 2022-07-11
          program call               : /lustre/hpc/kemi/ree/PhD/git/ReactivityQM/dep/xtb-6.5.1/bin/xtb --gfn 1 /lustre/hpc/kemi/ree/PhD/git/ReactivityQM/calculations/R02oxygendeprot/reac01prodN19/conf04/R02oxygendeprot_reac01prodN19_conf04_gfn1.xyz --opt --vfukui --chrg 0 --uhf 0 --alpb DMSO

   ID    Z sym.   atoms
    1    6 C      1, 3, 5, 7-10, 12, 14, 17, 18, 21, 23, 24
    2    8 O      2, 4, 13, 19, 22, 25
    3    7 N      6, 11, 15, 16, 20
    4    1 H      26-42

      * Solvation model:               ALPB
        Solvent                        DMSO
        Solvent mass                       7.8130E+01 g/mol
          :  Hamiltonian                  GFN1-xTB          :
 * total energy  :   -82.9805309 Eh     change       -0.5587708E-10 Eh
 * total energy  :   -82.9935123 Eh     change       -0.1298130E-01 Eh
 * total energy  :   -82.9990772 Eh     change       -0.5564902E-02 Eh
 * total energy  :   -83.0000778 Eh     change       -0.1000612E-02 Eh
 * total energy  :   -83.0008654 Eh     change       -0.7876606E-03 Eh
 * total energy  :   -83.0013123 Eh     change       -0.4468592E-03 Eh
 * total energy  :   -83.0017500 Eh     change       -0.4377148E-03 Eh
 * total energy  :   -83.0020680 Eh     change       -0.3180374E-03 Eh
 * total energy  :   -83.0022405 Eh     change       -0.1724784E-03 Eh
 * total energy  :   -83.0023341 Eh     change       -0.9354564E-04 Eh
 * total energy  :   -83.0033131 Eh     change       -0.2010092E-04 Eh
 * total energy  :   -83.0033288 Eh     change       -0.1564373E-04 Eh
 * total energy  :   -83.0033443 Eh     change       -0.1551918E-04 Eh
 * total energy  :   -83.0033622 Eh     change       -0.1792024E-04 Eh
 * total energy  :   -83.0033822 Eh     change       -0.2003489E-04 Eh
 * total energy  :   -83.0034011 Eh     change       -0.1885689E-04 Eh
 * total energy  :   -83.0034141 Eh     change       -0.1301908E-04 Eh
 * total energy  :   -83.0034209 Eh     change       -0.6819003E-05 Eh
 * total energy  :   -83.0034245 Eh     change       -0.3541738E-05 Eh
   *** GEOMETRY OPTIMIZATION CONVERGED AFTER 38 ITERATIONS ***

 final structure:
================
42
 xtb: 6.5.1 (579679a)
C           -5.17031436444966        3.90570103996087        0.91723691985060
O           -4.46205767293993        2.66931388082076        0.99021629281392
C           -3.40846722619158        2.54342507795606        0.17452303386190
O           -3.07053920439937        3.42738219106975       -0.58966208212915
C           -2.70353837554078        1.24798011582039        0.29031647240865
N           -1.63166906056550        1.15384474265775       -0.53472375917596
C           -0.89356726283195        0.09433531518818       -0.56222966034064
C            0.27331307040527       -0.03325541296621       -1.52082755022378
C            0.01866197540506       -1.16866525881803       -2.52217221411203
C            0.46196002761043        1.29396010985192       -2.25602609049529
N            1.52381561339989       -0.29573838554402       -0.78164797905444
C            1.84512048995271       -1.43111940037738       -0.14119715803300
O            1.09063475216056       -2.38191930613319        0.05767679672679
C            3.23590938658187       -1.43939948477440        0.36095936864343
N            3.83064728980834       -2.37109274318065        1.04021048234684
N            5.09845213835832       -1.93737158362160        1.27594238979026
C            5.20294006086908       -0.76634847856581        0.72646794363743
C            6.38361102905495        0.12331589039232        0.70212908906927
O            4.05852784455326       -0.39250586249888        0.13144763812329
N           -1.18662409677915       -0.97640129639362        0.24761302957608
C           -2.20260608659214       -0.97227758033728        1.09434241197004
O           -2.43035583228197       -2.00634731406789        1.87894516574758
C           -1.59147920723043       -3.16188774704163        1.84712289394729
C           -3.10078142199529        0.19921680319199        1.17993955809689
O           -4.05945172856958        0.20002296977308        1.95926871882495
H           -5.56997978507817        4.05520956551835       -0.08926480756266
H           -4.50626922017626        4.73809250246996        1.16506181896953
H           -5.98338335573073        3.84660977857404        1.63889803816130
H           -0.86942801329733       -0.93898424797642       -3.10900962520391
H           -0.13411465846824       -2.11570699228265       -2.00898600179930
H            0.87276806810679       -1.26315629793351       -3.19008600257768
H            0.65074232977826        2.09552918597855       -1.54334088793474
H            1.29913121584526        1.22127586996601       -2.94666680224551
H           -0.44172491625212        1.53189674067825       -2.81546649776741
H            2.25590768289513        0.38783522311554       -0.89931032908035
H            7.19895372624697       -0.33306412092501        1.25838482236473
H            6.69546721284826        0.29732917452614       -0.32771718082758
H            6.13100521004598        1.08733575928908        1.14340426320529
H           -0.53505697818542       -1.76659262886496        0.20797255578891
H           -1.62786507039149       -3.63202030924314        0.86189766755674
H           -0.55986409609646       -2.89507958155621        2.08811214625866
H           -1.98843048986823       -3.84068090369542        2.60024711081530

          :  Hamiltonian                  GFN1-xTB          :
         :: total energy             -83.003424469542 Eh    ::
         :: gradient norm              0.000295062805 Eh/a0 ::
         :: HOMO-LUMO gap              2.315069112514 eV    ::
         :: SCC energy               -83.778650114993 Eh    ::
         :: -> Gsolv                  -0.065430090206 Eh    ::
         :: repulsion energy           0.800863778921 Eh    ::

    * Orbital Energies and Occupations

         #    Occupation            Energy/Eh            Energy/eV
      -------------------------------------------------------------
         1        2.0000           -0.8697287             -23.6665
       ...           ...                  ...                  ...
        55        2.0000           -0.5061538             -13.7731
        56        2.0000           -0.5042846             -13.7223
        57        2.0000           -0.4898254             -13.3288
        58        2.0000           -0.4858045             -13.2194
        59        2.0000           -0.4843547             -13.1800
        60        2.0000           -0.4748980             -12.9226
        61        2.0000           -0.4710745             -12.8186
        62        2.0000           -0.4668324             -12.7032
        63        2.0000           -0.4632411             -12.6054
        64        2.0000           -0.4568729             -12.4321
        65        2.0000           -0.4534198             -12.3382
        66        2.0000           -0.4205300             -11.4432
        67        2.0000           -0.4096205             -11.1463 (HOMO)
        68                         -0.3245433              -8.8313 (LUMO)
        69                         -0.3195705              -8.6960
        70                         -0.2783542              -7.5744
        71                         -0.2602325              -7.0813
        72                         -0.2372600              -6.4562
        73                         -0.2073561              -5.6424
        74                         -0.1495403              -4.0692
        75                         -0.1461863              -3.9779
        76                         -0.1431636              -3.8957
        77                         -0.1320358              -3.5929
        78                         -0.1298548              -3.5335
       ...                                ...                  ...
       134                          0.7076752              19.2568
      -------------------------------------------------------------
                  HL-Gap            0.0850772 Eh            2.3151 eV

Wiberg/Mayer (AO) data.
largest (>0.10) Wiberg bond orders for each atom

     #   Z sym  total        # sym  WBO       # sym  WBO       # sym  WBO
 ---------------------------------------------------------------------------
     1   6 C    3.882 --    28 H    0.986    27 H    0.980    26 H    0.980
                             2 O    0.907
     2   8 O    2.194 --     3 C    1.096     1 C    0.907     4 O    0.126
     3   6 C    3.852 --     4 O    1.624     2 O    1.096     5 C    1.040
     4   8 O    1.893 --     3 C    1.624     2 O    0.126
     5   6 C    3.944 --     6 N    1.270    24 C    1.217     3 C    1.040
                            25 O    0.130
     6   7 N    3.045 --     7 C    1.555     5 C    1.270
     7   6 C    3.917 --     6 N    1.555    20 N    1.118     8 C    0.976
     8   6 C    3.931 --    10 C    1.002     9 C    0.982     7 C    0.976
                            11 N    0.910
     9   6 C    3.986 --    29 H    0.984    31 H    0.983     8 C    0.982
                            30 H    0.980
    10   6 C    3.990 --     8 C    1.002    33 H    0.985    32 H    0.983
                            34 H    0.982
    11   7 N    3.363 --    12 C    1.291     8 C    0.910    35 H    0.889
                            13 O    0.172
    12   6 C    3.914 --    13 O    1.527    11 N    1.291    14 C    1.005
    13   8 O    1.920 --    12 C    1.527    11 N    0.172
    14   6 C    3.875 --    15 N    1.616    19 O    1.046    12 C    1.005
    15   7 N    3.003 --    14 C    1.616    16 N    1.205
    16   7 N    2.982 --    17 C    1.604    15 N    1.205
    17   6 C    3.866 --    16 N    1.604    19 O    1.073    18 C    1.033
    18   6 C    3.985 --    17 C    1.033    36 H    0.982    38 H    0.963
                            37 H    0.961
    19   8 O    2.318 --    17 C    1.073    14 C    1.046
    20   7 N    3.524 --    21 C    1.350     7 C    1.118    39 H    0.817
    21   6 C    3.861 --    20 N    1.350    22 O    1.148    24 C    1.044
    22   8 O    2.233 --    21 C    1.148    23 C    0.890
    23   6 C    3.864 --    42 H    0.981    40 H    0.977    41 H    0.975
                            22 O    0.890
    24   6 C    3.949 --    25 O    1.533     5 C    1.217    21 C    1.044
    25   8 O    1.848 --    24 C    1.533     5 C    0.130
    26   1 H    1.009 --     1 C    0.980
    27   1 H    1.009 --     1 C    0.980
    28   1 H    1.012 --     1 C    0.986
    29   1 H    1.000 --     9 C    0.984
    30   1 H    1.006 --     9 C    0.980
    31   1 H    0.999 --     9 C    0.983
    32   1 H    1.003 --    10 C    0.983
    33   1 H    0.998 --    10 C    0.985
    34   1 H    1.007 --    10 C    0.982
    35   1 H    0.934 --    11 N    0.889
    36   1 H    0.998 --    18 C    0.982
    37   1 H    0.996 --    18 C    0.961
    38   1 H    0.996 --    18 C    0.963
    39   1 H    0.924 --    20 N    0.817
    40   1 H    1.000 --    23 C    0.977
    41   1 H    1.006 --    23 C    0.975
    42   1 H    1.008 --    23 C    0.981
 ---------------------------------------------------------------------------

           -------------------------------------------------
          | TOTAL ENERGY              -83.003424469542 Eh   |
          | GRADIENT NORM               0.000295062805 Eh/α |
          | HOMO-LUMO GAP               2.315069112514 eV   |
           -------------------------------------------------

 * finished run on 2023/06/21 at 17:40:04.264
