   * xtb version 6.5.1 (579679a) compiled by 'ehlert@majestix' on 2022-07-11
          program call               : /lustre/hpc/kemi/ree/PhD/git/ReactivityQM/dep/xtb-6.5.1/bin/xtb --gfn 1 /lustre/hpc/kemi/ree/PhD/git/ReactivityQM/calculations/R02/reac01/conf10/R02_reac01_conf10_gfn1.xyz --opt --vfukui --chrg 0 --uhf 0 --alpb DMSO

   ID    Z sym.   atoms
    1    6 C      1, 3, 5, 7-10, 12, 14, 17, 18, 21, 23
    2    8 O      2, 4, 13, 19, 22, 24
    3    7 N      6, 11, 15, 16, 20
    4    1 H      25-39

      * Solvation model:               ALPB
        Solvent                        DMSO
        Solvent mass                       7.8130E+01 g/mol
          :  Hamiltonian                  GFN1-xTB          :
 * total energy  :   -79.8134005 Eh     change       -0.1060130E-10 Eh
 * total energy  :   -79.8238671 Eh     change       -0.1046658E-01 Eh
 * total energy  :   -79.8278281 Eh     change       -0.3960957E-02 Eh
 * total energy  :   -79.8285027 Eh     change       -0.6746628E-03 Eh
 * total energy  :   -79.8289671 Eh     change       -0.4644046E-03 Eh
 * total energy  :   -79.8291881 Eh     change       -0.2209980E-03 Eh
 * total energy  :   -79.8293668 Eh     change       -0.1786470E-03 Eh
 * total energy  :   -79.8295015 Eh     change       -0.1347737E-03 Eh
 * total energy  :   -79.8295996 Eh     change       -0.9809330E-04 Eh
 * total energy  :   -79.8296731 Eh     change       -0.7344086E-04 Eh
 * total energy  :   -79.8302434 Eh     change       -0.2014282E-04 Eh
 * total energy  :   -79.8302533 Eh     change       -0.9832419E-05 Eh
 * total energy  :   -79.8302680 Eh     change       -0.1468740E-04 Eh
 * total energy  :   -79.8302750 Eh     change       -0.7092639E-05 Eh
 * total energy  :   -79.8302819 Eh     change       -0.6839348E-05 Eh
 * total energy  :   -79.8302885 Eh     change       -0.6606180E-05 Eh
 * total energy  :   -79.8302938 Eh     change       -0.5276941E-05 Eh
 * total energy  :   -79.8302988 Eh     change       -0.5026282E-05 Eh
 * total energy  :   -79.8303023 Eh     change       -0.3545544E-05 Eh
   *** GEOMETRY OPTIMIZATION CONVERGED AFTER 33 ITERATIONS ***

 final structure:
================
39
 xtb: 6.5.1 (579679a)
C            5.75246241911827        2.73355201315878       -0.68183163828181
O            4.63769944141081        2.18928940273475        0.04127110670255
C            3.78489341140746        1.43833243993806       -0.66967982549179
O            3.92953005959623        1.22196796615000       -1.84849380826276
C            2.65699711093007        0.90075856048988        0.14216642804545
N            1.81571137741080        0.09462963594987       -0.58778018313102
C            0.79495249088625       -0.44449346500324       -0.01905582429196
C           -0.09978855992606       -1.38263352597821       -0.79956558300861
C            0.09710776841520       -1.17222840848568       -2.30375736160740
C            0.25546634411729       -2.81985536173102       -0.38618700585137
N           -1.48744087139087       -1.08215249254665       -0.42883095238837
C           -2.54210770580535       -1.78011815292649       -0.90525519086883
O           -2.47552506974421       -2.77004506187451       -1.61339972836240
C           -3.84265448742141       -1.22208539278203       -0.45657374094417
N           -5.02958559007417       -1.66090326318042       -0.73799813572784
N           -5.91354282660061       -0.83713857804652       -0.10760577963092
C           -5.21175615588090        0.05416434282485        0.51983374628462
C           -5.70313861618238        1.17012219341033        1.35674811666237
O           -3.89293562367576       -0.13147317942281        0.33946952417527
N            0.51873223822360       -0.25660288667637        1.30430689037612
C            1.27805485625152        0.53246913700742        2.14669586972230
O            0.98061220137738        0.66531935605337        3.31966466033145
C            2.43116772301359        1.14659411533018        1.47299672907480
O            3.18053148701013        1.91725894471732        2.26709354622445
H            6.35272725469327        3.28176764358478        0.03998905603959
H            6.33515489952649        1.92499244082537       -1.12829870607223
H            5.39302965004368        3.40271328691300       -1.46642375783208
H           -0.51679660124257       -1.87694589294606       -2.86153218794121
H           -0.18271892212167       -0.15581459114176       -2.57593177480556
H            1.14494231370414       -1.32910280983277       -2.55548512079752
H           -0.32599805818138       -3.53488730832484       -0.96471547077784
H            0.04769988605465       -2.96319718610160        0.67234449169703
H            1.31484739632097       -2.99387262243122       -0.56745064492597
H           -1.67250661252717       -0.21904088942739        0.05422016826564
H           -5.32916985734828        1.06263460497950        2.37517856853671
H           -6.79067051235705        1.16998132674695        1.36564926641908
H           -5.33913560919596        2.11899378394749        0.96334386029484
H           -0.28333823966816       -0.70551538429722        1.72046404953276
H            3.93648758983887        2.31256725838926        1.79858134261457

          :  Hamiltonian                  GFN1-xTB          :
         :: total energy             -79.830302337617 Eh    ::
         :: gradient norm              0.000732817774 Eh/a0 ::
         :: HOMO-LUMO gap              2.883758599502 eV    ::
         :: SCC energy               -80.578759637099 Eh    ::
         :: -> Gsolv                  -0.061467111027 Eh    ::
         :: repulsion energy           0.771811092630 Eh    ::

    * Orbital Energies and Occupations

         #    Occupation            Energy/Eh            Energy/eV
      -------------------------------------------------------------
         1        2.0000           -0.8659513             -23.5637
       ...           ...                  ...                  ...
        52        2.0000           -0.5054635             -13.7544
        53        2.0000           -0.5015171             -13.6470
        54        2.0000           -0.5001393             -13.6095
        55        2.0000           -0.4883596             -13.2889
        56        2.0000           -0.4869851             -13.2515
        57        2.0000           -0.4804612             -13.0740
        58        2.0000           -0.4677541             -12.7282
        59        2.0000           -0.4616485             -12.5621
        60        2.0000           -0.4597433             -12.5103
        61        2.0000           -0.4520631             -12.3013
        62        2.0000           -0.4517878             -12.2938
        63        2.0000           -0.4483621             -12.2006
        64        2.0000           -0.4316595             -11.7461 (HOMO)
        65                         -0.3256833              -8.8623 (LUMO)
        66                         -0.3117967              -8.4844
        67                         -0.2843284              -7.7370
        68                         -0.2571048              -6.9962
        69                         -0.2423335              -6.5942
        70                         -0.1995816              -5.4309
        71                         -0.1604826              -4.3670
        72                         -0.1421762              -3.8688
        73                         -0.1374172              -3.7393
        74                         -0.1283913              -3.4937
        75                         -0.1236963              -3.3659
       ...                                ...                  ...
       126                          0.7337756              19.9671
      -------------------------------------------------------------
                  HL-Gap            0.1059762 Eh            2.8838 eV

Wiberg/Mayer (AO) data.
largest (>0.10) Wiberg bond orders for each atom

     #   Z sym  total        # sym  WBO       # sym  WBO       # sym  WBO
 ---------------------------------------------------------------------------
     1   6 C    3.860 --    25 H    0.986    26 H    0.980    27 H    0.980
                             2 O    0.884
     2   8 O    2.204 --     3 C    1.088     1 C    0.884     4 O    0.130
     3   6 C    3.847 --     4 O    1.672     2 O    1.088     5 C    1.005
     4   8 O    1.933 --     3 C    1.672     2 O    0.130
     5   6 C    3.963 --    23 C    1.503     6 N    1.171     3 C    1.005
     6   7 N    3.028 --     7 C    1.598     5 C    1.171
     7   6 C    3.931 --     6 N    1.598    20 N    1.165     8 C    0.981
     8   6 C    3.933 --     9 C    0.991     7 C    0.981    10 C    0.975
                            11 N    0.922
     9   6 C    3.988 --     8 C    0.991    29 H    0.985    30 H    0.983
                            28 H    0.982
    10   6 C    3.987 --    33 H    0.985    32 H    0.985    31 H    0.977
                             8 C    0.975
    11   7 N    3.338 --    12 C    1.248     8 C    0.922    34 H    0.893
                            13 O    0.174
    12   6 C    3.916 --    13 O    1.591    11 N    1.248    14 C    0.993
    13   8 O    1.907 --    12 C    1.591    11 N    0.174
    14   6 C    3.872 --    15 N    1.623    19 O    1.046    12 C    0.993
    15   7 N    3.000 --    14 C    1.623    16 N    1.198
    16   7 N    2.982 --    17 C    1.612    15 N    1.198
    17   6 C    3.868 --    16 N    1.612    19 O    1.071    18 C    1.032
    18   6 C    3.986 --    17 C    1.032    36 H    0.982    37 H    0.963
                            35 H    0.962
    19   8 O    2.315 --    17 C    1.071    14 C    1.046
    20   7 N    3.459 --     7 C    1.165    21 C    1.121    38 H    0.883
                            22 O    0.135
    21   6 C    3.908 --    22 O    1.605    20 N    1.121    23 C    1.053
    22   8 O    1.901 --    21 C    1.605    20 N    0.135
    23   6 C    3.919 --     5 C    1.503    24 O    1.112    21 C    1.053
    24   8 O    2.092 --    23 C    1.112    39 H    0.798
    25   1 H    1.009 --     1 C    0.986
    26   1 H    1.006 --     1 C    0.980
    27   1 H    1.006 --     1 C    0.980
    28   1 H    1.007 --     9 C    0.982
    29   1 H    1.004 --     9 C    0.985
    30   1 H    1.010 --     9 C    0.983
    31   1 H    1.009 --    10 C    0.977
    32   1 H    1.001 --    10 C    0.985
    33   1 H    1.001 --    10 C    0.985
    34   1 H    0.937 --    11 N    0.893
    35   1 H    0.996 --    18 C    0.962
    36   1 H    0.998 --    18 C    0.982
    37   1 H    0.997 --    18 C    0.963
    38   1 H    0.928 --    20 N    0.883
    39   1 H    0.851 --    24 O    0.798
 ---------------------------------------------------------------------------

           -------------------------------------------------
          | TOTAL ENERGY              -79.830302337617 Eh   |
          | GRADIENT NORM               0.000732817774 Eh/α |
          | HOMO-LUMO GAP               2.883758599502 eV   |
           -------------------------------------------------

 * finished run on 2023/06/20 at 14:52:02.136
