   * xtb version 6.5.1 (579679a) compiled by 'ehlert@majestix' on 2022-07-11
          program call               : /lustre/hpc/kemi/ree/PhD/git/ReactivityQM/dep/xtb-6.5.1/bin/xtb --gfn 1 /lustre/hpc/kemi/ree/PhD/git/ReactivityQM/calculations/RaltegravirCLI/reac02prodN01/conf10/RaltegravirCLI_reac02prodN01_conf10_gfn1.xyz --opt --vfukui --chrg 1 --uhf 0 --alpb DMSO

   ID    Z sym.   atoms
    1    6 C      1, 3, 5-9, 11-13, 15-18, 21, 22, 24
    2    8 O      2, 23, 25
    3    7 N      4, 14, 19, 20
    4    9 F      10
    5    1 H      26-47

      * Solvation model:               ALPB
        Solvent                        DMSO
        Solvent mass                       7.8130E+01 g/mol
          :  Hamiltonian                  GFN1-xTB          :
 * total energy  :   -79.5047084 Eh     change       -0.1887202E-10 Eh
 * total energy  :   -79.5239107 Eh     change       -0.1920235E-01 Eh
 * total energy  :   -79.5295621 Eh     change       -0.5651389E-02 Eh
 * total energy  :   -79.5309556 Eh     change       -0.1393524E-02 Eh
 * total energy  :   -79.5319669 Eh     change       -0.1011224E-02 Eh
 * total energy  :   -79.5323736 Eh     change       -0.4066892E-03 Eh
 * total energy  :   -79.5326900 Eh     change       -0.3164051E-03 Eh
 * total energy  :   -79.5329144 Eh     change       -0.2244721E-03 Eh
 * total energy  :   -79.5330860 Eh     change       -0.1715666E-03 Eh
 * total energy  :   -79.5332389 Eh     change       -0.1528685E-03 Eh
 * total energy  :   -79.5335361 Eh     change       -0.1310830E-03 Eh
 * total energy  :   -79.5336027 Eh     change       -0.6666647E-04 Eh
 * total energy  :   -79.5336876 Eh     change       -0.8488225E-04 Eh
 * total energy  :   -79.5337209 Eh     change       -0.3331744E-04 Eh
 * total energy  :   -79.5337423 Eh     change       -0.2133762E-04 Eh
 * total energy  :   -79.5337523 Eh     change       -0.9974417E-05 Eh
 * total energy  :   -79.5337587 Eh     change       -0.6454925E-05 Eh
 * total energy  :   -79.5337655 Eh     change       -0.6840940E-05 Eh
 * total energy  :   -79.5337696 Eh     change       -0.4030091E-05 Eh
   *** GEOMETRY OPTIMIZATION CONVERGED AFTER 21 ITERATIONS ***

 final structure:
================
47
 xtb: 6.5.1 (579679a)
C            0.86161874680051       -0.96473004034748        2.47210805356318
O            1.65128064438911       -0.20692417310375        1.54617613513398
C            1.18020857467483        0.70338807465617        0.73856631931992
N            2.07132495061124        1.42244612542400        0.10407707090208
C            3.51931040223262        1.24982246589261        0.24096034535157
C            4.05950515984074        0.42393820506096       -0.90702015083992
C            3.62703389023856       -0.88890057118578       -1.08653869972868
C            4.11894115810758       -1.65382405055949       -2.13335325763465
C            5.04812491384002       -1.08202580518946       -2.98522212428421
F            5.52920997241103       -1.81605222718595       -3.99595201907908
C            5.49756553094380        0.21738838803580       -2.83398790533987
C            4.99141137153913        0.97180783102890       -1.78430340233097
C           -0.24287583974404        0.95199530609342        0.50529320008337
N           -1.11728898428379       -0.06525511463930        0.77454342756941
C           -2.39339800290870        0.05950250552607        0.55354505870335
C           -3.23893543547360       -1.18479154316834        0.78769316512234
C           -3.44801313527196       -1.88033868532915       -0.56769558530425
C           -2.50615556941080       -2.14841985344870        1.73418247412071
N           -4.52824084699757       -0.82824272860284        1.36461561982069
N           -2.93660678822439        1.21888496516120        0.06300615917013
C           -4.37312058480994        1.40526443864555       -0.18015154388293
C           -2.14941334791051        2.31971196570075       -0.20864721994102
O           -2.58905799953582        3.38482928545530       -0.62082932206485
C           -0.72131373392805        2.13388092450644        0.00547282453757
O            0.04856355115746        3.18436618559334       -0.29438088696040
H            1.56154203257296       -1.33141555578472        3.22318323997156
H            0.39380781951799       -1.80073984808268        1.95261620361439
H            0.09799366361552       -0.33807465412027        2.93194634367265
H            1.76059658665553        2.12153363429332       -0.55729486992999
H            3.71637961354085        0.76505818286130        1.19929009952126
H            3.96216271008014        2.24779185347309        0.24291232712782
H            2.90169315361981       -1.31617885312726       -0.40608794041499
H            3.78921303552818       -2.67313093783274       -2.28605192793068
H            6.22316050865527        0.63064540484520       -3.52257855670229
H            5.32792960124262        1.99235506909763       -1.64757922728799
H           -2.48195235488021       -2.11424561494352       -1.01304265021701
H           -4.00079366325542       -2.80619679857154       -0.41598590612737
H           -4.00719855921051       -1.24883634503565       -1.25544308049051
H           -2.25773098903021       -1.64478963358274        2.66663411342880
H           -3.15434338522262       -2.99527337219152        1.95356443140120
H           -1.59149194668242       -2.51636595086522        1.27271062621738
H           -4.39256140823800       -0.54488985075888        2.32610593456753
H           -5.12283141498595       -1.64647546014497        1.36763951044547
H           -4.88038176379766        1.57296252908046        0.76755158931858
H           -4.78785062441748        0.52608944413476       -0.66048994513918
H           -4.49543874139574        2.27412035974242       -0.82610241032386
H           -0.52158147220024        3.91833552349748       -0.60565464072479

          :  Hamiltonian                  GFN1-xTB          :
         :: total energy             -79.533769576232 Eh    ::
         :: gradient norm              0.000803253737 Eh/a0 ::
         :: HOMO-LUMO gap              1.712597371140 eV    ::
         :: SCC energy               -80.428964085579 Eh    ::
         :: -> Gsolv                  -0.098140390424 Eh    ::
         :: repulsion energy           0.925871115491 Eh    ::

    * Orbital Energies and Occupations

         #    Occupation            Energy/Eh            Energy/eV
      -------------------------------------------------------------
         1        2.0000           -0.8851966             -24.0874
       ...           ...                  ...                  ...
        55        2.0000           -0.5197224             -14.1424
        56        2.0000           -0.5114029             -13.9160
        57        2.0000           -0.5073666             -13.8061
        58        2.0000           -0.5044204             -13.7260
        59        2.0000           -0.4936650             -13.4333
        60        2.0000           -0.4877741             -13.2730
        61        2.0000           -0.4848518             -13.1935
        62        2.0000           -0.4793807             -13.0446
        63        2.0000           -0.4675216             -12.7219
        64        2.0000           -0.4660291             -12.6813
        65        2.0000           -0.4529962             -12.3267
        66        2.0000           -0.4483039             -12.1990
        67        2.0000           -0.4228817             -11.5072 (HOMO)
        68                         -0.3599449              -9.7946 (LUMO)
        69                         -0.3038581              -8.2684
        70                         -0.2878716              -7.8334
        71                         -0.2845838              -7.7439
        72                         -0.2792917              -7.5999
        73                         -0.1872078              -5.0942
        74                         -0.1614505              -4.3933
        75                         -0.1600807              -4.3560
        76                         -0.1436104              -3.9078
        77                         -0.1397025              -3.8015
        78                         -0.1318339              -3.5874
       ...                                ...                  ...
       144                          0.6805635              18.5191
      -------------------------------------------------------------
                  HL-Gap            0.0629368 Eh            1.7126 eV

Wiberg/Mayer (AO) data.
largest (>0.10) Wiberg bond orders for each atom

     #   Z sym  total        # sym  WBO       # sym  WBO       # sym  WBO
 ---------------------------------------------------------------------------
     1   6 C    3.835 --    26 H    0.979    28 H    0.978    27 H    0.971
                             2 O    0.865
     2   8 O    2.269 --     3 C    1.188     1 C    0.865     4 N    0.105
     3   6 C    3.873 --     4 N    1.464     2 O    1.188    13 C    1.070
     4   7 N    3.487 --     3 C    1.464     5 C    0.916    29 H    0.867
                             2 O    0.105
     5   6 C    3.915 --     6 C    0.987    31 H    0.970    30 H    0.964
                             4 N    0.916
     6   6 C    3.984 --    12 C    1.422     7 C    1.414     5 C    0.987
     7   6 C    3.994 --     8 C    1.449     6 C    1.414    32 H    0.971
                            11 C    0.111
     8   6 C    3.991 --     7 C    1.449     9 C    1.395    33 H    0.968
                            12 C    0.109
     9   6 C    3.864 --    11 C    1.401     8 C    1.395    10 F    0.935
    10   9 F    1.066 --     9 C    0.935
    11   6 C    3.990 --    12 C    1.441     9 C    1.401    34 H    0.968
                             7 C    0.111
    12   6 C    3.993 --    11 C    1.441     6 C    1.422    35 H    0.969
                             8 C    0.109
    13   6 C    3.963 --    24 C    1.465    14 N    1.182     3 C    1.070
    14   7 N    3.030 --    15 C    1.544    13 C    1.182
    15   6 C    3.913 --    14 N    1.544    20 N    1.184    16 C    0.977
    16   6 C    3.965 --    18 C    0.988    19 N    0.988    15 C    0.977
                            17 C    0.976
    17   6 C    3.992 --    36 H    0.985    37 H    0.981    38 H    0.979
                            16 C    0.976
    18   6 C    3.994 --    16 C    0.988    39 H    0.984    40 H    0.983
                            41 H    0.980
    19   7 N    2.977 --    16 C    0.988    42 H    0.939    43 H    0.935
    20   7 N    3.528 --    15 C    1.184    22 C    1.142    21 C    0.918
                            23 O    0.138
    21   6 C    3.908 --    45 H    0.976    46 H    0.975    44 H    0.973
                            20 N    0.918
    22   6 C    3.920 --    23 O    1.567    20 N    1.142    24 C    1.068
    23   8 O    1.918 --    22 C    1.567    20 N    0.138
    24   6 C    3.917 --    13 C    1.465    25 O    1.108    22 C    1.068
    25   8 O    2.095 --    24 C    1.108    47 H    0.783
    26   1 H    1.005 --     1 C    0.979
    27   1 H    1.019 --     1 C    0.971
    28   1 H    1.009 --     1 C    0.978
    29   1 H    0.926 --     4 N    0.867
    30   1 H    1.002 --     5 C    0.964
    31   1 H    0.997 --     5 C    0.970
    32   1 H    1.002 --     7 C    0.971
    33   1 H    0.996 --     8 C    0.968
    34   1 H    0.996 --    11 C    0.968
    35   1 H    0.997 --    12 C    0.969
    36   1 H    1.002 --    17 C    0.985
    37   1 H    0.998 --    17 C    0.981
    38   1 H    1.003 --    17 C    0.979
    39   1 H    1.004 --    18 C    0.984
    40   1 H    1.001 --    18 C    0.983
    41   1 H    1.010 --    18 C    0.980
    42   1 H    0.953 --    19 N    0.939
    43   1 H    0.950 --    19 N    0.935
    44   1 H    1.015 --    21 C    0.973
    45   1 H    1.020 --    21 C    0.976
    46   1 H    1.005 --    21 C    0.975
    47   1 H    0.827 --    25 O    0.783
 ---------------------------------------------------------------------------

           -------------------------------------------------
          | TOTAL ENERGY              -79.533769576232 Eh   |
          | GRADIENT NORM               0.000803253737 Eh/α |
          | HOMO-LUMO GAP               1.712597371140 eV   |
           -------------------------------------------------

 * finished run on 2023/06/20 at 15:17:03.848
