   * xtb version 6.5.1 (579679a) compiled by 'ehlert@majestix' on 2022-07-11
          program call               : /lustre/hpc/kemi/ree/PhD/git/ReactivityQM/dep/xtb-6.5.1/bin/xtb --gfn 1 /lustre/hpc/kemi/ree/PhD/git/ReactivityQM/calculations/R03/reac01/conf03/R03_reac01_conf03_gfn1.xyz --opt --vfukui --chrg 0 --uhf 0 --alpb DMSO

   ID    Z sym.   atoms
    1    7 N      1
    2    6 C      2-6, 8, 9
    3    9 F      7
    4    1 H      10-17

      * Solvation model:               ALPB
        Solvent                        DMSO
        Solvent mass                       7.8130E+01 g/mol
          :  Hamiltonian                  GFN1-xTB          :
 * total energy  :   -27.4591718 Eh     change       -0.8334666E-11 Eh
 * total energy  :   -27.4616188 Eh     change       -0.2446954E-02 Eh
 * total energy  :   -27.4620155 Eh     change       -0.3967452E-03 Eh
 * total energy  :   -27.4620603 Eh     change       -0.4482395E-04 Eh
 * total energy  :   -27.4620949 Eh     change       -0.3458995E-04 Eh
 * total energy  :   -27.4621169 Eh     change       -0.2198380E-04 Eh
 * total energy  :   -27.4621447 Eh     change       -0.2783266E-04 Eh
 * total energy  :   -27.4621757 Eh     change       -0.3100051E-04 Eh
 * total energy  :   -27.4622052 Eh     change       -0.2948891E-04 Eh
 * total energy  :   -27.4622286 Eh     change       -0.2340312E-04 Eh
 * total energy  :   -27.4632338 Eh     change       -0.2442006E-04 Eh
 * total energy  :   -27.4632515 Eh     change       -0.1772530E-04 Eh
 * total energy  :   -27.4632672 Eh     change       -0.1560804E-04 Eh
 * total energy  :   -27.4632882 Eh     change       -0.2103258E-04 Eh
 * total energy  :   -27.4633124 Eh     change       -0.2417280E-04 Eh
 * total energy  :   -27.4633256 Eh     change       -0.1320004E-04 Eh
 * total energy  :   -27.4633377 Eh     change       -0.1216833E-04 Eh
 * total energy  :   -27.4633493 Eh     change       -0.1153957E-04 Eh
 * total energy  :   -27.4633542 Eh     change       -0.4962325E-05 Eh
   *** GEOMETRY OPTIMIZATION CONVERGED AFTER 31 ITERATIONS ***

 final structure:
================
17
 xtb: 6.5.1 (579679a)
N           -2.38440165539773       -0.67871491177425        1.05254605053292
C           -1.79701410307779       -0.33469562627814       -0.24314760881970
C           -0.31970962270335       -0.05424266939390       -0.10308601112544
C            0.42999287624280       -0.72473224007136        0.86169030885799
C            1.79084741660060       -0.49051542303044        0.99413971455338
C            2.38322141905440        0.42235912898651        0.14034237533360
F            3.70282662444341        0.65796116750705        0.26123959006845
C            1.67335668341188        1.10453165936002       -0.83053263567312
C            0.31146559411287        0.85821528843379       -0.94553158147124
H           -2.46094682170687        0.16167102096222        1.61039425402038
H           -3.32078559759884       -1.02300765926673        0.89736034339620
H           -1.93246353638105       -1.19203335872476       -0.91368387837625
H           -2.30428925145694        0.52854762218115       -0.69810416411816
H           -0.06501020218491       -1.43081412162289        1.51986977997369
H            2.38154399363916       -1.00243299264510        1.74292881041126
H            2.17400949702446        1.81268586908399       -1.47799591264084
H           -0.26264331402219        1.38521724629258       -1.69909643492300

          :  Hamiltonian                  GFN1-xTB          :
         :: total energy             -27.463354229376 Eh    ::
         :: gradient norm              0.000379568728 Eh/a0 ::
         :: HOMO-LUMO gap              3.682932607023 eV    ::
         :: SCC energy               -27.819281561944 Eh    ::
         :: -> Gsolv                  -0.016966507883 Eh    ::
         :: repulsion energy           0.363527554773 Eh    ::

    * Orbital Energies and Occupations

         #    Occupation            Energy/Eh            Energy/eV
      -------------------------------------------------------------
         1        2.0000           -0.8591518             -23.3787
       ...           ...                  ...                  ...
        12        2.0000           -0.5630461             -15.3213
        13        2.0000           -0.5474012             -14.8955
        14        2.0000           -0.5377447             -14.6328
        15        2.0000           -0.5318999             -14.4737
        16        2.0000           -0.5279252             -14.3656
        17        2.0000           -0.5140455             -13.9879
        18        2.0000           -0.5083671             -13.8334
        19        2.0000           -0.4949064             -13.4671
        20        2.0000           -0.4762228             -12.9587
        21        2.0000           -0.4689306             -12.7603
        22        2.0000           -0.4458978             -12.1335
        23        2.0000           -0.4289158             -11.6714
        24        2.0000           -0.4031944             -10.9715 (HOMO)
        25                         -0.2678491              -7.2885 (LUMO)
        26                         -0.2584314              -7.0323
        27                         -0.1385870              -3.7711
        28                         -0.1138720              -3.0986
        29                         -0.0989174              -2.6917
        30                         -0.0942033              -2.5634
        31                         -0.0893499              -2.4313
        32                         -0.0807819              -2.1982
        33                         -0.0733390              -1.9957
        34                         -0.0533704              -1.4523
        35                         -0.0239517              -0.6518
       ...                                ...                  ...
        52                          0.6509324              17.7128
      -------------------------------------------------------------
                  HL-Gap            0.1353453 Eh            3.6829 eV

Wiberg/Mayer (AO) data.
largest (>0.10) Wiberg bond orders for each atom

     #   Z sym  total        # sym  WBO       # sym  WBO       # sym  WBO
 ---------------------------------------------------------------------------
     1   7 N    2.949 --     2 C    0.996    10 H    0.949    11 H    0.945
     2   6 C    3.980 --     3 C    1.006     1 N    0.996    13 H    0.972
                            12 H    0.966
     3   6 C    3.988 --     9 C    1.417     4 C    1.413     2 C    1.006
     4   6 C    3.994 --     5 C    1.446     3 C    1.413    14 H    0.970
                             8 C    0.111
     5   6 C    3.992 --     4 C    1.446     6 C    1.400    15 H    0.970
                             9 C    0.110
     6   6 C    3.859 --     8 C    1.403     5 C    1.400     7 F    0.919
     7   9 F    1.044 --     6 C    0.919
     8   6 C    3.992 --     9 C    1.442     6 C    1.403    16 H    0.970
                             4 C    0.111
     9   6 C    3.994 --     8 C    1.442     3 C    1.417    17 H    0.972
                             5 C    0.110
    10   1 H    0.962 --     1 N    0.949
    11   1 H    0.958 --     1 N    0.945
    12   1 H    1.012 --     2 C    0.966
    13   1 H    1.004 --     2 C    0.972
    14   1 H    1.016 --     4 C    0.970
    15   1 H    0.999 --     5 C    0.970
    16   1 H    0.999 --     8 C    0.970
    17   1 H    1.001 --     9 C    0.972
 ---------------------------------------------------------------------------

           -------------------------------------------------
          | TOTAL ENERGY              -27.463354229376 Eh   |
          | GRADIENT NORM               0.000379568728 Eh/α |
          | HOMO-LUMO GAP               3.682932607023 eV   |
           -------------------------------------------------

 * finished run on 2023/06/20 at 15:12:17.311
