   * xtb version 6.5.1 (579679a) compiled by 'ehlert@majestix' on 2022-07-11
          program call               : /lustre/hpc/kemi/ree/PhD/git/ReactivityQM/dep/xtb-6.5.1/bin/xtb --gfn 1 /lustre/hpc/kemi/ree/PhD/git/ReactivityQM/calculations/R02deprot/reac02prodN01/conf09/R02deprot_reac02prodN01_conf09_gfn1.xyz --opt --vfukui --chrg 1 --uhf 0 --alpb DMSO

   ID    Z sym.   atoms
    1    6 C      1, 4
    2    8 O      2, 5
    3    5 B      3
    4    1 H      6-13

      * Solvation model:               ALPB
        Solvent                        DMSO
        Solvent mass                       7.8130E+01 g/mol
          :  Hamiltonian                  GFN1-xTB          :
 * total energy  :   -19.0503060 Eh     change       -0.6835776E-10 Eh
 * total energy  :   -19.0615515 Eh     change       -0.1124545E-01 Eh
 * total energy  :   -19.0642397 Eh     change       -0.2688217E-02 Eh
 * total energy  :   -19.0648035 Eh     change       -0.5637771E-03 Eh
 * total energy  :   -19.0651706 Eh     change       -0.3671103E-03 Eh
 * total energy  :   -19.0652094 Eh     change       -0.3883632E-04 Eh
 * total energy  :   -19.0652258 Eh     change       -0.1644471E-04 Eh
 * total energy  :   -19.0652368 Eh     change       -0.1091909E-04 Eh
 * total energy  :   -19.0652453 Eh     change       -0.8502975E-05 Eh
 * total energy  :   -19.0652489 Eh     change       -0.3603586E-05 Eh
   *** GEOMETRY OPTIMIZATION CONVERGED AFTER 10 ITERATIONS ***

 final structure:
================
13
 xtb: 6.5.1 (579679a)
C            1.97644399623432       -0.43082902224814       -0.14515518107159
O            0.54897095360784       -0.66060403363981        0.04939221435667
B           -0.46654647532171        0.39743653210247        0.17821219870041
C           -1.94106097695040       -0.06775301179819        0.27812819719244
O            0.08507346988194        1.60493551590773        0.17251094629920
H            2.51887571310652       -1.16005824662758        0.45260590242075
H            2.17801336654765        0.58128870605121        0.19852123559443
H            2.20708911972894       -0.53474321874876       -1.20499216751581
H            0.28418224088416       -1.58549695181785       -0.03832457968320
H           -2.54312236168991        0.63945314108416        0.84601956108225
H           -2.03092333825236       -1.05116546555285        0.73431900240370
H           -2.37351080123171       -0.13178476027613       -0.72149414578172
H           -0.44348490654529        2.39932081556388        0.24891081600260

          :  Hamiltonian                  GFN1-xTB          :
         :: total energy             -19.065248868828 Eh    ::
         :: gradient norm              0.000587228620 Eh/a0 ::
         :: HOMO-LUMO gap              7.479556388203 eV    ::
         :: SCC energy               -19.256415582433 Eh    ::
         :: -> Gsolv                  -0.095116557239 Eh    ::
         :: repulsion energy           0.194650209870 Eh    ::

    * Orbital Energies and Occupations

         #    Occupation            Energy/Eh            Energy/eV
      -------------------------------------------------------------
         1        2.0000           -0.9097494             -24.7555
       ...           ...                  ...                  ...
         3        2.0000           -0.7654360             -20.8286
         4        2.0000           -0.7559258             -20.5698
         5        2.0000           -0.6875750             -18.7099
         6        2.0000           -0.6727485             -18.3064
         7        2.0000           -0.6637989             -18.0629
         8        2.0000           -0.6503003             -17.6956
         9        2.0000           -0.6222513             -16.9323
        10        2.0000           -0.6038991             -16.4329
        11        2.0000           -0.5665002             -15.4153
        12        2.0000           -0.5535843             -15.0638
        13        2.0000           -0.5444121             -14.8142
        14        2.0000           -0.5432513             -14.7826
        15        2.0000           -0.5239983             -14.2587 (HOMO)
        16                         -0.2491297              -6.7792 (LUMO)
        17                         -0.1892757              -5.1505
        18                         -0.1755457              -4.7768
        19                         -0.1500288              -4.0825
        20                         -0.1263245              -3.4375
        21                         -0.1081309              -2.9424
        22                         -0.0960614              -2.6140
        23                         -0.0793491              -2.1592
        24                         -0.0716946              -1.9509
        25                         -0.0512995              -1.3959
        26                          0.0896445               2.4394
       ...                                ...                  ...
        36                          0.6415465              17.4574
      -------------------------------------------------------------
                  HL-Gap            0.2748686 Eh            7.4796 eV

Wiberg/Mayer (AO) data.
largest (>0.10) Wiberg bond orders for each atom

     #   Z sym  total        # sym  WBO       # sym  WBO       # sym  WBO
 ---------------------------------------------------------------------------
     1   6 C    3.783 --     6 H    0.982     8 H    0.982     7 H    0.979
                             2 O    0.809
     2   8 O    2.394 --     1 C    0.809     3 B    0.768     9 H    0.759
     3   5 B    3.138 --     5 O    1.256     4 C    1.034     2 O    0.768
     4   6 C    3.986 --     3 B    1.034    11 H    0.972    10 H    0.969
                            12 H    0.948
     5   8 O    2.144 --     3 B    1.256    13 H    0.793
     6   1 H    0.995 --     1 C    0.982
     7   1 H    1.000 --     1 C    0.979
     8   1 H    0.995 --     1 C    0.982
     9   1 H    0.789 --     2 O    0.759
    10   1 H    0.992 --     4 C    0.969
    11   1 H    0.992 --     4 C    0.972
    12   1 H    0.991 --     4 C    0.948
    13   1 H    0.813 --     5 O    0.793
 ---------------------------------------------------------------------------

           -------------------------------------------------
          | TOTAL ENERGY              -19.065248868828 Eh   |
          | GRADIENT NORM               0.000587228620 Eh/α |
          | HOMO-LUMO GAP               7.479556388203 eV   |
           -------------------------------------------------

 * finished run on 2023/06/20 at 18:32:01.414
