   * xtb version 6.5.1 (579679a) compiled by 'ehlert@majestix' on 2022-07-11
          program call               : /lustre/hpc/kemi/ree/PhD/git/ReactivityQM/dep/xtb-6.5.1/bin/xtb --gfn 1 /lustre/hpc/kemi/ree/PhD/git/ReactivityQM/calculations/R02oxygendeprot/reac01prodN07/conf18/R02oxygendeprot_reac01prodN07_conf18_gfn1.xyz --opt --vfukui --chrg 0 --uhf 0 --alpb DMSO

   ID    Z sym.   atoms
    1    6 C      1, 3, 5, 7-10, 12, 14, 17-19, 22, 24
    2    8 O      2, 4, 13, 20, 23, 25
    3    7 N      6, 11, 15, 16, 21
    4    1 H      26-42

      * Solvation model:               ALPB
        Solvent                        DMSO
        Solvent mass                       7.8130E+01 g/mol
          :  Hamiltonian                  GFN1-xTB          :
 * total energy  :   -82.9525214 Eh     change       -0.4650076E-09 Eh
 * total energy  :   -82.9689736 Eh     change       -0.1645222E-01 Eh
 * total energy  :   -82.9758760 Eh     change       -0.6902441E-02 Eh
 * total energy  :   -82.9770467 Eh     change       -0.1170636E-02 Eh
 * total energy  :   -82.9778545 Eh     change       -0.8077845E-03 Eh
 * total energy  :   -82.9781600 Eh     change       -0.3054976E-03 Eh
 * total energy  :   -82.9784585 Eh     change       -0.2985063E-03 Eh
 * total energy  :   -82.9786844 Eh     change       -0.2259204E-03 Eh
 * total energy  :   -82.9788454 Eh     change       -0.1609732E-03 Eh
 * total energy  :   -82.9789493 Eh     change       -0.1039460E-03 Eh
 * total energy  :   -82.9796156 Eh     change       -0.2448500E-04 Eh
 * total energy  :   -82.9796408 Eh     change       -0.2523005E-04 Eh
 * total energy  :   -82.9796682 Eh     change       -0.2739059E-04 Eh
 * total energy  :   -82.9797011 Eh     change       -0.3288493E-04 Eh
 * total energy  :   -82.9797247 Eh     change       -0.2368144E-04 Eh
 * total energy  :   -82.9797396 Eh     change       -0.1480554E-04 Eh
 * total energy  :   -82.9797492 Eh     change       -0.9689528E-05 Eh
 * total energy  :   -82.9797547 Eh     change       -0.5439460E-05 Eh
 * total energy  :   -82.9797597 Eh     change       -0.4997907E-05 Eh
   *** GEOMETRY OPTIMIZATION CONVERGED AFTER 40 ITERATIONS ***

 final structure:
================
42
 xtb: 6.5.1 (579679a)
C            6.60507171115596        2.14380358582674        0.51814145648940
O            5.60719593798490        1.42687072541064       -0.19636801420210
C            4.56054774534430        0.97912746884552        0.53936037778130
O            4.50276231318509        1.19963840400261        1.74301136305856
C            3.55892960077883        0.23787897266903       -0.21485658381840
N            2.52317962870556       -0.21638257295870        0.57867631477009
C            1.56131825807697       -0.90005046564427        0.08076068283151
C            0.45580845887692       -1.40683098623548        0.99120536614849
C            0.76346662653270       -0.99396069514330        2.43120753792246
C            0.29733973876273       -2.92781345874225        0.90317010571674
N           -0.82570756703197       -0.74429643264991        0.63882617085316
C           -1.58608940438749       -1.02810086343971       -0.41775052109985
O           -1.35673353065232       -1.81391558999695       -1.31834883645503
C           -2.86485591960988       -0.23402589802715       -0.43636606719567
N           -3.80009952395951       -0.29025914276082       -1.33607200435048
N           -4.74340156173802        0.56941913752928       -0.90946818141169
C           -5.95308517646320        0.76442081234465       -1.68037126928600
C           -4.36957891920559        1.12704116570274        0.22196590269138
C           -5.08101373858618        2.11685615965779        1.04609702080631
O           -3.18798956409630        0.63743419695985        0.54203533335161
N            1.51184294319371       -1.21442920494968       -1.26008808174993
C            2.45290648903971       -0.80594420961559       -2.17020134379148
O            2.32409284910677       -1.10090381169676       -3.35576828236462
C            3.61123306914682       -0.00672352488728       -1.61250064349466
O            4.50051874820179        0.37329311940670       -2.39435791945207
H            7.37129628612024        2.42955327285430       -0.20163413878855
H            6.18038655000062        3.03907742260906        0.98205740671914
H            7.04581849136828        1.51770718758023        1.29997070838455
H           -0.03433437770424       -1.32272650050655        3.09337753233037
H            0.86539080771021        0.08834060928038        2.49789573582195
H            1.70140984568240       -1.44871796882906        2.74693257060083
H           -0.54297136713745       -3.24436478932844        1.51804188614418
H            1.20566461225763       -3.40071835094981        1.27466056084386
H            0.12533536800120       -3.25469922288740       -0.11995427342648
H           -1.18109398202950       -0.08190242333963        1.30659417302434
H           -6.77860177557232        0.93695035176388       -0.99498145767651
H           -5.82342989300059        1.62855448040020       -2.33134737095262
H           -6.12375269670764       -0.13101391197042       -2.27309345703323
H           -6.00034094752247        1.67769748605352        1.43695918650096
H           -5.35528444880153        2.98100346423501        0.44039274245017
H           -4.44668832804229        2.42693521224919        1.87383681487581
H            0.72353564301139       -1.73381921081505       -1.61851750357232

          :  Hamiltonian                  GFN1-xTB          :
         :: total energy             -82.979759680076 Eh    ::
         :: gradient norm              0.000753407427 Eh/a0 ::
         :: HOMO-LUMO gap              0.401818465805 eV    ::
         :: SCC energy               -83.767864047547 Eh    ::
         :: -> Gsolv                  -0.136566058732 Eh    ::
         :: repulsion energy           0.813136997142 Eh    ::

    * Orbital Energies and Occupations

         #    Occupation            Energy/Eh            Energy/eV
      -------------------------------------------------------------
         1        2.0000           -0.9361627             -25.4743
       ...           ...                  ...                  ...
        55        2.0000           -0.5045000             -13.7281
        56        2.0000           -0.5004181             -13.6171
        57        2.0000           -0.4967320             -13.5168
        58        2.0000           -0.4895353             -13.3209
        59        2.0000           -0.4825372             -13.1305
        60        2.0000           -0.4682586             -12.7420
        61        2.0000           -0.4669452             -12.7062
        62        2.0000           -0.4584483             -12.4750
        63        2.0000           -0.4424562             -12.0398
        64        2.0000           -0.4391382             -11.9496
        65        2.0000           -0.4205231             -11.4430
        66        2.0000           -0.3818529             -10.3907
        67        1.9992           -0.3699493             -10.0668 (HOMO)
        68        0.0008           -0.3551828              -9.6650 (LUMO)
        69                         -0.3417694              -9.3000
        70                         -0.2725917              -7.4176
        71                         -0.2458171              -6.6890
        72                         -0.2363405              -6.4312
        73                         -0.1995068              -5.4289
        74                         -0.1838647              -5.0032
        75                         -0.1712831              -4.6608
        76                         -0.1289875              -3.5099
        77                         -0.1243608              -3.3840
        78                         -0.1226439              -3.3373
       ...                                ...                  ...
       134                          0.7541758              20.5222
      -------------------------------------------------------------
                  HL-Gap            0.0147666 Eh            0.4018 eV

Wiberg/Mayer (AO) data.
largest (>0.10) Wiberg bond orders for each atom

     #   Z sym  total        # sym  WBO       # sym  WBO       # sym  WBO
 ---------------------------------------------------------------------------
     1   6 C    3.897 --    26 H    0.987    27 H    0.981    28 H    0.980
                             2 O    0.923
     2   8 O    2.163 --     3 C    1.052     1 C    0.923     4 O    0.111
     3   6 C    3.850 --     4 O    1.579     5 C    1.109     2 O    1.052
     4   8 O    1.853 --     3 C    1.579     2 O    0.111
     5   6 C    3.909 --    24 C    1.267     6 N    1.158     3 C    1.109
                            25 O    0.128
     6   7 N    3.033 --     7 C    1.628     5 C    1.158
     7   6 C    3.933 --     6 N    1.628    21 N    1.101     8 C    0.967
     8   6 C    3.913 --     9 C    1.002    10 C    0.990     7 C    0.967
                            11 N    0.888
     9   6 C    3.991 --     8 C    1.002    29 H    0.986    30 H    0.982
                            31 H    0.981
    10   6 C    3.988 --     8 C    0.990    32 H    0.985    33 H    0.984
                            34 H    0.979
    11   7 N    3.395 --    12 C    1.319    35 H    0.892     8 C    0.888
                            13 O    0.201
    12   6 C    3.926 --    13 O    1.577    11 N    1.319    14 C    0.956
    13   8 O    1.928 --    12 C    1.577    11 N    0.201
    14   6 C    3.832 --    15 N    1.613    20 O    1.050    12 C    0.956
    15   7 N    2.976 --    14 C    1.613    16 N    1.149
    16   7 N    3.632 --    18 C    1.428    15 N    1.149    17 C    0.911
    17   6 C    3.887 --    36 H    0.977    38 H    0.976    37 H    0.964
                            16 N    0.911
    18   6 C    3.841 --    16 N    1.428    20 O    1.145    19 C    1.041
    19   6 C    3.961 --    18 C    1.041    41 H    0.972    40 H    0.950
                            39 H    0.941
    20   8 O    2.371 --    18 C    1.145    14 C    1.050
    21   7 N    3.430 --    22 C    1.163     7 C    1.101    42 H    0.881
                            23 O    0.136
    22   6 C    3.879 --    23 O    1.579    21 N    1.163    24 C    0.966
    23   8 O    1.859 --    22 C    1.579    21 N    0.136
    24   6 C    3.941 --    25 O    1.525     5 C    1.267    22 C    0.966
    25   8 O    1.827 --    24 C    1.525     5 C    0.128
    26   1 H    1.015 --     1 C    0.987
    27   1 H    1.014 --     1 C    0.981
    28   1 H    1.013 --     1 C    0.980
    29   1 H    0.999 --     9 C    0.986
    30   1 H    1.010 --     9 C    0.982
    31   1 H    1.009 --     9 C    0.981
    32   1 H    1.000 --    10 C    0.985
    33   1 H    1.001 --    10 C    0.984
    34   1 H    1.008 --    10 C    0.979
    35   1 H    0.933 --    11 N    0.892
    36   1 H    0.990 --    17 C    0.977
    37   1 H    0.989 --    17 C    0.964
    38   1 H    0.992 --    17 C    0.976
    39   1 H    0.985 --    19 C    0.941
    40   1 H    0.986 --    19 C    0.950
    41   1 H    0.986 --    19 C    0.972
    42   1 H    0.951 --    21 N    0.881
 ---------------------------------------------------------------------------

           -------------------------------------------------
          | TOTAL ENERGY              -82.979759680076 Eh   |
          | GRADIENT NORM               0.000753407427 Eh/α |
          | HOMO-LUMO GAP               0.401818465805 eV   |
           -------------------------------------------------

 * finished run on 2023/06/21 at 17:23:09.320
