                         Program Version 5.0.1 -  RELEASE  -
|  1> # ORCA input file
|  2> ! SP r2SCAN-3c CPCM
|  3>
|  4> %maxcore 1875.0
|  5> %pal nprocs 4 end
|  6> %cpcm smd true SMDsolvent "DMSO" end
|  7>
|  8> *xyz -1 1
|  9> C      -5.025169    1.450093    1.860183
| 10> O      -3.807071    0.909032    1.381166
| 11> C      -3.757521    0.692468    0.009305
| 12> O      -4.749211    0.995103   -0.689374
| 13> C      -2.554014    0.151309   -0.456236
| 14> N      -1.565034   -0.176789    0.427857
| 15> C      -0.429974   -0.615627    0.029068
| 16> C       0.620204   -1.095190    1.003542
| 17> C       0.866870   -2.597857    0.796862
| 18> C       0.159902   -0.807691    2.436314
| 19> N       1.869506   -0.354949    0.729124
| 20> C       3.015038   -0.546371    1.400798
| 21> O       3.190277   -1.347297    2.308150
| 22> C       4.117571    0.337998    0.930127
| 23> N       5.323351    0.411892    1.403095
| 24> N       5.979008    1.354311    0.666243
| 25> C       5.132993    1.796134   -0.211179
| 26> C       5.362227    2.822658   -1.251495
| 27> O       3.936502    1.195688   -0.098093
| 28> N      -0.102648   -0.699255   -1.347448
| 29> C      -0.944297   -0.292307   -2.333814
| 30> O      -0.527722   -0.085467   -3.467574
| 31> C      -2.423437   -0.215225   -1.929914
| 32> C      -3.026539   -1.620738   -2.192893
| 33> O      -3.061757    0.730296   -2.768499
| 34> H      -5.869630    0.790579    1.627709
| 35> H      -4.929918    1.548788    2.942433
| 36> H      -5.221183    2.435217    1.420566
| 37> H       1.229565   -2.781276   -0.213116
| 38> H      -0.069871   -3.135612    0.937920
| 39> H       1.599263   -2.972016    1.509882
| 40> H       0.039035    0.265737    2.578602
| 41> H       0.883693   -1.186742    3.155217
| 42> H      -0.800629   -1.292591    2.607192
| 43> H       1.844333    0.366290    0.026356
| 44> H       5.301588    2.369322   -2.241461
| 45> H       4.599040    3.597675   -1.187681
| 46> H       6.346585    3.264344   -1.117357
| 47> H       0.867445   -0.787888   -1.600948
| 48> H      -4.080816   -1.614513   -1.920920
| 49> H      -2.931433   -1.873243   -3.248494
| 50> H      -2.506254   -2.366255   -1.594062
| 51> H      -3.899867    0.979970   -2.317153
| 52> **                         ****END OF INPUT****

CARTESIAN COORDINATES (ANGSTROEM)
---------------------------------
  C     -5.025169    1.450093    1.860183
  O     -3.807071    0.909032    1.381166
  C     -3.757521    0.692468    0.009305
  O     -4.749211    0.995103   -0.689374
  C     -2.554014    0.151309   -0.456236
  N     -1.565034   -0.176789    0.427857
  C     -0.429974   -0.615627    0.029068
  C      0.620204   -1.095190    1.003542
  C      0.866870   -2.597857    0.796862
  C      0.159902   -0.807691    2.436314
  N      1.869506   -0.354949    0.729124
  C      3.015038   -0.546371    1.400798
  O      3.190277   -1.347297    2.308150
  C      4.117571    0.337998    0.930127
  N      5.323351    0.411892    1.403095
  N      5.979008    1.354311    0.666243
  C      5.132993    1.796134   -0.211179
  C      5.362227    2.822658   -1.251495
  O      3.936502    1.195688   -0.098093
  N     -0.102648   -0.699255   -1.347448
  C     -0.944297   -0.292307   -2.333814
  O     -0.527722   -0.085467   -3.467574
  C     -2.423437   -0.215225   -1.929914
  C     -3.026539   -1.620738   -2.192893
  O     -3.061757    0.730296   -2.768499
  H     -5.869630    0.790579    1.627709
  H     -4.929918    1.548788    2.942433
  H     -5.221183    2.435217    1.420566
  H      1.229565   -2.781276   -0.213116
  H     -0.069871   -3.135612    0.937920
  H      1.599263   -2.972016    1.509882
  H      0.039035    0.265737    2.578602
  H      0.883693   -1.186742    3.155217
  H     -0.800629   -1.292591    2.607192
  H      1.844333    0.366290    0.026356
  H      5.301588    2.369322   -2.241461
  H      4.599040    3.597675   -1.187681
  H      6.346585    3.264344   -1.117357
  H      0.867445   -0.787888   -1.600948
  H     -4.080816   -1.614513   -1.920920
  H     -2.931433   -1.873243   -3.248494
  H     -2.506254   -2.366255   -1.594062
  H     -3.899867    0.979970   -2.317153

 Total Charge           Charge          ....   -1
 Multiplicity           Mult            ....    1
 Number of Electrons    NEL             ....  186
 Basis Dimension        Dim             ....  620

ORBITAL ENERGIES
----------------

  NO   OCC          E(Eh)            E(eV)
   0   2.0000     -19.062394      -518.7141
   1   2.0000     -18.952643      -515.7276
   2   2.0000     -18.927436      -515.0417
   3   2.0000     -18.915656      -514.7212
   4   2.0000     -18.907879      -514.5096
   5   2.0000     -18.891357      -514.0600
   6   2.0000     -14.201899      -386.4533
   7   2.0000     -14.195696      -386.2845
   8   2.0000     -14.194860      -386.2618
   9   2.0000     -14.185429      -386.0052
  10   2.0000     -14.132276      -384.5588
  11   2.0000     -10.151215      -276.2286
  12   2.0000     -10.144619      -276.0491
  13   2.0000     -10.139619      -275.9131
  14   2.0000     -10.115245      -275.2498
  15   2.0000     -10.104669      -274.9620
  16   2.0000     -10.088375      -274.5186
  17   2.0000     -10.080578      -274.3065
  18   2.0000     -10.070966      -274.0449
  19   2.0000     -10.055968      -273.6368
  20   2.0000     -10.043894      -273.3082
  21   2.0000     -10.013455      -272.4800
  22   2.0000     -10.012096      -272.4430
  23   2.0000     -10.009552      -272.3738
  24   2.0000     -10.005148      -272.2539
  25   2.0000      -1.152073       -31.3495
  26   2.0000      -1.017539       -27.6886
  27   2.0000      -1.016001       -27.6468
  28   2.0000      -0.997348       -27.1392
  29   2.0000      -0.972357       -26.4592
  30   2.0000      -0.957427       -26.0529
  31   2.0000      -0.926342       -25.2070
  32   2.0000      -0.925669       -25.1887
  33   2.0000      -0.899496       -24.4765
  34   2.0000      -0.840475       -22.8705
  35   2.0000      -0.827831       -22.5264
  36   2.0000      -0.764182       -20.7944
  37   2.0000      -0.718651       -19.5555
  38   2.0000      -0.710581       -19.3359
  39   2.0000      -0.680702       -18.5228
  40   2.0000      -0.661899       -18.0112
  41   2.0000      -0.651504       -17.7283
  42   2.0000      -0.639432       -17.3998
  43   2.0000      -0.610303       -16.6072
  44   2.0000      -0.600587       -16.3428
  45   2.0000      -0.594705       -16.1827
  46   2.0000      -0.568165       -15.4606
  47   2.0000      -0.539008       -14.6672
  48   2.0000      -0.528078       -14.3697
  49   2.0000      -0.509079       -13.8528
  50   2.0000      -0.501779       -13.6541
  51   2.0000      -0.491695       -13.3797
  52   2.0000      -0.489961       -13.3325
  53   2.0000      -0.460110       -12.5202
  54   2.0000      -0.444063       -12.0836
  55   2.0000      -0.438985       -11.9454
  56   2.0000      -0.421649       -11.4737
  57   2.0000      -0.415008       -11.2929
  58   2.0000      -0.413789       -11.2598
  59   2.0000      -0.407742       -11.0952
  60   2.0000      -0.405134       -11.0243
  61   2.0000      -0.403159       -10.9705
  62   2.0000      -0.400228       -10.8908
  63   2.0000      -0.391915       -10.6645
  64   2.0000      -0.388965       -10.5843
  65   2.0000      -0.383080       -10.4241
  66   2.0000      -0.379344       -10.3225
  67   2.0000      -0.372988       -10.1495
  68   2.0000      -0.362433        -9.8623
  69   2.0000      -0.357909        -9.7392
  70   2.0000      -0.346397        -9.4259
  71   2.0000      -0.342564        -9.3217
  72   2.0000      -0.341566        -9.2945
  73   2.0000      -0.338824        -9.2199
  74   2.0000      -0.335800        -9.1376
  75   2.0000      -0.327253        -8.9050
  76   2.0000      -0.322058        -8.7637
  77   2.0000      -0.314617        -8.5612
  78   2.0000      -0.311457        -8.4752
  79   2.0000      -0.304213        -8.2781
  80   2.0000      -0.302412        -8.2291
  81   2.0000      -0.288353        -7.8465
  82   2.0000      -0.265237        -7.2175
  83   2.0000      -0.259219        -7.0537
  84   2.0000      -0.243601        -6.6287
  85   2.0000      -0.240350        -6.5403
  86   2.0000      -0.238462        -6.4889
  87   2.0000      -0.235841        -6.4176
  88   2.0000      -0.232220        -6.3190
  89   2.0000      -0.222312        -6.0494
  90   2.0000      -0.206051        -5.6069
  91   2.0000      -0.194843        -5.3019
  92   2.0000      -0.128051        -3.4845
  93   0.0000      -0.081488        -2.2174
  94   0.0000      -0.025364        -0.6902
  95   0.0000      -0.017836        -0.4854
  96   0.0000       0.026616         0.7242
  97   0.0000       0.052075         1.4170

MULLIKEN ATOMIC CHARGES
-----------------------
   0 C :   -0.339744
   1 O :   -0.217425
   2 C :    0.216205
   3 O :   -0.527139
   4 C :   -0.266676
   5 N :   -0.153907
   6 C :    0.159317
   7 C :    0.089000
   8 C :   -0.624381
   9 C :   -0.674633
  10 N :   -0.098306
  11 C :   -0.118277
  12 O :   -0.443906
  13 C :    0.422038
  14 N :   -0.185452
  15 N :   -0.278873
  16 C :    0.390518
  17 C :   -0.635923
  18 O :   -0.057574
  19 N :   -0.100999
  20 C :    0.043353
  21 O :   -0.394722
  22 C :    0.168425
  23 C :   -0.584095
  24 O :   -0.442928
  25 H :    0.155871
  26 H :    0.156088
  27 H :    0.156220
  28 H :    0.180489
  29 H :    0.186167
  30 H :    0.193351
  31 H :    0.188078
  32 H :    0.188323
  33 H :    0.185647
  34 H :    0.313318
  35 H :    0.202931
  36 H :    0.198723
  37 H :    0.204330
  38 H :    0.305515
  39 H :    0.170071
  40 H :    0.165693
  41 H :    0.173561
  42 H :    0.331729
Sum of atomic charges:   -1.0000000

LOEWDIN ATOMIC CHARGES
----------------------
   0 C :   -0.064184
   1 O :   -0.640902
   2 C :    0.359994
   3 O :   -0.592628
   4 C :    0.080602
   5 N :   -0.623135
   6 C :    0.286110
   7 C :    0.108476
   8 C :   -0.352914
   9 C :   -0.350975
  10 N :   -0.574104
  11 C :    0.375571
  12 O :   -0.468019
  13 C :    0.415660
  14 N :   -0.339142
  15 N :   -0.363329
  16 C :    0.376672
  17 C :   -0.317902
  18 O :   -0.393878
  19 N :   -0.514667
  20 C :    0.354501
  21 O :   -0.464301
  22 C :    0.163967
  23 C :   -0.367359
  24 O :   -0.591473
  25 H :    0.167500
  26 H :    0.173208
  27 H :    0.167031
  28 H :    0.170038
  29 H :    0.170583
  30 H :    0.177244
  31 H :    0.171807
  32 H :    0.172402
  33 H :    0.173958
  34 H :    0.299006
  35 H :    0.192396
  36 H :    0.190502
  37 H :    0.190790
  38 H :    0.293468
  39 H :    0.166756
  40 H :    0.163067
  41 H :    0.162981
  42 H :    0.294625

  Mayer bond orders larger than 0.100000
B(  0-C ,  1-O ) :   0.8558 B(  0-C , 25-H ) :   0.9677 B(  0-C , 26-H ) :   0.9691
B(  0-C , 27-H ) :   0.9682 B(  1-O ,  2-C ) :   1.0121 B(  2-C ,  3-O ) :   1.5798
B(  2-C ,  4-C ) :   1.4064 B(  3-O , 42-H ) :   0.1053 B(  4-C ,  5-N ) :   1.1036
B(  4-C , 22-C ) :   0.8781 B(  5-N ,  6-C ) :   1.8628 B(  5-N ,  7-C ) :  -0.1063
B(  6-C ,  7-C ) :   0.9411 B(  6-C , 10-N ) :  -0.1082 B(  6-C , 19-N ) :   0.9311
B(  7-C ,  8-C ) :   0.8710 B(  7-C ,  9-C ) :   0.8416 B(  7-C , 10-N ) :   0.8336
B(  8-C , 28-H ) :   0.9642 B(  8-C , 29-H ) :   0.9704 B(  8-C , 30-H ) :   0.9657
B(  9-C , 31-H ) :   0.9786 B(  9-C , 32-H ) :   0.9681 B(  9-C , 33-H ) :   0.9658
B( 10-N , 11-C ) :   1.2002 B( 10-N , 34-H ) :   0.8787 B( 11-C , 12-O ) :   1.9092
B( 11-C , 13-C ) :   0.8372 B( 13-C , 14-N ) :   1.7089 B( 13-C , 16-C ) :   0.1033
B( 13-C , 18-O ) :   1.0752 B( 14-N , 15-N ) :   1.2758 B( 15-N , 16-C ) :   1.6380
B( 16-C , 17-C ) :   0.8312 B( 16-C , 18-O ) :   1.0685 B( 17-C , 35-H ) :   0.9366
B( 17-C , 36-H ) :   0.9481 B( 17-C , 37-H ) :   0.9895 B( 19-N , 20-C ) :   1.0471
B( 19-N , 38-H ) :   0.8763 B( 20-C , 21-O ) :   2.1211 B( 20-C , 22-C ) :   0.8774
B( 22-C , 23-C ) :   0.9256 B( 22-C , 24-O ) :   1.0094 B( 23-C , 39-H ) :   0.9605
B( 23-C , 40-H ) :   0.9705 B( 23-C , 41-H ) :   0.9737 B( 24-O , 42-H ) :   0.7974

Dispersion correction           -0.019259044
FINAL SINGLE POINT ENERGY     -1269.373068681012

DIPOLE MOMENT
-------------
                                X             Y             Z
Electronic contribution:     14.60927       4.53094      -2.18534
Nuclear contribution   :    -11.31751      -3.98916       2.42674
                        -----------------------------------------
Total Dipole Moment    :      3.29177       0.54178       0.24140
                        -----------------------------------------
Magnitude (a.u.)       :      3.34478
Magnitude (Debye)      :      8.50174

Rotational constants in cm-1:     0.012319     0.003627     0.003334
Rotational constants in MHz :   369.316640   108.721911    99.953352

                             ****ORCA TERMINATED NORMALLY****
TOTAL RUN TIME: 0 days 0 hours 1 minutes 57 seconds 774 msec
