   * xtb version 6.5.1 (579679a) compiled by 'ehlert@majestix' on 2022-07-11
          program call               : /lustre/hpc/kemi/ree/PhD/git/ReactivityQM/dep/xtb-6.5.1/bin/xtb --gfn 1 /lustre/hpc/kemi/ree/PhD/git/ReactivityQM/calculations/R02/reac01prodE14/conf13/R02_reac01prodE14_conf13_gfn1.xyz --opt --vfukui --chrg -1 --uhf 0 --alpb DMSO

   ID    Z sym.   atoms
    1    6 C      1, 3, 5, 7-10, 12, 14, 17, 18, 21, 23, 24
    2    8 O      2, 4, 13, 19, 22, 25
    3    7 N      6, 11, 15, 16, 20
    4    1 H      26-43

      * Solvation model:               ALPB
        Solvent                        DMSO
        Solvent mass                       7.8130E+01 g/mol
          :  Hamiltonian                  GFN1-xTB          :
 * total energy  :   -83.8719821 Eh     change       -0.1223739E-08 Eh
 * total energy  :   -83.8854163 Eh     change       -0.1343423E-01 Eh
 * total energy  :   -83.8899408 Eh     change       -0.4524560E-02 Eh
 * total energy  :   -83.8906530 Eh     change       -0.7121394E-03 Eh
 * total energy  :   -83.8913682 Eh     change       -0.7152501E-03 Eh
 * total energy  :   -83.8916982 Eh     change       -0.3299819E-03 Eh
 * total energy  :   -83.8920194 Eh     change       -0.3211637E-03 Eh
 * total energy  :   -83.8922694 Eh     change       -0.2499922E-03 Eh
 * total energy  :   -83.8923889 Eh     change       -0.1195161E-03 Eh
 * total energy  :   -83.8924765 Eh     change       -0.8762004E-04 Eh
 * total energy  :   -83.8938399 Eh     change       -0.1300851E-04 Eh
 * total energy  :   -83.8938568 Eh     change       -0.1696384E-04 Eh
 * total energy  :   -83.8938691 Eh     change       -0.1228470E-04 Eh
 * total energy  :   -83.8938752 Eh     change       -0.6103321E-05 Eh
 * total energy  :   -83.8938708 Eh     change        0.4431561E-05 Eh
 * total energy  :   -83.8938792 Eh     change       -0.8428738E-05 Eh
 * total energy  :   -83.8938781 Eh     change        0.1089533E-05 Eh
 * total energy  :   -83.8938850 Eh     change       -0.6933242E-05 Eh
 * total energy  :   -83.8938879 Eh     change       -0.2857392E-05 Eh
   *** GEOMETRY OPTIMIZATION CONVERGED AFTER 60 ITERATIONS ***

 final structure:
================
43
 xtb: 6.5.1 (579679a)
C           -5.02516881174572        1.45009266201531        1.86018336673137
O           -3.80707087507207        0.90903162794189        1.38116566494126
C           -3.75752085067804        0.69246787433353        0.00930482109933
O           -4.74921069202826        0.99510348622444       -0.68937428928693
C           -2.55401407441392        0.15130859294742       -0.45623631166732
N           -1.56503414491002       -0.17678878723698        0.42785732547967
C           -0.42997406042195       -0.61562737634535        0.02906823474020
C            0.62020399321518       -1.09519032389687        1.00354173940006
C            0.86687043410451       -2.59785718425716        0.79686194079582
C            0.15990206667674       -0.80769070823290        2.43631443416866
N            1.86950610771858       -0.35494915224927        0.72912421896037
C            3.01503803733907       -0.54637115911163        1.40079831652001
O            3.19027702553845       -1.34729743896165        2.30815032017774
C            4.11757147420364        0.33799808358425        0.93012671991697
N            5.32335108498813        0.41189199819117        1.40309474300970
N            5.97900796188053        1.35431147573309        0.66624296765635
C            5.13299298484372        1.79613387148375       -0.21117923609737
C            5.36222719310594        2.82265764054794       -1.25149527068190
O            3.93650190958524        1.19568769856214       -0.09809250683435
N           -0.10264838781638       -0.69925491889851       -1.34744795066487
C           -0.94429670555898       -0.29230718724273       -2.33381383363914
O           -0.52772218868379       -0.08546732748243       -3.46757439632353
C           -2.42343708822120       -0.21522534743350       -1.92991409911104
C           -3.02653903740191       -1.62073848506745       -2.19289296740710
O           -3.06175745392399        0.73029639748444       -2.76849948166392
H           -5.86962960693408        0.79057900908098        1.62770868228216
H           -4.92991846777879        1.54878790817095        2.94243269395350
H           -5.22118290567967        2.43521667700664        1.42056627220955
H            1.22956482841530       -2.78127641167843       -0.21311565967147
H           -0.06987091775165       -3.13561172842734        0.93792019899549
H            1.59926293011600       -2.97201561150761        1.50988228848362
H            0.03903493966190        0.26573725747113        2.57860237401710
H            0.88369301372128       -1.18674208614389        3.15521663604671
H           -0.80062857492992       -1.29259143001309        2.60719165745634
H            1.84433348216616        0.36629009568285        0.02635632204436
H            5.30158767435598        2.36932155167527       -2.24146125783399
H            4.59903976709218        3.59767548988538       -1.18768069066620
H            6.34658450025118        3.26434373448031       -1.11735651949972
H            0.86744528025507       -0.78788840720819       -1.60094756784205
H           -4.08081646472823       -1.61451288574763       -1.92092045389994
H           -2.93143279690604       -1.87324337264146       -3.24849408626299
H           -2.50625373101253       -2.36625532751880       -1.59406193691402
H           -3.89986685263902        0.97996952480586       -2.31715342312743

          :  Hamiltonian                  GFN1-xTB          :
         :: total energy             -83.893887906767 Eh    ::
         :: gradient norm              0.000399892579 Eh/a0 ::
         :: HOMO-LUMO gap              0.777986999467 eV    ::
         :: SCC energy               -84.655692543255 Eh    ::
         :: -> Gsolv                  -0.111969674022 Eh    ::
         :: repulsion energy           0.788244888726 Eh    ::

    * Orbital Energies and Occupations

         #    Occupation            Energy/Eh            Energy/eV
      -------------------------------------------------------------
         1        2.0000           -0.8600458             -23.4030
       ...           ...                  ...                  ...
        56        2.0000           -0.4734345             -12.8828
        57        2.0000           -0.4689831             -12.7617
        58        2.0000           -0.4556422             -12.3987
        59        2.0000           -0.4529088             -12.3243
        60        2.0000           -0.4455261             -12.1234
        61        2.0000           -0.4444434             -12.0939
        62        2.0000           -0.4395151             -11.9598
        63        2.0000           -0.4361774             -11.8690
        64        2.0000           -0.4273890             -11.6298
        65        2.0000           -0.4227419             -11.5034
        66        2.0000           -0.4039657             -10.9925
        67        2.0000           -0.3867938             -10.5252
        68        2.0000           -0.3306287              -8.9969 (HOMO)
        69        0.0000           -0.3020382              -8.2189 (LUMO)
        70                         -0.2522500              -6.8641
        71                         -0.2450807              -6.6690
        72                         -0.2031785              -5.5288
        73                         -0.1903690              -5.1802
        74                         -0.1432732              -3.8987
        75                         -0.1400976              -3.8122
        76                         -0.1125308              -3.0621
        77                         -0.1118888              -3.0446
        78                         -0.1099383              -2.9916
        79                         -0.0987439              -2.6870
       ...                                ...                  ...
       136                          0.7324148              19.9300
      -------------------------------------------------------------
                  HL-Gap            0.0285905 Eh            0.7780 eV

Wiberg/Mayer (AO) data.
largest (>0.10) Wiberg bond orders for each atom

     #   Z sym  total        # sym  WBO       # sym  WBO       # sym  WBO
 ---------------------------------------------------------------------------
     1   6 C    3.911 --    27 H    0.987    28 H    0.981    26 H    0.981
                             2 O    0.940
     2   8 O    2.091 --     3 C    0.971     1 C    0.940
     3   6 C    3.868 --     4 O    1.433     5 C    1.328     2 O    0.971
     4   8 O    1.818 --     3 C    1.433     5 C    0.108
     5   6 C    3.860 --     3 C    1.328     6 N    1.200    23 C    0.961
                             4 O    0.108     7 C    0.104
     6   7 N    3.058 --     7 C    1.628     5 C    1.200
     7   6 C    3.907 --     6 N    1.628    20 N    0.989     8 C    0.984
                             5 C    0.104
     8   6 C    3.926 --    10 C    0.994     9 C    0.984     7 C    0.984
                            11 N    0.901
     9   6 C    3.989 --    30 H    0.986    29 H    0.985     8 C    0.984
                            31 H    0.981
    10   6 C    3.993 --     8 C    0.994    32 H    0.985    34 H    0.984
                            33 H    0.984
    11   7 N    3.365 --    12 C    1.286     8 C    0.901    35 H    0.898
                            13 O    0.183
    12   6 C    3.921 --    13 O    1.569    11 N    1.286    14 C    0.985
    13   8 O    1.889 --    12 C    1.569    11 N    0.183
    14   6 C    3.868 --    15 N    1.626    19 O    1.048    12 C    0.985
    15   7 N    2.996 --    14 C    1.626    16 N    1.194
    16   7 N    2.981 --    17 C    1.615    15 N    1.194
    17   6 C    3.870 --    16 N    1.615    19 O    1.072    18 C    1.031
    18   6 C    3.987 --    17 C    1.031    38 H    0.983    37 H    0.967
                            36 H    0.961
    19   8 O    2.316 --    17 C    1.072    14 C    1.048
    20   7 N    3.368 --    21 C    1.208     7 C    0.989    39 H    0.903
                            22 O    0.137
    21   6 C    3.881 --    22 O    1.597    20 N    1.208    23 C    0.940
    22   8 O    1.869 --    21 C    1.597    20 N    0.137
    23   6 C    3.920 --     5 C    0.961    25 O    0.961    24 C    0.955
                            21 C    0.940
    24   6 C    3.996 --    42 H    0.988    41 H    0.986    40 H    0.984
                            23 C    0.955
    25   8 O    1.882 --    23 C    0.961    43 H    0.818
    26   1 H    1.018 --     1 C    0.981
    27   1 H    1.019 --     1 C    0.987
    28   1 H    1.018 --     1 C    0.981
    29   1 H    1.005 --     9 C    0.985
    30   1 H    1.006 --     9 C    0.986
    31   1 H    1.011 --     9 C    0.981
    32   1 H    1.011 --    10 C    0.985
    33   1 H    1.012 --    10 C    0.984
    34   1 H    1.015 --    10 C    0.984
    35   1 H    0.945 --    11 N    0.898
    36   1 H    0.997 --    18 C    0.961
    37   1 H    0.997 --    18 C    0.967
    38   1 H    0.999 --    18 C    0.983
    39   1 H    0.950 --    20 N    0.903
    40   1 H    1.011 --    24 C    0.984
    41   1 H    1.009 --    24 C    0.986
    42   1 H    1.009 --    24 C    0.988
    43   1 H    0.898 --    25 O    0.818
 ---------------------------------------------------------------------------

           -------------------------------------------------
          | TOTAL ENERGY              -83.893887906767 Eh   |
          | GRADIENT NORM               0.000399892579 Eh/α |
          | HOMO-LUMO GAP               0.777986999467 eV   |
           -------------------------------------------------

 * finished run on 2023/06/20 at 15:16:11.217
