   * xtb version 6.5.1 (579679a) compiled by 'ehlert@majestix' on 2022-07-11
          program call               : /lustre/hpc/kemi/ree/PhD/git/ReactivityQM/dep/xtb-6.5.1/bin/xtb --gfn 1 /lustre/hpc/kemi/ree/PhD/git/ReactivityQM/calculations/R02oxygendeprot/reac01prodE12/conf08/R02oxygendeprot_reac01prodE12_conf08_gfn1.xyz --opt --vfukui --chrg -2 --uhf 0 --alpb DMSO

   ID    Z sym.   atoms
    1    6 C      1, 3, 5, 6, 8, 9, 12-15, 17, 19, 22, 23
    2    8 O      2, 4, 7, 10, 18, 24
    3    7 N      11, 16, 20, 21, 25
    4    1 H      26-42

      * Solvation model:               ALPB
        Solvent                        DMSO
        Solvent mass                       7.8130E+01 g/mol
          :  Hamiltonian                  GFN1-xTB          :
 * total energy  :   -83.5994387 Eh     change       -0.6176037E-10 Eh
 * total energy  :   -83.6129456 Eh     change       -0.1350688E-01 Eh
 * total energy  :   -83.6187120 Eh     change       -0.5766366E-02 Eh
 * total energy  :   -83.6201156 Eh     change       -0.1403596E-02 Eh
 * total energy  :   -83.6216006 Eh     change       -0.1485069E-02 Eh
 * total energy  :   -83.6224693 Eh     change       -0.8686887E-03 Eh
 * total energy  :   -83.6232818 Eh     change       -0.8124414E-03 Eh
 * total energy  :   -83.6237909 Eh     change       -0.5091589E-03 Eh
 * total energy  :   -83.6240390 Eh     change       -0.2480575E-03 Eh
 * total energy  :   -83.6242166 Eh     change       -0.1776082E-03 Eh
 * total energy  :   -83.6250629 Eh     change       -0.5539349E-05 Eh
 * total energy  :   -83.6250695 Eh     change       -0.6647116E-05 Eh
 * total energy  :   -83.6250767 Eh     change       -0.7149118E-05 Eh
 * total energy  :   -83.6250823 Eh     change       -0.5618092E-05 Eh
 * total energy  :   -83.6250875 Eh     change       -0.5198183E-05 Eh
 * total energy  :   -83.6250932 Eh     change       -0.5698336E-05 Eh
 * total energy  :   -83.6250990 Eh     change       -0.5854578E-05 Eh
 * total energy  :   -83.6251045 Eh     change       -0.5430414E-05 Eh
 * total energy  :   -83.6251091 Eh     change       -0.4608156E-05 Eh
   *** GEOMETRY OPTIMIZATION CONVERGED AFTER 34 ITERATIONS ***

 final structure:
================
42
 xtb: 6.5.1 (579679a)
C           -4.52584905746612        3.55532605669469       -0.22064777046786
O           -3.59227339347628        2.50086123027478       -0.30973185431292
C           -3.92204121232014        1.35030819754645        0.42600215997367
O           -4.97168484718094        1.36026574283435        1.08016097663111
C           -2.96128573719413        0.31368622815891        0.29433998618242
C           -3.09723711505831       -0.95498627945679        0.92285356782836
O           -4.00285233839800       -1.26135884399215        1.72864258506426
C           -2.06439307229656       -2.07048525408187        0.49726843773227
C           -1.76588750869668       -2.94177296781338        1.76846737334559
O           -2.40956437182225       -2.75475795300228       -0.56044093264409
N           -0.72986205405801       -1.29979533506181        0.26936046291429
C           -0.84611465466759       -0.19238834446834       -0.53138325289290
C            0.32020855300116        0.12071310428711       -1.47544213635312
C            0.21103545820555       -0.77638948522521       -2.71404703807399
C            0.27400098820838        1.59372879261878       -1.89081232441035
N            1.60440091744114       -0.07274754445641       -0.77610432652061
C            2.35223356776447       -1.18264488980611       -0.72427931231055
O            2.11209145984262       -2.26110514119705       -1.25315586631970
C            3.58899568295215       -1.00490812260916        0.09087950688526
N            4.47033785637460       -1.91596794385166        0.37477691724906
N            5.42263681287042       -1.31639058423856        1.14946714409227
C            5.06413871883792       -0.07991994468880        1.28894867731275
C            5.76614370501292        0.98493493559221        2.03890280633252
O            3.91207038801135        0.18517272651348        0.64763691690947
N           -1.84939712814818        0.60224033251494       -0.54163366426154
H           -4.66388220564356        3.88264086308445        0.81772675562725
H           -4.13510690487198        4.38752415657888       -0.80777559740689
H           -5.50454947060166        3.26134257670471       -0.62191343569340
H           -1.05617435954846       -3.72538253445235        1.50584022099976
H           -1.35210005393020       -2.33398780729875        2.57347282624020
H           -2.69469453798878       -3.40388100200950        2.10359706245477
H           -0.01938219889367       -1.94800366400057       -0.05198904015534
H           -0.62805901588619       -0.43139152664559       -3.31850791671296
H            1.11840434064346       -0.72247549463926       -3.31307362577368
H            0.02963148458387       -1.81302413624930       -2.43042735416999
H            1.07120234723046        1.81596311005300       -2.59779291180701
H           -0.68914259017965        1.80920321453292       -2.35325873857065
H            0.38447013138078        2.23637543577697       -1.01794835127943
H            1.96325346206875        0.73862430959486       -0.30120644850000
H            5.13434783976400        1.35561323488655        2.84615960474825
H            6.68948933338892        0.58892740250887        2.45373865693992
H            5.99244078074460        1.82031314849337        1.37725925318415

          :  Hamiltonian                  GFN1-xTB          :
         :: total energy             -83.625109076119 Eh    ::
         :: gradient norm              0.000568671096 Eh/a0 ::
         :: HOMO-LUMO gap              0.235366025982 eV    ::
         :: SCC energy               -84.363005551197 Eh    ::
         :: -> Gsolv                  -0.314146220894 Eh    ::
         :: repulsion energy           0.763657825087 Eh    ::

    * Orbital Energies and Occupations

         #    Occupation            Energy/Eh            Energy/eV
      -------------------------------------------------------------
         1        2.0000           -0.8518477             -23.1800
       ...           ...                  ...                  ...
        56        2.0000           -0.4399466             -11.9716
        57        2.0000           -0.4343991             -11.8206
        58        2.0000           -0.4333523             -11.7921
        59        2.0000           -0.4325842             -11.7712
        60        2.0000           -0.4231936             -11.5157
        61        2.0000           -0.4158329             -11.3154
        62        2.0000           -0.3984874             -10.8434
        63        2.0000           -0.3903108             -10.6209
        64        2.0000           -0.3667851              -9.9807
        65        2.0000           -0.3518935              -9.5755
        66        2.0000           -0.3286234              -8.9423
        67        2.0000           -0.3067324              -8.3466
        68        1.9791           -0.2996027              -8.1526 (HOMO)
        69        0.0209           -0.2909532              -7.9172 (LUMO)
        70                         -0.2453681              -6.6768
        71                         -0.1991595              -5.4194
        72                         -0.1878333              -5.1112
        73                         -0.1786542              -4.8614
        74                         -0.1373729              -3.7381
        75                         -0.1078056              -2.9335
        76                         -0.1050743              -2.8592
        77                         -0.0974897              -2.6528
        78                         -0.0843436              -2.2951
        79                         -0.0724451              -1.9713
       ...                                ...                  ...
       134                          0.7462090              20.3054
      -------------------------------------------------------------
                  HL-Gap            0.0086495 Eh            0.2354 eV

Wiberg/Mayer (AO) data.
largest (>0.10) Wiberg bond orders for each atom

     #   Z sym  total        # sym  WBO       # sym  WBO       # sym  WBO
 ---------------------------------------------------------------------------
     1   6 C    3.920 --    27 H    0.987    28 H    0.980    26 H    0.980
                             2 O    0.952
     2   8 O    2.082 --     1 C    0.952     3 C    0.948
     3   6 C    3.851 --     4 O    1.508     5 C    1.254     2 O    0.948
     4   8 O    1.809 --     3 C    1.508
     5   6 C    3.880 --     6 C    1.264     3 C    1.254    25 N    1.048
     6   6 C    3.887 --     7 O    1.534     5 C    1.264     8 C    0.881
     7   8 O    1.811 --     6 C    1.534
     8   6 C    3.915 --    10 O    1.218     9 C    0.937     6 C    0.881
                            11 N    0.782
     9   6 C    3.985 --    30 H    0.991    29 H    0.989    31 H    0.986
                             8 C    0.937
    10   8 O    1.491 --     8 C    1.218
    11   7 N    3.179 --    12 C    1.157    32 H    0.932     8 C    0.782
                            25 N    0.151
    12   6 C    3.952 --    25 N    1.658    11 N    1.157    13 C    0.945
    13   6 C    3.914 --    15 C    0.999    14 C    0.990    12 C    0.945
                            16 N    0.904
    14   6 C    3.992 --    13 C    0.990    34 H    0.987    33 H    0.986
                            35 H    0.980
    15   6 C    3.995 --    13 C    0.999    36 H    0.988    38 H    0.984
                            37 H    0.981
    16   7 N    3.373 --    17 C    1.292    39 H    0.904    13 C    0.904
                            18 O    0.186
    17   6 C    3.917 --    18 O    1.552    16 N    1.292    19 C    0.985
    18   8 O    1.875 --    17 C    1.552    16 N    0.186
    19   6 C    3.854 --    20 N    1.620    24 O    1.043    17 C    0.985
    20   7 N    2.980 --    19 C    1.620    21 N    1.188
    21   7 N    2.980 --    22 C    1.622    20 N    1.188
    22   6 C    3.869 --    21 N    1.622    24 O    1.068    23 C    1.030
    23   6 C    3.988 --    22 C    1.030    41 H    0.983    42 H    0.966
                            40 H    0.964
    24   8 O    2.306 --    22 C    1.068    19 C    1.043
    25   7 N    3.000 --    12 C    1.658     5 C    1.048    11 N    0.151
    26   1 H    1.021 --     1 C    0.980
    27   1 H    1.020 --     1 C    0.987
    28   1 H    1.020 --     1 C    0.980
    29   1 H    1.019 --     9 C    0.989
    30   1 H    1.017 --     9 C    0.991
    31   1 H    1.027 --     9 C    0.986
    32   1 H    0.984 --    11 N    0.932
    33   1 H    1.008 --    14 C    0.986
    34   1 H    1.007 --    14 C    0.987
    35   1 H    1.021 --    14 C    0.980
    36   1 H    1.004 --    15 C    0.988
    37   1 H    1.026 --    15 C    0.981
    38   1 H    1.010 --    15 C    0.984
    39   1 H    0.950 --    16 N    0.904
    40   1 H    0.998 --    23 C    0.964
    41   1 H    1.000 --    23 C    0.983
    42   1 H    0.998 --    23 C    0.966
 ---------------------------------------------------------------------------

           -------------------------------------------------
          | TOTAL ENERGY              -83.625109076119 Eh   |
          | GRADIENT NORM               0.000568671096 Eh/α |
          | HOMO-LUMO GAP               0.235366025982 eV   |
           -------------------------------------------------

 * finished run on 2023/06/21 at 17:14:18.715
