   * xtb version 6.5.1 (579679a) compiled by 'ehlert@majestix' on 2022-07-11
          program call               : /lustre/hpc/kemi/ree/PhD/git/ReactivityQM/dep/xtb-6.5.1/bin/xtb --gfn 1 /lustre/hpc/kemi/ree/PhD/git/ReactivityQM/calculations/R02oxygendeprot/reac02/conf03/R02oxygendeprot_reac02_conf03_gfn1.xyz --opt --vfukui --chrg 0 --uhf 0 --alpb DMSO

   ID    Z sym.   atoms
    1    6 C      1
    2    5 B      2
    3    8 O      3, 4
    4    1 H      5-9

      * Solvation model:               ALPB
        Solvent                        DMSO
        Solvent mass                       7.8130E+01 g/mol
          :  Hamiltonian                  GFN1-xTB          :
 * total energy  :   -15.7436079 Eh     change       -0.1936229E-12 Eh
 * total energy  :   -15.7455516 Eh     change       -0.1943714E-02 Eh
 * total energy  :   -15.7457436 Eh     change       -0.1920357E-03 Eh
 * total energy  :   -15.7457675 Eh     change       -0.2388533E-04 Eh
 * total energy  :   -15.7457907 Eh     change       -0.2323903E-04 Eh
 * total energy  :   -15.7457946 Eh     change       -0.3883056E-05 Eh
   *** GEOMETRY OPTIMIZATION CONVERGED AFTER 6 ITERATIONS ***

 final structure:
================
9
 xtb: 6.5.1 (579679a)
C            1.11494945946802       -0.08172800427635       -0.09265989278585
B           -0.45658557193869       -0.08408513529952        0.02182084716034
O           -1.13146904936344       -1.25297368531770       -0.19883258618272
O           -1.20174536232183        1.03072559444284        0.32198396391849
H            1.56115408187299        0.79116436702453        0.37810463178947
H            1.41080634940853       -0.07968685415189       -1.14246367052300
H            1.54044886702392       -0.97638606018524        0.36063352115995
H           -2.08455120445229       -1.20539465643280       -0.12659891955478
H           -0.75300856969722        1.85836543419613        0.47801210501814

          :  Hamiltonian                  GFN1-xTB          :
         :: total energy             -15.745794611361 Eh    ::
         :: gradient norm              0.000925547323 Eh/a0 ::
         :: HOMO-LUMO gap              7.902619247178 eV    ::
         :: SCC energy               -15.884875724695 Eh    ::
         :: -> Gsolv                  -0.019400090646 Eh    ::
         :: repulsion energy           0.141001141852 Eh    ::

    * Orbital Energies and Occupations

         #    Occupation            Energy/Eh            Energy/eV
      -------------------------------------------------------------
         1        2.0000           -0.7696421             -20.9430
         2        2.0000           -0.7652217             -20.8227
         3        2.0000           -0.6437699             -17.5179
         4        2.0000           -0.6231513             -16.9568
         5        2.0000           -0.6037459             -16.4288
         6        2.0000           -0.5589995             -15.2111
         7        2.0000           -0.5574731             -15.1696
         8        2.0000           -0.5251196             -14.2892
         9        2.0000           -0.5057784             -13.7629
        10        2.0000           -0.5002600             -13.6128
        11        2.0000           -0.4992719             -13.5859
        12        2.0000           -0.4570336             -12.4365 (HOMO)
        13                         -0.1666176              -4.5339 (LUMO)
        14                         -0.1198909              -3.2624
        15                         -0.0899933              -2.4488
        16                         -0.0825584              -2.2465
        17                         -0.0448043              -1.2192
        18                         -0.0388304              -1.0566
        19                          0.1707419               4.6461
        20                          0.2450072               6.6670
        21                          0.2839840               7.7276
        22                          0.3437637               9.3543
        23                          0.3988506              10.8533
       ...                                ...                  ...
        26                          0.5926005              16.1255
      -------------------------------------------------------------
                  HL-Gap            0.2904159 Eh            7.9026 eV

Wiberg/Mayer (AO) data.
largest (>0.10) Wiberg bond orders for each atom

     #   Z sym  total        # sym  WBO       # sym  WBO       # sym  WBO
 ---------------------------------------------------------------------------
     1   6 C    3.975 --     2 B    0.986     5 H    0.986     7 H    0.978
                             6 H    0.968
     2   5 B    3.250 --     3 O    1.126     4 O    1.102     1 C    0.986
     3   8 O    2.042 --     2 B    1.126     8 H    0.836
     4   8 O    2.037 --     2 B    1.102     9 H    0.842
     5   1 H    1.002 --     1 C    0.986
     6   1 H    1.001 --     1 C    0.968
     7   1 H    1.001 --     1 C    0.978
     8   1 H    0.859 --     3 O    0.836
     9   1 H    0.862 --     4 O    0.842
 ---------------------------------------------------------------------------

           -------------------------------------------------
          | TOTAL ENERGY              -15.745794611361 Eh   |
          | GRADIENT NORM               0.000925547323 Eh/α |
          | HOMO-LUMO GAP               7.902619247178 eV   |
           -------------------------------------------------

 * finished run on 2023/06/21 at 17:00:30.062
