   * xtb version 6.5.1 (579679a) compiled by 'ehlert@majestix' on 2022-07-11
          program call               : /lustre/hpc/kemi/ree/PhD/git/ReactivityQM/dep/xtb-6.5.1/bin/xtb --gfn 1 /lustre/hpc/kemi/ree/PhD/git/ReactivityQM/calculations/R02methylcation/reac01prodN17/conf13/R02methylcation_reac01prodN17_conf13_gfn1.xyz --opt --vfukui --chrg 0 --uhf 0 --alpb DMSO

   ID    Z sym.   atoms
    1    6 C      1, 3, 5, 7-10, 12, 13, 15, 18, 19, 22, 24
    2    8 O      2, 4, 14, 20, 23, 25
    3    7 N      6, 11, 16, 17, 21
    4    1 H      26-42

      * Solvation model:               ALPB
        Solvent                        DMSO
        Solvent mass                       7.8130E+01 g/mol
          :  Hamiltonian                  GFN1-xTB          :
 * total energy  :   -82.9324633 Eh     change       -0.3972076E-09 Eh
 * total energy  :   -82.9458251 Eh     change       -0.1336178E-01 Eh
 * total energy  :   -82.9503800 Eh     change       -0.4554944E-02 Eh
 * total energy  :   -82.9512607 Eh     change       -0.8806553E-03 Eh
 * total energy  :   -82.9519002 Eh     change       -0.6395262E-03 Eh
 * total energy  :   -82.9522909 Eh     change       -0.3906894E-03 Eh
 * total energy  :   -82.9526172 Eh     change       -0.3263278E-03 Eh
 * total energy  :   -82.9528783 Eh     change       -0.2611381E-03 Eh
 * total energy  :   -82.9530918 Eh     change       -0.2135082E-03 Eh
 * total energy  :   -82.9532733 Eh     change       -0.1814589E-03 Eh
 * total energy  :   -82.9556748 Eh     change       -0.2997316E-04 Eh
 * total energy  :   -82.9557122 Eh     change       -0.3746246E-04 Eh
 * total energy  :   -82.9557385 Eh     change       -0.2627050E-04 Eh
 * total energy  :   -82.9557607 Eh     change       -0.2225577E-04 Eh
 * total energy  :   -82.9557722 Eh     change       -0.1149285E-04 Eh
 * total energy  :   -82.9557793 Eh     change       -0.7033795E-05 Eh
 * total energy  :   -82.9557881 Eh     change       -0.8870092E-05 Eh
 * total energy  :   -82.9557937 Eh     change       -0.5567781E-05 Eh
 * total energy  :   -82.9557981 Eh     change       -0.4411628E-05 Eh
   *** GEOMETRY OPTIMIZATION CONVERGED AFTER 38 ITERATIONS ***

 final structure:
================
42
 xtb: 6.5.1 (579679a)
C            6.55885492086600       -0.01393743427008        0.92247303830644
O            5.33871341790039        0.67760464777600        0.67511561046729
C            4.26993281842919       -0.09102793422092        0.38960856626267
O            4.35337976005533       -1.30928803936292        0.35018088157948
C            3.03379318513412        0.65551724558759        0.14121736178364
N            1.97883243721334       -0.15923866516251       -0.17213069173122
C            0.81814794778368        0.32576776394119       -0.44398741770765
C           -0.30503952080102       -0.60894904224181       -0.79831493947009
C           -1.20382485284430       -0.05445590259785       -1.89858257970412
C            0.24372914730037       -1.97992440902942       -1.17193321145570
N           -1.19065980492327       -0.71789531088802        0.48525342528323
C           -0.46228726437151       -1.27822310929274        1.65407944677654
C           -2.42815333728685       -1.52828478111793        0.24951706324073
O           -2.36122524402231       -2.72381480135520        0.20671115546333
C           -3.60925802595408       -0.71612943104909        0.11878666493479
N           -4.84169436387543       -1.11775449649612       -0.06155712182435
N           -5.61073607710298       -0.01803230779276       -0.09438192317781
C           -4.82291090965707        1.01137653164003        0.06792284400740
C           -5.20035256820590        2.43607728448188        0.10323446665328
O           -3.54578081780331        0.63460043146902        0.20828235828504
N            0.56563129306132        1.68128852992875       -0.38076982727331
C            1.52608990478339        2.61922191294358       -0.06742557534130
O            1.22643511499465        3.80346901777560       -0.02788828466354
C            2.91225181206142        2.07429461166668        0.21121549341918
O            3.81920672998417        2.87164002882901        0.47946541119469
H            6.85458045188119       -0.59507236001314        0.04399889988248
H            6.44946416474210       -0.69022363414906        1.77531793893179
H            7.31313392438748        0.74116154257418        1.14036515940679
H           -1.93660901686766       -0.80007490203066       -2.20247585149330
H           -0.58924514684934        0.20383291252338       -2.75986873362298
H           -1.73262882000775        0.83596531203222       -1.56612033297570
H            0.78990875944288       -1.87623448616140       -2.10913259691185
H            0.93537641348446       -2.34129239329601       -0.41250765067611
H           -0.55721498934032       -2.70092982934028       -1.31247818694052
H           -1.47789221471168        0.23594200578300        0.70841435940080
H           -1.05009587720133       -1.06012085412674        2.54157862975120
H           -0.35975930106010       -2.35244943841797        1.52308982198074
H            0.51310063645267       -0.79955155769206        1.71016656355625
H           -4.72371807418728        2.96520318891310       -0.72227371053034
H           -4.85414640347767        2.88808382692569        1.03267519361185
H           -6.28058248782141        2.53233424491960        0.02391104722778
H           -0.35674672158120        2.03526108039693       -0.56075276591270

          :  Hamiltonian                  GFN1-xTB          :
         :: total energy             -82.955798115218 Eh    ::
         :: gradient norm              0.000662783011 Eh/a0 ::
         :: HOMO-LUMO gap              0.379859832647 eV    ::
         :: SCC energy               -83.730315469324 Eh    ::
         :: -> Gsolv                  -0.096275095740 Eh    ::
         :: repulsion energy           0.802419184899 Eh    ::

    * Orbital Energies and Occupations

         #    Occupation            Energy/Eh            Energy/eV
      -------------------------------------------------------------
         1        2.0000           -0.8955636             -24.3695
       ...           ...                  ...                  ...
        55        2.0000           -0.5137915             -13.9810
        56        2.0000           -0.5084016             -13.8343
        57        2.0000           -0.5035586             -13.7025
        58        2.0000           -0.4963647             -13.5068
        59        2.0000           -0.4837104             -13.1624
        60        2.0000           -0.4792649             -13.0415
        61        2.0000           -0.4753321             -12.9344
        62        2.0000           -0.4748572             -12.9215
        63        2.0000           -0.4607656             -12.5381
        64        2.0000           -0.4508871             -12.2693
        65        2.0000           -0.4391122             -11.9489
        66        2.0000           -0.3969107             -10.8005
        67        1.9987           -0.3860328             -10.5045 (HOMO)
        68        0.0013           -0.3720733             -10.1246 (LUMO)
        69                         -0.2855680              -7.7707
        70                         -0.2833665              -7.7108
        71                         -0.2701644              -7.3515
        72                         -0.2456994              -6.6858
        73                         -0.2121873              -5.7739
        74                         -0.1608647              -4.3774
        75                         -0.1521365              -4.1398
        76                         -0.1489685              -4.0536
        77                         -0.1392300              -3.7886
        78                         -0.1306763              -3.5559
       ...                                ...                  ...
       134                          0.7545346              20.5319
      -------------------------------------------------------------
                  HL-Gap            0.0139596 Eh            0.3799 eV

Wiberg/Mayer (AO) data.
largest (>0.10) Wiberg bond orders for each atom

     #   Z sym  total        # sym  WBO       # sym  WBO       # sym  WBO
 ---------------------------------------------------------------------------
     1   6 C    3.890 --    28 H    0.987    26 H    0.980    27 H    0.980
                             2 O    0.916
     2   8 O    2.175 --     3 C    1.073     1 C    0.916     4 O    0.117
     3   6 C    3.848 --     4 O    1.596     5 C    1.079     2 O    1.073
     4   8 O    1.861 --     3 C    1.596     2 O    0.117
     5   6 C    3.870 --    24 C    1.236     6 N    1.204     3 C    1.079
                            25 O    0.112
     6   7 N    3.042 --     7 C    1.575     5 C    1.204
     7   6 C    3.925 --     6 N    1.575    21 N    1.097     8 C    0.994
     8   6 C    3.878 --    10 C    1.008     9 C    1.003     7 C    0.994
                            11 N    0.794
     9   6 C    3.987 --     8 C    1.003    29 H    0.979    31 H    0.978
                            30 H    0.977
    10   6 C    3.984 --     8 C    1.008    34 H    0.980    33 H    0.977
                            32 H    0.976
    11   7 N    3.593 --    12 C    0.901    35 H    0.887    13 C    0.878
                             8 C    0.794
    12   6 C    3.886 --    36 H    0.982    37 H    0.980    38 H    0.975
                            11 N    0.901
    13   6 C    3.846 --    14 O    1.735    15 C    1.093    11 N    0.878
    14   8 O    2.003 --    13 C    1.735
    15   6 C    3.877 --    16 N    1.529    13 C    1.093    20 O    1.030
    16   7 N    2.980 --    15 C    1.529    17 N    1.264
    17   7 N    2.987 --    18 C    1.543    16 N    1.264
    18   6 C    3.841 --    17 N    1.543    20 O    1.086    19 C    1.040
    19   6 C    3.979 --    18 C    1.040    41 H    0.980    40 H    0.956
                            39 H    0.953
    20   8 O    2.322 --    18 C    1.086    15 C    1.030
    21   7 N    3.415 --    22 C    1.140     7 C    1.097    42 H    0.892
                            23 O    0.134
    22   6 C    3.868 --    23 O    1.610    21 N    1.140    24 C    0.958
    23   8 O    1.881 --    22 C    1.610    21 N    0.134
    24   6 C    3.927 --    25 O    1.559     5 C    1.236    22 C    0.958
    25   8 O    1.835 --    24 C    1.559     5 C    0.112
    26   1 H    1.011 --     1 C    0.980
    27   1 H    1.011 --     1 C    0.980
    28   1 H    1.014 --     1 C    0.987
    29   1 H    0.997 --     9 C    0.979
    30   1 H    0.996 --     9 C    0.977
    31   1 H    1.000 --     9 C    0.978
    32   1 H    1.001 --    10 C    0.976
    33   1 H    1.013 --    10 C    0.977
    34   1 H    1.003 --    10 C    0.980
    35   1 H    0.938 --    11 N    0.887
    36   1 H    0.991 --    12 C    0.982
    37   1 H    0.999 --    12 C    0.980
    38   1 H    1.003 --    12 C    0.975
    39   1 H    0.991 --    19 C    0.953
    40   1 H    0.991 --    19 C    0.956
    41   1 H    0.995 --    19 C    0.980
    42   1 H    0.938 --    21 N    0.892
 ---------------------------------------------------------------------------

           -------------------------------------------------
          | TOTAL ENERGY              -82.955798115218 Eh   |
          | GRADIENT NORM               0.000662783011 Eh/α |
          | HOMO-LUMO GAP               0.379859832647 eV   |
           -------------------------------------------------

 * finished run on 2023/06/21 at 18:00:17.710
