   * xtb version 6.5.1 (579679a) compiled by 'ehlert@majestix' on 2022-07-11
          program call               : /lustre/hpc/kemi/ree/PhD/git/ReactivityQM/dep/xtb-6.5.1/bin/xtb --gfn 1 /lustre/hpc/kemi/ree/PhD/git/ReactivityQM/calculations/R02oxygendeprot/reac01prodN07/conf15/R02oxygendeprot_reac01prodN07_conf15_gfn1.xyz --opt --vfukui --chrg 0 --uhf 0 --alpb DMSO

   ID    Z sym.   atoms
    1    6 C      1, 3, 5, 7-10, 12, 14, 17-19, 22, 24
    2    8 O      2, 4, 13, 20, 23, 25
    3    7 N      6, 11, 15, 16, 21
    4    1 H      26-42

      * Solvation model:               ALPB
        Solvent                        DMSO
        Solvent mass                       7.8130E+01 g/mol
          :  Hamiltonian                  GFN1-xTB          :
 * total energy  :   -82.9523549 Eh     change       -0.3968665E-09 Eh
 * total energy  :   -82.9688970 Eh     change       -0.1654211E-01 Eh
 * total energy  :   -82.9758551 Eh     change       -0.6958012E-02 Eh
 * total energy  :   -82.9770263 Eh     change       -0.1171210E-02 Eh
 * total energy  :   -82.9778240 Eh     change       -0.7976904E-03 Eh
 * total energy  :   -82.9781313 Eh     change       -0.3073940E-03 Eh
 * total energy  :   -82.9784377 Eh     change       -0.3063224E-03 Eh
 * total energy  :   -82.9786740 Eh     change       -0.2363169E-03 Eh
 * total energy  :   -82.9788528 Eh     change       -0.1788146E-03 Eh
 * total energy  :   -82.9789707 Eh     change       -0.1179276E-03 Eh
 * total energy  :   -82.9796639 Eh     change       -0.2535377E-04 Eh
 * total energy  :   -82.9796880 Eh     change       -0.2412495E-04 Eh
 * total energy  :   -82.9797073 Eh     change       -0.1930329E-04 Eh
 * total energy  :   -82.9797241 Eh     change       -0.1670981E-04 Eh
 * total energy  :   -82.9797380 Eh     change       -0.1397594E-04 Eh
 * total energy  :   -82.9797486 Eh     change       -0.1054805E-04 Eh
 * total energy  :   -82.9797569 Eh     change       -0.8303433E-05 Eh
 * total energy  :   -82.9797638 Eh     change       -0.6947552E-05 Eh
 * total energy  :   -82.9797688 Eh     change       -0.4998827E-05 Eh
   *** GEOMETRY OPTIMIZATION CONVERGED AFTER 40 ITERATIONS ***

 final structure:
================
42
 xtb: 6.5.1 (579679a)
C            6.54396170808873        2.42197681611419        0.19410660438272
O            5.51517296878639        1.62333642091315        0.76323064042002
C            4.54800261109077        1.20731249664776       -0.09045728235742
O            4.58259258245658        1.51952961364464       -1.27476388999252
C            3.51420534665194        0.38171655621182        0.51917129960187
N            2.56594679687044       -0.04574082264912       -0.39073505634357
C            1.59643821407242       -0.79907680248212       -0.02627793475653
C            0.58217164625166       -1.26882615608599       -1.05484655720849
C            0.94406262512857       -0.68702857169166       -2.42202555570443
C            0.52143816217377       -2.79766912948882       -1.13374467328701
N           -0.75627147567921       -0.72217563708082       -0.71514966656861
C           -1.56520494545482       -1.17890888191093        0.23999520457699
O           -1.35092501999088       -2.06977190819912        1.04120657462230
C           -2.88072914367676       -0.44928664641952        0.28423487132517
N           -3.83449811152172       -0.62586306169779        1.14823152783447
N           -4.79995326579718        0.23590376195011        0.77969258330537
C           -6.04403025871939        0.29278628656960        1.51759102739186
C           -4.42470854907498        0.90700422469344       -0.28806431335876
C           -5.15693711977163        1.93939877985293       -1.03878346073838
O           -3.21596664543342        0.49646140640088       -0.61815438802719
N            1.45251998974396       -1.21794304911617        1.27908188702656
C            2.29245562173344       -0.83959709835486        2.29489771921888
O            2.07556165694889       -1.22455772034036        3.44128669586849
C            3.45663067890587        0.04200841948218        1.89699955466838
O            4.25669416408332        0.40164064195859        2.77858809658470
H            6.12588055509138        3.32634223005088       -0.25887544825039
H            7.08762090293957        1.86260951943875       -0.57401615816190
H            7.22225290992886        2.69326589650942        1.00264049536828
H            0.21417819683609       -0.99832711610031       -3.16616531297568
H            1.93083409760569       -1.04139507818535       -2.71773835115551
H            0.96839670249223        0.40075814160624       -2.37383741798545
H            1.47063684707027       -3.16880387453539       -1.51861016437588
H            0.34240190480860       -3.24268020477101       -0.15761655600306
H           -0.27666304296591       -3.09943629876353       -1.80936299939429
H           -1.09827943165604        0.01501267224856       -1.30747936928441
H           -5.85883736134169       -0.07894024762034        2.52278101772380
H           -6.38933372731675        1.32318776382617        1.54231272109674
H           -6.78022805888449       -0.33307330247840        1.01424796051450
H           -4.55749556650352        2.26963886248583       -1.88449236519709
H           -5.37659257009569        2.78800472433469       -0.38871021081300
H           -6.10650757193495        1.53643086392839       -1.39325528385590
H            0.66310497605597       -1.79522349090157        1.53025493427252

          :  Hamiltonian                  GFN1-xTB          :
         :: total energy             -82.979768827367 Eh    ::
         :: gradient norm              0.000429702330 Eh/a0 ::
         :: HOMO-LUMO gap              0.404864009624 eV    ::
         :: SCC energy               -83.767249489737 Eh    ::
         :: -> Gsolv                  -0.136143129827 Eh    ::
         :: repulsion energy           0.812521430348 Eh    ::

    * Orbital Energies and Occupations

         #    Occupation            Energy/Eh            Energy/eV
      -------------------------------------------------------------
         1        2.0000           -0.9360693             -25.4717
       ...           ...                  ...                  ...
        55        2.0000           -0.5048577             -13.7379
        56        2.0000           -0.5006188             -13.6225
        57        2.0000           -0.4963322             -13.5059
        58        2.0000           -0.4895016             -13.3200
        59        2.0000           -0.4823091             -13.1243
        60        2.0000           -0.4682835             -12.7426
        61        2.0000           -0.4668882             -12.7047
        62        2.0000           -0.4585733             -12.4784
        63        2.0000           -0.4425511             -12.0424
        64        2.0000           -0.4390865             -11.9482
        65        2.0000           -0.4206659             -11.4469
        66        2.0000           -0.3819392             -10.3931
        67        1.9992           -0.3699883             -10.0679 (HOMO)
        68        0.0008           -0.3551099              -9.6630 (LUMO)
        69                         -0.3417666              -9.2999
        70                         -0.2727174              -7.4210
        71                         -0.2459964              -6.6939
        72                         -0.2362321              -6.4282
        73                         -0.1995918              -5.4312
        74                         -0.1838336              -5.0024
        75                         -0.1711792              -4.6580
        76                         -0.1291021              -3.5130
        77                         -0.1241487              -3.3783
        78                         -0.1226206              -3.3367
       ...                                ...                  ...
       134                          0.7537026              20.5093
      -------------------------------------------------------------
                  HL-Gap            0.0148785 Eh            0.4049 eV

Wiberg/Mayer (AO) data.
largest (>0.10) Wiberg bond orders for each atom

     #   Z sym  total        # sym  WBO       # sym  WBO       # sym  WBO
 ---------------------------------------------------------------------------
     1   6 C    3.897 --    28 H    0.987    27 H    0.980    26 H    0.980
                             2 O    0.923
     2   8 O    2.163 --     3 C    1.052     1 C    0.923     4 O    0.111
     3   6 C    3.850 --     4 O    1.579     5 C    1.109     2 O    1.052
     4   8 O    1.853 --     3 C    1.579     2 O    0.111
     5   6 C    3.909 --    24 C    1.267     6 N    1.158     3 C    1.109
                            25 O    0.128
     6   7 N    3.033 --     7 C    1.628     5 C    1.158
     7   6 C    3.933 --     6 N    1.628    21 N    1.100     8 C    0.967
     8   6 C    3.913 --     9 C    1.002    10 C    0.990     7 C    0.967
                            11 N    0.888
     9   6 C    3.991 --     8 C    1.002    29 H    0.986    31 H    0.982
                            30 H    0.981
    10   6 C    3.988 --     8 C    0.990    34 H    0.985    32 H    0.984
                            33 H    0.979
    11   7 N    3.395 --    12 C    1.319    35 H    0.892     8 C    0.888
                            13 O    0.201
    12   6 C    3.926 --    13 O    1.576    11 N    1.319    14 C    0.957
    13   8 O    1.928 --    12 C    1.576    11 N    0.201
    14   6 C    3.832 --    15 N    1.613    20 O    1.050    12 C    0.957
    15   7 N    2.976 --    14 C    1.613    16 N    1.149
    16   7 N    3.632 --    18 C    1.428    15 N    1.149    17 C    0.911
    17   6 C    3.887 --    37 H    0.976    36 H    0.976    38 H    0.964
                            16 N    0.911
    18   6 C    3.841 --    16 N    1.428    20 O    1.145    19 C    1.041
    19   6 C    3.961 --    18 C    1.041    39 H    0.972    41 H    0.947
                            40 H    0.944
    20   8 O    2.371 --    18 C    1.145    14 C    1.050
    21   7 N    3.429 --    22 C    1.163     7 C    1.100    42 H    0.881
                            23 O    0.136
    22   6 C    3.879 --    23 O    1.579    21 N    1.163    24 C    0.967
    23   8 O    1.858 --    22 C    1.579    21 N    0.136
    24   6 C    3.941 --    25 O    1.525     5 C    1.267    22 C    0.967
    25   8 O    1.827 --    24 C    1.525     5 C    0.128
    26   1 H    1.014 --     1 C    0.980
    27   1 H    1.013 --     1 C    0.980
    28   1 H    1.015 --     1 C    0.987
    29   1 H    0.999 --     9 C    0.986
    30   1 H    1.009 --     9 C    0.981
    31   1 H    1.009 --     9 C    0.982
    32   1 H    1.002 --    10 C    0.984
    33   1 H    1.009 --    10 C    0.979
    34   1 H    1.000 --    10 C    0.985
    35   1 H    0.932 --    11 N    0.892
    36   1 H    0.992 --    17 C    0.976
    37   1 H    0.990 --    17 C    0.976
    38   1 H    0.989 --    17 C    0.964
    39   1 H    0.986 --    19 C    0.972
    40   1 H    0.986 --    19 C    0.944
    41   1 H    0.986 --    19 C    0.947
    42   1 H    0.950 --    21 N    0.881
 ---------------------------------------------------------------------------

           -------------------------------------------------
          | TOTAL ENERGY              -82.979768827367 Eh   |
          | GRADIENT NORM               0.000429702330 Eh/α |
          | HOMO-LUMO GAP               0.404864009624 eV   |
           -------------------------------------------------

 * finished run on 2023/06/21 at 17:23:06.511
