   * xtb version 6.5.1 (579679a) compiled by 'ehlert@majestix' on 2022-07-11
          program call               : /lustre/hpc/kemi/ree/PhD/git/ReactivityQM/dep/xtb-6.5.1/bin/xtb --gfn 1 /lustre/hpc/kemi/ree/PhD/git/ReactivityQM/calculations/R02/reac01prodN15/conf08/R02_reac01prodN15_conf08_gfn1.xyz --opt --vfukui --chrg 1 --uhf 0 --alpb DMSO

   ID    Z sym.   atoms
    1    6 C      1, 3, 5, 7-10, 12, 14, 17, 18, 21, 23, 24
    2    8 O      2, 4, 13, 19, 22, 25
    3    7 N      6, 11, 15, 16, 20
    4    1 H      26-43

      * Solvation model:               ALPB
        Solvent                        DMSO
        Solvent mass                       7.8130E+01 g/mol
          :  Hamiltonian                  GFN1-xTB          :
 * total energy  :   -83.0965477 Eh     change       -0.3674927E-10 Eh
 * total energy  :   -83.1120205 Eh     change       -0.1547287E-01 Eh
 * total energy  :   -83.1199694 Eh     change       -0.7948846E-02 Eh
 * total energy  :   -83.1217221 Eh     change       -0.1752689E-02 Eh
 * total energy  :   -83.1230216 Eh     change       -0.1299490E-02 Eh
 * total energy  :   -83.1239655 Eh     change       -0.9439288E-03 Eh
 * total energy  :   -83.1248944 Eh     change       -0.9288831E-03 Eh
 * total energy  :   -83.1255900 Eh     change       -0.6956704E-03 Eh
 * total energy  :   -83.1259734 Eh     change       -0.3833258E-03 Eh
 * total energy  :   -83.1261679 Eh     change       -0.1945353E-03 Eh
 * total energy  :   -83.1296225 Eh     change       -0.1336248E-04 Eh
 * total energy  :   -83.1296361 Eh     change       -0.1357328E-04 Eh
 * total energy  :   -83.1296491 Eh     change       -0.1295944E-04 Eh
 * total energy  :   -83.1296598 Eh     change       -0.1076550E-04 Eh
 * total energy  :   -83.1296678 Eh     change       -0.7906548E-05 Eh
 * total energy  :   -83.1296746 Eh     change       -0.6871946E-05 Eh
 * total energy  :   -83.1296809 Eh     change       -0.6262793E-05 Eh
 * total energy  :   -83.1296860 Eh     change       -0.5107414E-05 Eh
 * total energy  :   -83.1296901 Eh     change       -0.4141107E-05 Eh
   *** GEOMETRY OPTIMIZATION CONVERGED AFTER 63 ITERATIONS ***

 final structure:
================
43
 xtb: 6.5.1 (579679a)
C           -5.89335816015008        2.02686376999893        0.38488203509452
O           -4.81303492786697        1.13886019911501        0.03309076794379
C           -3.58880768458984        1.57990780244055        0.24136884689930
O           -3.29327135013406        2.66189608406302        0.66444196885601
C           -2.54796516571345        0.52630455518529       -0.11051133824868
N           -1.41962652531475        0.63519118744769        0.50680995011291
C           -0.39698700062392       -0.21288752331001        0.20675289492122
C            0.86425124386888       -0.11166739497268        1.02749431282280
C            0.92444488320102       -1.36403408032973        1.92480882178878
C            0.86019038930798        1.16021372922678        1.87419353791880
N            2.05466214199305       -0.06546043846795        0.16834916344687
C            2.49309537913225       -1.03384710905671       -0.65507062112653
O            1.83285744200243       -2.02364818639886       -0.99444490383120
C            3.83987457283615       -0.79548684548531       -1.18039154944818
N            4.51054664105791       -1.51692118216292       -2.02641804586455
N            5.69647357523442       -0.89157124001892       -2.22001143737209
C            5.68602212426279        0.17868499150064       -1.48154170416973
C            6.74654453979159        1.19753935064824       -1.34324227168440
O            4.53743602703717        0.29612470246202       -0.79850725112442
N           -0.48746365965235       -1.10651395507174       -0.73709578229548
C           -1.61656426847817       -1.25943416630955       -1.59494908581662
O           -1.53343141691581       -1.90724175772471       -2.58914476874604
C           -2.87101656487003       -0.61940719061441       -1.02772140299248
C           -3.47491024792094       -1.71939757977422       -0.09460858924850
O           -3.72769935204229       -0.31497254952854       -2.07171372957143
H           -6.81032285159454        1.46510274239775        0.22784837206636
H           -5.86078780830930        2.90963785753745       -0.25563966398301
H           -5.79281892970120        2.32394066713421        1.42993716351217
H            0.94977405688791       -2.26742489531999        1.31894495569479
H            0.05254187976234       -1.39117404557547        2.57517672245089
H            1.82533465980811       -1.31132811912113        2.53293110827654
H            1.76909889548106        1.20361784703228        2.47045316867806
H            0.80523524636641        2.03925430630772        1.23458694115077
H           -0.00109705561834        1.15391753291051        2.53950520317424
H            2.70305831750784        0.67864214229694        0.38269600464540
H            6.33986496433468        2.18456391383473       -1.56155642131805
H            7.11695532586064        1.20782075570781       -0.31794560272623
H            7.56374224456224        0.97463173791058       -2.02545013858121
H            0.42867954817981       -1.65919840738635       -0.94163867608135
H           -2.77263505714300       -1.98836032507021        0.68973304758146
H           -3.70061648222241       -2.58861524273458       -0.70964099503456
H           -4.39065222047372       -1.33353189092921        0.34560043482348
H           -4.60761836912739       -0.06058874979727       -1.75904044260135

          :  Hamiltonian                  GFN1-xTB          :
         :: total energy             -83.129690135048 Eh    ::
         :: gradient norm              0.000344039809 Eh/a0 ::
         :: HOMO-LUMO gap              1.218376966294 eV    ::
         :: SCC energy               -83.912876651179 Eh    ::
         :: -> Gsolv                  -0.112580850455 Eh    ::
         :: repulsion energy           0.810263748502 Eh    ::

    * Orbital Energies and Occupations

         #    Occupation            Energy/Eh            Energy/eV
      -------------------------------------------------------------
         1        2.0000           -0.8867040             -24.1284
       ...           ...                  ...                  ...
        55        2.0000           -0.5385366             -14.6543
        56        2.0000           -0.5332033             -14.5092
        57        2.0000           -0.5293893             -14.4054
        58        2.0000           -0.5261251             -14.3166
        59        2.0000           -0.5230447             -14.2328
        60        2.0000           -0.5227374             -14.2244
        61        2.0000           -0.5149944             -14.0137
        62        2.0000           -0.5015169             -13.6470
        63        2.0000           -0.4946149             -13.4592
        64        2.0000           -0.4933774             -13.4255
        65        2.0000           -0.4841166             -13.1735
        66        2.0000           -0.4702308             -12.7956
        67        2.0000           -0.4695749             -12.7778 (HOMO)
        68                         -0.4248004             -11.5594 (LUMO)
        69                         -0.3490404              -9.4979
        70                         -0.3428008              -9.3281
        71                         -0.3018788              -8.2145
        72                         -0.2718882              -7.3985
        73                         -0.2656776              -7.2295
        74                         -0.2272445              -6.1836
        75                         -0.1552578              -4.2248
        76                         -0.1509909              -4.1087
        77                         -0.1483812              -4.0377
        78                         -0.1482991              -4.0354
       ...                                ...                  ...
       136                          0.7225607              19.6619
      -------------------------------------------------------------
                  HL-Gap            0.0447745 Eh            1.2184 eV

Wiberg/Mayer (AO) data.
largest (>0.10) Wiberg bond orders for each atom

     #   Z sym  total        # sym  WBO       # sym  WBO       # sym  WBO
 ---------------------------------------------------------------------------
     1   6 C    3.834 --    26 H    0.984    28 H    0.976    27 H    0.976
                             2 O    0.862
     2   8 O    2.242 --     3 C    1.150     1 C    0.862     4 O    0.154
     3   6 C    3.863 --     4 O    1.709     2 O    1.150     5 C    0.936
     4   8 O    1.982 --     3 C    1.709     2 O    0.154
     5   6 C    3.901 --     6 N    1.648    23 C    0.995     3 C    0.936
     6   7 N    3.053 --     5 C    1.648     7 C    1.186
     7   6 C    3.885 --    20 N    1.513     6 N    1.186     8 C    0.991
     8   6 C    3.928 --    10 C    0.997     7 C    0.991     9 C    0.945
                            11 N    0.922
     9   6 C    3.975 --    30 H    0.982    29 H    0.980    31 H    0.975
                             8 C    0.945
    10   6 C    3.981 --     8 C    0.997    33 H    0.982    32 H    0.981
                            34 H    0.980
    11   7 N    3.357 --    12 C    1.286     8 C    0.922    35 H    0.878
                            13 O    0.156
    12   6 C    3.905 --    13 O    1.486    11 N    1.286    14 C    1.030
    13   8 O    1.987 --    12 C    1.486    39 H    0.180    11 N    0.156
    14   6 C    3.881 --    15 N    1.596    19 O    1.045    12 C    1.030
    15   7 N    3.009 --    14 C    1.596    16 N    1.223
    16   7 N    2.984 --    17 C    1.585    15 N    1.223
    17   6 C    3.860 --    16 N    1.585    19 O    1.078    18 C    1.035
    18   6 C    3.983 --    17 C    1.035    38 H    0.981    36 H    0.961
                            37 H    0.957
    19   8 O    2.322 --    17 C    1.078    14 C    1.045
    20   7 N    3.500 --     7 C    1.513    21 C    0.984    39 H    0.673
    21   6 C    3.858 --    22 O    1.805    20 N    0.984    23 C    0.945
    22   8 O    2.048 --    21 C    1.805
    23   6 C    3.940 --    25 O    1.001     5 C    0.995    21 C    0.945
                            24 C    0.867
    24   6 C    3.965 --    40 H    0.984    42 H    0.975    41 H    0.970
                            23 C    0.867
    25   8 O    1.924 --    23 C    1.001    43 H    0.822
    26   1 H    1.004 --     1 C    0.984
    27   1 H    1.000 --     1 C    0.976
    28   1 H    1.000 --     1 C    0.976
    29   1 H    0.999 --     9 C    0.980
    30   1 H    0.995 --     9 C    0.982
    31   1 H    0.993 --     9 C    0.975
    32   1 H    0.993 --    10 C    0.981
    33   1 H    0.997 --    10 C    0.982
    34   1 H    1.002 --    10 C    0.980
    35   1 H    0.923 --    11 N    0.878
    36   1 H    0.995 --    18 C    0.961
    37   1 H    0.994 --    18 C    0.957
    38   1 H    0.997 --    18 C    0.981
    39   1 H    0.884 --    20 N    0.673    13 O    0.180
    40   1 H    0.993 --    24 C    0.984
    41   1 H    0.992 --    24 C    0.970
    42   1 H    0.999 --    24 C    0.975
    43   1 H    0.852 --    25 O    0.822
 ---------------------------------------------------------------------------

           -------------------------------------------------
          | TOTAL ENERGY              -83.129690135048 Eh   |
          | GRADIENT NORM               0.000344039809 Eh/α |
          | HOMO-LUMO GAP               1.218376966294 eV   |
           -------------------------------------------------

 * finished run on 2023/06/20 at 15:40:31.048
