   * xtb version 6.5.1 (579679a) compiled by 'ehlert@majestix' on 2022-07-11
          program call               : /lustre/hpc/kemi/ree/PhD/git/ReactivityQM/dep/xtb-6.5.1/bin/xtb --gfn 1 /lustre/hpc/kemi/ree/PhD/git/ReactivityQM/calculations/R03/reac02prodN10/conf16/R03_reac02prodN10_conf16_gfn1.xyz --opt --vfukui --chrg 1 --uhf 0 --alpb DMSO

   ID    Z sym.   atoms
    1    6 C      1, 3, 5, 6, 8, 11-16, 18, 20, 23, 24
    2    8 O      2, 4, 7, 9, 19, 25
    3    7 N      10, 17, 21, 22, 26
    4    1 H      27-46

      * Solvation model:               ALPB
        Solvent                        DMSO
        Solvent mass                       7.8130E+01 g/mol
          :  Hamiltonian                  GFN1-xTB          :
 * total energy  :   -86.2775862 Eh     change       -0.2022205E-10 Eh
 * total energy  :   -86.2952256 Eh     change       -0.1763946E-01 Eh
 * total energy  :   -86.3027609 Eh     change       -0.7535206E-02 Eh
 * total energy  :   -86.3041461 Eh     change       -0.1385279E-02 Eh
 * total energy  :   -86.3053078 Eh     change       -0.1161661E-02 Eh
 * total energy  :   -86.3059875 Eh     change       -0.6797230E-03 Eh
 * total energy  :   -86.3065802 Eh     change       -0.5926729E-03 Eh
 * total energy  :   -86.3070378 Eh     change       -0.4575994E-03 Eh
 * total energy  :   -86.3072868 Eh     change       -0.2489811E-03 Eh
 * total energy  :   -86.3074377 Eh     change       -0.1509660E-03 Eh
 * total energy  :   -86.3080749 Eh     change       -0.1195564E-04 Eh
 * total energy  :   -86.3080852 Eh     change       -0.1034747E-04 Eh
 * total energy  :   -86.3081015 Eh     change       -0.1623560E-04 Eh
 * total energy  :   -86.3081147 Eh     change       -0.1325280E-04 Eh
 * total energy  :   -86.3081071 Eh     change        0.7571446E-05 Eh
 * total energy  :   -86.3081179 Eh     change       -0.1074629E-04 Eh
 * total energy  :   -86.3081190 Eh     change       -0.1137849E-05 Eh
 * total energy  :   -86.3081296 Eh     change       -0.1059387E-04 Eh
 * total energy  :   -86.3081345 Eh     change       -0.4862093E-05 Eh
   *** GEOMETRY OPTIMIZATION CONVERGED AFTER 36 ITERATIONS ***

 final structure:
================
46
 xtb: 6.5.1 (579679a)
C           -1.48762127428806       -4.38224866525345       -0.79940726352934
O           -1.41871154237539       -2.94406849009040       -0.74747591294497
C           -2.37746839690900       -2.31582591644534       -0.12773262915916
O           -3.33301294454818       -2.84464309016181        0.40820257952713
C           -2.24158849563554       -0.81724585332798       -0.13979964486054
C           -3.31328168017239       -0.04267176021074        0.38095064116530
O           -4.35542144661927       -0.56242121730148        0.91662015202128
C           -3.27550299227628        1.43310901175199        0.23403643325389
O           -4.20122687489862        2.16198264513691        0.52124284711930
N           -2.12397174946965        1.90132633233227       -0.34707941682589
C           -2.20757544782517        3.32214040004453       -0.69860125135683
C           -0.96652994532119        1.10890521252389       -0.63113117330256
C           -0.30413545715546        1.48121822340228       -1.96251648868631
C            0.15057498978208        1.29684208229275        0.61938525224286
C           -0.41222601014524        0.63694004782735        1.87231680991014
C            0.38774606655249        2.77722231437764        0.87747141879134
N            1.32650292130055        0.60039797613207        0.22680480976460
C            2.41671078175778        1.12666205758996       -0.41951484842825
O            2.49814942459682        2.26274133160680       -0.83718861587257
C            3.51430686919096        0.15191010831076       -0.54506198395108
N            4.68117888946039        0.34739203313024       -1.07972127921131
N            5.37179938818747       -0.81156278902709       -0.94996905884053
C            4.58907582880921       -1.65224958363205       -0.34237220795019
C            4.88436072806439       -3.04997499046351        0.03392326905591
O            3.39651616605584       -1.10342517753259       -0.05994673305330
N           -1.16421430311480       -0.26435946632993       -0.61819139590406
H           -0.78548570235733       -4.69290843398884       -1.56923288580450
H           -1.20011933197220       -4.78797879159007        0.17127550526751
H           -2.50328338063207       -4.69446693047977       -1.04701454120153
H           -4.29913753832953       -1.57054269235762        0.91347491533121
H           -3.04118579950782        3.44469721646478       -1.39204503206664
H           -2.42106516217546        3.89219134342053        0.20561548124129
H           -1.28938678010806        3.66368977180101       -1.15757107815661
H            0.39110894132725        0.68771721463921       -2.22664714818936
H           -1.07853256443531        1.54194449937296       -2.72501321912689
H            0.23375909839353        2.42340680245806       -1.91164999004211
H            0.22317009840741        0.90761005890175        2.71519943371538
H           -0.42204599245235       -0.44657728410366        1.77985998392532
H           -1.42191195693643        0.98863461575596        2.07842931477516
H           -0.47005425025917        3.19750325472702        1.39771563450612
H            1.26302933362015        2.86603672844189        1.52122828515380
H            0.57748376054940        3.34836378653393       -0.02639374356710
H            1.35691636842228       -0.38375216232955        0.45014264298323
H            4.66038263461520       -3.20509451297092        1.08863533740577
H            4.25972108753910       -3.72961998123965       -0.54541327760295
H            5.93220064328313       -3.26894528014111       -0.15953492752358

          :  Hamiltonian                  GFN1-xTB          :
         :: total energy             -86.308134478730 Eh    ::
         :: gradient norm              0.000519623030 Eh/a0 ::
         :: HOMO-LUMO gap              1.090269100644 eV    ::
         :: SCC energy               -87.129353802635 Eh    ::
         :: -> Gsolv                  -0.112372933506 Eh    ::
         :: repulsion energy           0.852732713597 Eh    ::

    * Orbital Energies and Occupations

         #    Occupation            Energy/Eh            Energy/eV
      -------------------------------------------------------------
         1        2.0000           -0.8887884             -24.1852
       ...           ...                  ...                  ...
        58        2.0000           -0.5328180             -14.4987
        59        2.0000           -0.5288778             -14.3915
        60        2.0000           -0.5274059             -14.3514
        61        2.0000           -0.5214466             -14.1893
        62        2.0000           -0.5204817             -14.1630
        63        2.0000           -0.5099034             -13.8752
        64        2.0000           -0.4976299             -13.5412
        65        2.0000           -0.4959267             -13.4949
        66        2.0000           -0.4886460             -13.2967
        67        2.0000           -0.4871883             -13.2571
        68        2.0000           -0.4751582             -12.9297
        69        2.0000           -0.4670879             -12.7101
        70        2.0000           -0.4668730             -12.7043 (HOMO)
        71                         -0.4268064             -11.6140 (LUMO)
        72                         -0.3603393              -9.8053
        73                         -0.3343180              -9.0973
        74                         -0.2800167              -7.6196
        75                         -0.2699522              -7.3458
        76                         -0.2283634              -6.2141
        77                         -0.2198139              -5.9814
        78                         -0.1651385              -4.4936
        79                         -0.1584295              -4.3111
        80                         -0.1510847              -4.1112
        81                         -0.1482020              -4.0328
       ...                                ...                  ...
       144                          0.7138205              19.4240
      -------------------------------------------------------------
                  HL-Gap            0.0400667 Eh            1.0903 eV

Wiberg/Mayer (AO) data.
largest (>0.10) Wiberg bond orders for each atom

     #   Z sym  total        # sym  WBO       # sym  WBO       # sym  WBO
 ---------------------------------------------------------------------------
     1   6 C    3.837 --    27 H    0.984    29 H    0.978    28 H    0.975
                             2 O    0.865
     2   8 O    2.259 --     3 C    1.199     1 C    0.865     4 O    0.145
     3   6 C    3.857 --     4 O    1.613     2 O    1.199     5 C    0.968
     4   8 O    1.986 --     3 C    1.613     2 O    0.145
     5   6 C    3.961 --    26 N    1.540     6 C    1.206     3 C    0.968
     6   6 C    3.846 --     7 O    1.336     5 C    1.206     8 C    1.001
     7   8 O    2.235 --     6 C    1.336    30 H    0.699
     8   6 C    3.922 --     9 O    1.620    10 N    1.180     6 C    1.001
     9   8 O    1.938 --     8 C    1.620    10 N    0.184
    10   7 N    3.482 --     8 C    1.180    12 C    0.991    11 C    0.925
                             9 O    0.184
    11   6 C    3.907 --    33 H    0.982    32 H    0.966    31 H    0.961
                            10 N    0.925
    12   6 C    3.906 --    26 N    1.122    10 N    0.991    13 C    0.950
                            14 C    0.690
    13   6 C    3.964 --    34 H    0.980    35 H    0.976    36 H    0.974
                            12 C    0.950
    14   6 C    3.904 --    17 N    1.024    15 C    1.006    16 C    0.999
                            12 C    0.690
    15   6 C    3.985 --    14 C    1.006    38 H    0.980    39 H    0.977
                            37 H    0.966
    16   6 C    3.978 --    14 C    0.999    40 H    0.982    42 H    0.970
                            41 H    0.961
    17   7 N    3.373 --    18 C    1.164    14 C    1.024    43 H    0.884
                            19 O    0.139
    18   6 C    3.902 --    19 O    1.626    17 N    1.164    20 C    1.014
    19   8 O    1.934 --    18 C    1.626    17 N    0.139
    20   6 C    3.876 --    21 N    1.601    25 O    1.046    18 C    1.014
    21   7 N    3.004 --    20 C    1.601    22 N    1.220
    22   7 N    2.982 --    23 C    1.589    21 N    1.220
    23   6 C    3.858 --    22 N    1.589    25 O    1.076    24 C    1.035
    24   6 C    3.983 --    23 C    1.035    46 H    0.981    44 H    0.963
                            45 H    0.957
    25   8 O    2.320 --    23 C    1.076    20 C    1.046
    26   7 N    3.037 --     5 C    1.540    12 C    1.122
    27   1 H    1.005 --     1 C    0.984
    28   1 H    1.000 --     1 C    0.975
    29   1 H    1.001 --     1 C    0.978
    30   1 H    0.812 --     7 O    0.699
    31   1 H    0.995 --    11 C    0.961
    32   1 H    1.001 --    11 C    0.966
    33   1 H    1.000 --    11 C    0.982
    34   1 H    1.003 --    13 C    0.980
    35   1 H    0.993 --    13 C    0.976
    36   1 H    1.004 --    13 C    0.974
    37   1 H    0.993 --    15 C    0.966
    38   1 H    0.997 --    15 C    0.980
    39   1 H    0.997 --    15 C    0.977
    40   1 H    0.998 --    16 C    0.982
    41   1 H    0.989 --    16 C    0.961
    42   1 H    1.009 --    16 C    0.970
    43   1 H    0.934 --    17 N    0.884
    44   1 H    0.994 --    24 C    0.963
    45   1 H    0.995 --    24 C    0.957
    46   1 H    0.997 --    24 C    0.981
 ---------------------------------------------------------------------------

           -------------------------------------------------
          | TOTAL ENERGY              -86.308134478730 Eh   |
          | GRADIENT NORM               0.000519623030 Eh/α |
          | HOMO-LUMO GAP               1.090269100644 eV   |
           -------------------------------------------------

 * finished run on 2023/06/20 at 15:45:01.468
