   * xtb version 6.5.1 (579679a) compiled by 'ehlert@majestix' on 2022-07-11
          program call               : /lustre/hpc/kemi/ree/PhD/git/ReactivityQM/dep/xtb-6.5.1/bin/xtb --gfn 1 /lustre/hpc/kemi/ree/PhD/git/ReactivityQM/calculations/RaltegravirCLI/reac02prodE11/conf19/RaltegravirCLI_reac02prodE11_conf19_gfn1.xyz --opt --vfukui --chrg -1 --uhf 0 --alpb DMSO

   ID    Z sym.   atoms
    1    6 C      1, 3-6, 9, 10, 13-17, 19-21, 23, 24
    2    7 N      2, 7, 8, 12
    3    8 O      11, 22, 25
    4    9 F      18
    5    1 H      26-47

      * Solvation model:               ALPB
        Solvent                        DMSO
        Solvent mass                       7.8130E+01 g/mol
          :  Hamiltonian                  GFN1-xTB          :
 * total energy  :   -80.1936384 Eh     change       -0.1533351E-10 Eh
 * total energy  :   -80.2027817 Eh     change       -0.9143287E-02 Eh
 * total energy  :   -80.2057306 Eh     change       -0.2948880E-02 Eh
 * total energy  :   -80.2066183 Eh     change       -0.8876909E-03 Eh
 * total energy  :   -80.2078825 Eh     change       -0.1264175E-02 Eh
 * total energy  :   -80.2100613 Eh     change       -0.2178811E-02 Eh
 * total energy  :   -80.2021109 Eh     change        0.7950347E-02 Eh
 * total energy  :   -80.2130379 Eh     change       -0.1092701E-01 Eh
 * total energy  :   -80.2150835 Eh     change       -0.2045521E-02 Eh
 * total energy  :   -80.2181286 Eh     change       -0.3045171E-02 Eh
 * total energy  :   -80.2341132 Eh     change       -0.1978611E-04 Eh
 * total energy  :   -80.2341260 Eh     change       -0.1280802E-04 Eh
 * total energy  :   -80.2341362 Eh     change       -0.1023239E-04 Eh
 * total energy  :   -80.2341532 Eh     change       -0.1691705E-04 Eh
 * total energy  :   -80.2341659 Eh     change       -0.1279499E-04 Eh
 * total energy  :   -80.2341766 Eh     change       -0.1061956E-04 Eh
 * total energy  :   -80.2341859 Eh     change       -0.9336518E-05 Eh
 * total energy  :   -80.2341907 Eh     change       -0.4830915E-05 Eh
 * total energy  :   -80.2341936 Eh     change       -0.2888438E-05 Eh
   *** GEOMETRY OPTIMIZATION CONVERGED AFTER 44 ITERATIONS ***

 final structure:
================
47
 xtb: 6.5.1 (579679a)
C           -3.99960250231151       -1.24254128056566       -0.19040465556271
N           -2.61033598300787       -0.92127112875848        0.12100341906823
C           -2.18072476047857        0.35500632844738        0.49942838194282
C           -3.15967153329024        1.51060365718494        0.71971381561269
C           -3.77029256109304        1.96676894540346       -0.61359189236205
C           -2.40290314218309        2.69793601962588        1.34218341198278
N           -4.24552041868494        1.10659714564935        1.62123773056971
N           -0.94528477269441        0.60871864734565        0.72779422600430
C            0.03741918986342       -0.40492942615197        0.66666527786050
C            1.31567697196467       -0.04849851718569        1.24946592184434
O            1.59502487729403        1.07963667120461        1.68664151822536
N            2.23926212467780       -1.07699374749880        1.35442802445987
C            3.63274428538678       -0.74256814510875        1.60280255341503
C            4.32709854387482       -0.34290005164342        0.31652438692352
C            4.19350846407029        0.95301420037217       -0.18059998028979
C            4.78908080290942        1.31667066260269       -1.37992460064963
C            5.51542311249171        0.36104367406652       -2.06746090229754
F            6.09852225386607        0.70604061035304       -3.23249245891424
C            5.67299861267952       -0.93199399162998       -1.60521300899402
C            5.06889986430761       -1.27704027208816       -0.40313997267789
C           -0.25832060690063       -1.61150834280547        0.05106828250043
O            0.43885798742239       -2.65787600616776       -0.02919014877186
C           -1.63067892701824       -1.66775905301269       -0.67170592783906
C           -1.48827957505937       -1.07425434584279       -2.09355139407662
O           -2.01024340777106       -3.01700369103448       -0.76308050143987
H           -4.66202690143124       -0.74610165697871        0.51653378953375
H           -4.13609332752910       -2.32198163724772       -0.09244821694693
H           -4.27434995003214       -0.95048454262753       -1.21045956300154
H           -4.44809480616379        1.21740111925456       -1.01687815097365
H           -4.33417665948126        2.88783917164801       -0.46667043857241
H           -2.98057094007075        2.15480866039557       -1.34105484306152
H           -3.09799801690629        3.51303943381530        1.53941882310699
H           -1.62551199239716        3.04892744330845        0.66340846845108
H           -1.93519908195707        2.39753946212512        2.27974125789224
H           -3.88585711382392        1.00421388721780        2.56212553892412
H           -4.93977795459355        1.83936364584627        1.64335979278486
H            2.09469869143953       -1.88560519490779        0.75779550413070
H            4.12569035396034       -1.61535350550188        2.04109779858653
H            3.66761056769866        0.08114933282827        2.32424667571018
H            3.61848964661341        1.68530659179354        0.37669381545456
H            4.69823211286277        2.31989370545054       -1.77599971299791
H            6.25572143000548       -1.64750231617008       -2.16980417709186
H            5.18588298792470       -2.28506094350233       -0.02182485871325
H           -1.20086660016458       -3.52585021708458       -0.53676706702938
H           -2.41357681495168       -1.20266250158900       -2.65227706237493
H           -1.24579812661790       -0.01433724979265       -2.03539597952707
H           -0.68909140469791       -1.59944025103706       -2.61376290082001

          :  Hamiltonian                  GFN1-xTB          :
         :: total energy             -80.234193620793 Eh    ::
         :: gradient norm              0.000396554463 Eh/a0 ::
         :: HOMO-LUMO gap              1.933845251208 eV    ::
         :: SCC energy               -81.087525682909 Eh    ::
         :: -> Gsolv                  -0.103865377495 Eh    ::
         :: repulsion energy           0.884554229855 Eh    ::

    * Orbital Energies and Occupations

         #    Occupation            Energy/Eh            Energy/eV
      -------------------------------------------------------------
         1        2.0000           -0.8531475             -23.2153
       ...           ...                  ...                  ...
        56        2.0000           -0.4596773             -12.5085
        57        2.0000           -0.4537359             -12.3468
        58        2.0000           -0.4471058             -12.1664
        59        2.0000           -0.4402089             -11.9787
        60        2.0000           -0.4381887             -11.9237
        61        2.0000           -0.4246512             -11.5553
        62        2.0000           -0.4093981             -11.1403
        63        2.0000           -0.4028278             -10.9615
        64        2.0000           -0.3937839             -10.7154
        65        2.0000           -0.3874497             -10.5430
        66        2.0000           -0.3785848             -10.3018
        67        2.0000           -0.3668618              -9.9828
        68        2.0000           -0.3312493              -9.0138 (HOMO)
        69                         -0.2601818              -7.0799 (LUMO)
        70                         -0.2525145              -6.8713
        71                         -0.2257569              -6.1432
        72                         -0.2075594              -5.6480
        73                         -0.1320767              -3.5940
        74                         -0.1188445              -3.2339
        75                         -0.1113492              -3.0300
        76                         -0.1058919              -2.8815
        77                         -0.1023503              -2.7851
        78                         -0.1006061              -2.7376
        79                         -0.0958819              -2.6091
       ...                                ...                  ...
       144                          0.7026709              19.1206
      -------------------------------------------------------------
                  HL-Gap            0.0710675 Eh            1.9338 eV

Wiberg/Mayer (AO) data.
largest (>0.10) Wiberg bond orders for each atom

     #   Z sym  total        # sym  WBO       # sym  WBO       # sym  WBO
 ---------------------------------------------------------------------------
     1   6 C    3.964 --    27 H    0.983    28 H    0.978    26 H    0.976
                             2 N    0.960
     2   7 N    3.242 --     3 C    1.089     1 C    0.960    23 C    0.930
                             8 N    0.139
     3   6 C    3.941 --     8 N    1.674     2 N    1.089     4 C    0.970
     4   6 C    3.963 --     6 C    0.992     5 C    0.990     7 N    0.972
                             3 C    0.970
     5   6 C    3.995 --     4 C    0.990    31 H    0.986    30 H    0.984
                            29 H    0.981
     6   6 C    3.997 --     4 C    0.992    32 H    0.987    34 H    0.984
                            33 H    0.984
     7   7 N    2.989 --     4 C    0.972    36 H    0.949    35 H    0.947
     8   7 N    3.016 --     3 C    1.674     9 C    1.058     2 N    0.139
     9   6 C    3.900 --    21 C    1.391    10 C    1.140     8 N    1.058
                            22 O    0.125
    10   6 C    3.900 --    11 O    1.504     9 C    1.140    12 N    1.135
    11   8 O    1.814 --    10 C    1.504    12 N    0.115
    12   7 N    3.227 --    10 C    1.135    13 C    0.962    37 H    0.892
                            11 O    0.115
    13   6 C    3.969 --    14 C    0.994    38 H    0.979    39 H    0.971
                            12 N    0.962
    14   6 C    3.987 --    20 C    1.420    15 C    1.413    13 C    0.994
    15   6 C    3.992 --    16 C    1.446    14 C    1.413    40 H    0.968
                            19 C    0.111
    16   6 C    3.992 --    15 C    1.446    17 C    1.400    41 H    0.971
                            20 C    0.109
    17   6 C    3.856 --    19 C    1.405    16 C    1.400    18 F    0.915
    18   9 F    1.040 --    17 C    0.915
    19   6 C    3.992 --    20 C    1.439    17 C    1.405    42 H    0.970
                            15 C    0.111
    20   6 C    3.994 --    19 C    1.439    14 C    1.420    43 H    0.972
                            16 C    0.109
    21   6 C    3.934 --    22 O    1.441     9 C    1.391    23 C    0.914
    22   8 O    1.849 --    21 C    1.441     9 C    0.125
    23   6 C    3.883 --    24 C    0.966    25 O    0.965     2 N    0.930
                            21 C    0.914
    24   6 C    3.995 --    46 H    0.987    47 H    0.986    45 H    0.984
                            23 C    0.966
    25   8 O    1.899 --    23 C    0.965    44 H    0.822
    26   1 H    1.037 --     1 C    0.976
    27   1 H    1.022 --     1 C    0.983
    28   1 H    1.010 --     1 C    0.978
    29   1 H    1.009 --     5 C    0.981
    30   1 H    1.003 --     5 C    0.984
    31   1 H    1.008 --     5 C    0.986
    32   1 H    1.007 --     6 C    0.987
    33   1 H    1.020 --     6 C    0.984
    34   1 H    1.019 --     6 C    0.984
    35   1 H    0.965 --     7 N    0.947
    36   1 H    0.963 --     7 N    0.949
    37   1 H    0.969 --    12 N    0.892
    38   1 H    1.010 --    13 C    0.979
    39   1 H    1.020 --    13 C    0.971
    40   1 H    1.017 --    15 C    0.968
    41   1 H    1.000 --    16 C    0.971
    42   1 H    0.999 --    19 C    0.970
    43   1 H    1.001 --    20 C    0.972
    44   1 H    0.890 --    25 O    0.822
    45   1 H    1.008 --    24 C    0.984
    46   1 H    1.009 --    24 C    0.987
    47   1 H    1.009 --    24 C    0.986
 ---------------------------------------------------------------------------

           -------------------------------------------------
          | TOTAL ENERGY              -80.234193620793 Eh   |
          | GRADIENT NORM               0.000396554463 Eh/α |
          | HOMO-LUMO GAP               1.933845251208 eV   |
           -------------------------------------------------

 * finished run on 2023/06/20 at 15:13:51.255
