   * xtb version 6.5.1 (579679a) compiled by 'ehlert@majestix' on 2022-07-11
          program call               : /lustre/hpc/kemi/ree/PhD/git/ReactivityQM/dep/xtb-6.5.1/bin/xtb --gfn 1 /lustre/hpc/kemi/ree/PhD/git/ReactivityQM/calculations/R03/reac02prodE14/conf08/R03_reac02prodE14_conf08_gfn1.xyz --opt --vfukui --chrg -1 --uhf 0 --alpb DMSO

   ID    Z sym.   atoms
    1    6 C      1, 3, 5, 7-10, 12, 14, 17, 18, 21, 22, 24, 25
    2    8 O      2, 4, 13, 19, 23, 26
    3    7 N      6, 11, 15, 16, 20
    4    1 H      27-46

      * Solvation model:               ALPB
        Solvent                        DMSO
        Solvent mass                       7.8130E+01 g/mol
          :  Hamiltonian                  GFN1-xTB          :
 * total energy  :   -87.0454475 Eh     change       -0.4728520E-09 Eh
 * total energy  :   -87.0607419 Eh     change       -0.1529442E-01 Eh
 * total energy  :   -87.0669088 Eh     change       -0.6166834E-02 Eh
 * total energy  :   -87.0677230 Eh     change       -0.8142741E-03 Eh
 * total energy  :   -87.0680877 Eh     change       -0.3646563E-03 Eh
 * total energy  :   -87.0681958 Eh     change       -0.1081310E-03 Eh
 * total energy  :   -87.0682859 Eh     change       -0.9012554E-04 Eh
 * total energy  :   -87.0683467 Eh     change       -0.6074485E-04 Eh
 * total energy  :   -87.0683978 Eh     change       -0.5106846E-04 Eh
 * total energy  :   -87.0684416 Eh     change       -0.4382833E-04 Eh
 * total energy  :   -87.0689552 Eh     change       -0.2136078E-04 Eh
 * total energy  :   -87.0689727 Eh     change       -0.1744683E-04 Eh
 * total energy  :   -87.0689854 Eh     change       -0.1274902E-04 Eh
 * total energy  :   -87.0690047 Eh     change       -0.1929276E-04 Eh
 * total energy  :   -87.0690128 Eh     change       -0.8070837E-05 Eh
 * total energy  :   -87.0690148 Eh     change       -0.2025235E-05 Eh
 * total energy  :   -87.0690224 Eh     change       -0.7534131E-05 Eh
 * total energy  :   -87.0690266 Eh     change       -0.4215061E-05 Eh
 * total energy  :   -87.0690293 Eh     change       -0.2704234E-05 Eh
   *** GEOMETRY OPTIMIZATION CONVERGED AFTER 42 ITERATIONS ***

 final structure:
================
46
 xtb: 6.5.1 (579679a)
C           -5.66277160154800       -2.59259758305400        0.17346979029364
O           -4.73962075003733       -1.56297912013504        0.48745360303941
C           -3.58138141059179       -1.54743030640699       -0.30001140726496
O           -3.43374490786284       -2.41914857385444       -1.16609381747552
C           -2.69692829830721       -0.49880053285486        0.02264874622517
N           -1.51783659512978       -0.48190115305128       -0.65206462166394
C           -0.57062971263239        0.35786845495860       -0.44064472987557
C            0.67615389924211        0.23871395868032       -1.30374362064885
C            0.87953514660994        1.47273903050461       -2.19730528450222
C            0.54179866088298       -1.00683588095033       -2.19459596305125
N            1.83919605520278        0.02924485730514       -0.41689528813548
C            3.12067733939111        0.02512341485751       -0.82280374446426
O            3.52683700599478        0.29304128345594       -1.94136941588876
C            4.02536380423895       -0.33386776659069        0.30692209722835
N            3.65396222643907       -0.66985787663122        1.50510756405769
N            4.79223762804743       -0.91064524537729        2.21758981601095
C            5.78422773360637       -0.70485805344269        1.40711277663286
C            7.22925841442204       -0.82302211259628        1.70148474172448
O            5.36585642042926       -0.33994099934558        0.18571004322514
N           -0.69359364817976        1.36437869552483        0.56438626253476
C            0.33599165653044        2.37617856817371        0.79421134019018
C           -1.81986121306098        1.50199341652932        1.30919763988999
O           -1.92216579985690        2.41322649875861        2.13444803344080
C           -2.99360086467904        0.52402110649804        1.09887222655654
C           -4.21842308517714        1.40092021488799        0.75220863231600
O           -3.20724814727171       -0.09586889138573        2.37530777216115
H           -6.00942121708281       -2.50667629720478       -0.86304229505706
H           -6.51104067606502       -2.48272040628395        0.84938751741780
H           -5.21127226163086       -3.58209172481439        0.31126865708852
H           -0.08348641757378        1.77236372150445       -2.60912840729952
H            1.29984813626647        2.30721483926891       -1.64219858701929
H            1.55272605130691        1.24113002153704       -3.02100683141055
H            0.39051075302127       -1.89423673402930       -1.58115698676283
H           -0.31357401729696       -0.89076345964104       -2.85828124660784
H            1.44386136717431       -1.13292696902762       -2.79090884921503
H            1.65023692317831       -0.32923472735521        0.50914720978029
H            7.69950528150066        0.15992134163922        1.65779471522002
H            7.36660025945776       -1.24435698566959        2.69469421889246
H            7.71105275070753       -1.46064403346514        0.96092093175575
H            0.30120607469033        2.67873906125641        1.84211453850403
H            1.32299668441696        1.97834254283853        0.57975361078852
H            0.14990098723232        3.25347535160200        0.17113841914649
H           -5.11204666683582        0.78757969378380        0.66945279799962
H           -4.36938525562928        2.14176196796745        1.53711052290122
H           -4.04661500700603        1.90981289508593       -0.19522764110642
H           -3.94489170652695       -0.71638650345550        2.28515451243026

          :  Hamiltonian                  GFN1-xTB          :
         :: total energy             -87.069029285729 Eh    ::
         :: gradient norm              0.000777002326 Eh/a0 ::
         :: HOMO-LUMO gap              0.760680913330 eV    ::
         :: SCC energy               -87.866821864251 Eh    ::
         :: -> Gsolv                  -0.114326544228 Eh    ::
         :: repulsion energy           0.827186073773 Eh    ::

    * Orbital Energies and Occupations

         #    Occupation            Energy/Eh            Energy/eV
      -------------------------------------------------------------
         1        2.0000           -0.8599197             -23.3996
       ...           ...                  ...                  ...
        59        2.0000           -0.4709414             -12.8150
        60        2.0000           -0.4688103             -12.7570
        61        2.0000           -0.4577723             -12.4566
        62        2.0000           -0.4547965             -12.3756
        63        2.0000           -0.4469266             -12.1615
        64        2.0000           -0.4462404             -12.1428
        65        2.0000           -0.4446499             -12.0995
        66        2.0000           -0.4354141             -11.8482
        67        2.0000           -0.4233075             -11.5188
        68        2.0000           -0.4178942             -11.3715
        69        2.0000           -0.4061866             -11.0529
        70        2.0000           -0.3847600             -10.4699
        71        2.0000           -0.3315695              -9.0225 (HOMO)
        72        0.0000           -0.3036149              -8.2618 (LUMO)
        73                         -0.2538061              -6.9064
        74                         -0.2452310              -6.6731
        75                         -0.2032378              -5.5304
        76                         -0.1923887              -5.2352
        77                         -0.1447542              -3.9390
        78                         -0.1413895              -3.8474
        79                         -0.1254003              -3.4123
        80                         -0.1129081              -3.0724
        81                         -0.1103291              -3.0022
        82                         -0.1043169              -2.8386
       ...                                ...                  ...
       144                          0.7325846              19.9346
      -------------------------------------------------------------
                  HL-Gap            0.0279545 Eh            0.7607 eV

Wiberg/Mayer (AO) data.
largest (>0.10) Wiberg bond orders for each atom

     #   Z sym  total        # sym  WBO       # sym  WBO       # sym  WBO
 ---------------------------------------------------------------------------
     1   6 C    3.907 --    28 H    0.987    27 H    0.981    29 H    0.981
                             2 O    0.935
     2   8 O    2.104 --     3 C    0.946     1 C    0.935
     3   6 C    3.863 --     4 O    1.495     5 C    1.290     2 O    0.946
     4   8 O    1.798 --     3 C    1.495     5 C    0.108
     5   6 C    3.860 --     3 C    1.290     6 N    1.219    24 C    0.976
                             7 C    0.114     4 O    0.108
     6   7 N    3.064 --     7 C    1.608     5 C    1.219
     7   6 C    3.897 --     6 N    1.608     8 C    0.980    20 N    0.978
                             5 C    0.114
     8   6 C    3.924 --    10 C    0.990     9 C    0.989     7 C    0.980
                            11 N    0.901
     9   6 C    3.990 --     8 C    0.989    30 H    0.986    31 H    0.981
                            32 H    0.981
    10   6 C    3.994 --     8 C    0.990    35 H    0.985    33 H    0.985
                            34 H    0.984
    11   7 N    3.365 --    12 C    1.271     8 C    0.901    36 H    0.900
                            13 O    0.182
    12   6 C    3.921 --    13 O    1.584    11 N    1.271    14 C    0.981
    13   8 O    1.900 --    12 C    1.584    11 N    0.182
    14   6 C    3.871 --    15 N    1.615    19 O    1.063    12 C    0.981
    15   7 N    3.015 --    14 C    1.615    16 N    1.194
    16   7 N    2.980 --    17 C    1.611    15 N    1.194
    17   6 C    3.872 --    16 N    1.611    19 O    1.081    18 C    1.031
    18   6 C    3.987 --    17 C    1.031    38 H    0.983    39 H    0.967
                            37 H    0.961
    19   8 O    2.328 --    17 C    1.081    14 C    1.063
    20   7 N    3.430 --    22 C    1.243     7 C    0.978    21 C    0.946
                            23 O    0.147
    21   6 C    3.950 --    42 H    0.981    41 H    0.980    40 H    0.978
                            20 N    0.946
    22   6 C    3.889 --    23 O    1.561    20 N    1.243    24 C    0.935
    23   8 O    1.861 --    22 C    1.561    20 N    0.147
    24   6 C    3.911 --     5 C    0.976    25 C    0.972    22 C    0.935
                            26 O    0.927
    25   6 C    3.995 --    45 H    0.987    44 H    0.985    43 H    0.983
                            24 C    0.972
    26   8 O    1.879 --    24 C    0.927    46 H    0.859
    27   1 H    1.017 --     1 C    0.981
    28   1 H    1.017 --     1 C    0.987
    29   1 H    1.018 --     1 C    0.981
    30   1 H    1.007 --     9 C    0.986
    31   1 H    1.006 --     9 C    0.981
    32   1 H    1.015 --     9 C    0.981
    33   1 H    1.017 --    10 C    0.985
    34   1 H    1.015 --    10 C    0.984
    35   1 H    1.007 --    10 C    0.985
    36   1 H    0.962 --    11 N    0.900
    37   1 H    0.997 --    18 C    0.961
    38   1 H    0.999 --    18 C    0.983
    39   1 H    0.997 --    18 C    0.967
    40   1 H    1.016 --    21 C    0.978
    41   1 H    1.013 --    21 C    0.980
    42   1 H    1.007 --    21 C    0.981
    43   1 H    1.017 --    25 C    0.983
    44   1 H    1.016 --    25 C    0.985
    45   1 H    1.011 --    25 C    0.987
    46   1 H    0.900 --    26 O    0.859
 ---------------------------------------------------------------------------

           -------------------------------------------------
          | TOTAL ENERGY              -87.069029285729 Eh   |
          | GRADIENT NORM               0.000777002326 Eh/α |
          | HOMO-LUMO GAP               0.760680913330 eV   |
           -------------------------------------------------

 * finished run on 2023/06/20 at 15:34:46.224
