   * xtb version 6.5.1 (579679a) compiled by 'ehlert@majestix' on 2022-07-11
          program call               : /lustre/hpc/kemi/ree/PhD/git/ReactivityQM/dep/xtb-6.5.1/bin/xtb --gfn 1 /lustre/hpc/kemi/ree/PhD/git/ReactivityQM/calculations/R02oxygendeprot/reac01prodE06/conf02/R02oxygendeprot_reac01prodE06_conf02_gfn1.xyz --opt --vfukui --chrg -2 --uhf 0 --alpb DMSO

   ID    Z sym.   atoms
    1    6 C      1, 3, 5, 6, 8, 11-15, 17, 19, 22, 23
    2    8 O      2, 4, 7, 9, 18, 24
    3    7 N      10, 16, 20, 21, 25
    4    1 H      26-42

      * Solvation model:               ALPB
        Solvent                        DMSO
        Solvent mass                       7.8130E+01 g/mol
          :  Hamiltonian                  GFN1-xTB          :
 * total energy  :   -83.6057420 Eh     change       -0.1794731E-08 Eh
 * total energy  :   -83.6167736 Eh     change       -0.1103165E-01 Eh
 * total energy  :   -83.6204404 Eh     change       -0.3666781E-02 Eh
 * total energy  :   -83.6211384 Eh     change       -0.6979928E-03 Eh
 * total energy  :   -83.6217041 Eh     change       -0.5657464E-03 Eh
 * total energy  :   -83.6220820 Eh     change       -0.3778950E-03 Eh
 * total energy  :   -83.6224246 Eh     change       -0.3425157E-03 Eh
 * total energy  :   -83.6227059 Eh     change       -0.2813264E-03 Eh
 * total energy  :   -83.6229442 Eh     change       -0.2382841E-03 Eh
 * total energy  :   -83.6231572 Eh     change       -0.2130416E-03 Eh
 * total energy  :   -83.6239218 Eh     change       -0.2146235E-04 Eh
 * total energy  :   -83.6239330 Eh     change       -0.1122417E-04 Eh
 * total energy  :   -83.6239535 Eh     change       -0.2055501E-04 Eh
 * total energy  :   -83.6239637 Eh     change       -0.1012897E-04 Eh
 * total energy  :   -83.6239744 Eh     change       -0.1068922E-04 Eh
 * total energy  :   -83.6239863 Eh     change       -0.1198860E-04 Eh
 * total energy  :   -83.6239971 Eh     change       -0.1076043E-04 Eh
 * total energy  :   -83.6240063 Eh     change       -0.9171500E-05 Eh
 * total energy  :   -83.6240104 Eh     change       -0.4133752E-05 Eh
   *** GEOMETRY OPTIMIZATION CONVERGED AFTER 33 ITERATIONS ***

 final structure:
================
42
 xtb: 6.5.1 (579679a)
C            3.48260912590854       -2.43832365322283       -3.24264611738483
O            3.45458640782160       -1.31521884635292       -2.38261884615454
C            2.27948066439308       -1.12241476996720       -1.70215262154053
O            1.35077044996850       -1.91566154672221       -1.87177702960443
C            2.25288835853280        0.02446309885867       -0.80406306296201
C            3.40235648137609        0.83725944005469       -0.56683327830115
O            4.49757783661941        0.78556924574425       -1.21039113688561
C            3.29031961809655        1.77570846706251        0.58572007942777
O            4.22875938216873        2.45419454591345        1.03289743777916
N            2.08459745362999        1.79526284961653        1.25149824850971
C            0.85234384291453        1.34348303593362        0.61862737767753
C            0.28846304150186        2.50023066282675       -0.25416565089477
C           -0.16877752586660        0.93753215100575        1.73773294206911
C           -0.65424389236010        2.13310077528912        2.56516398609600
C            0.49488916415807       -0.10795505978167        2.64819728555792
N           -1.29429451038440        0.33227444551534        1.02747851345848
C           -2.39249411908709       -0.18392442402789        1.64856509608841
O           -2.63441193416523       -0.05752112772625        2.86345035472139
C           -3.31291246235535       -0.86694830907101        0.75522830839442
N           -4.43728799567914       -1.48163444539871        1.08571072678370
N           -4.97057606231389       -1.96994918869611       -0.07492194559396
C           -4.16703409494411       -1.63966246678727       -1.03408396451364
C           -4.33051932040386       -1.93905028868652       -2.47730829157170
O           -3.09358709582577       -0.94501069408633       -0.59778838174855
N            1.04643878181980        0.17965271531924       -0.18918005282305
H            3.32709527452949       -3.36821237221042       -2.68353775930868
H            4.46400426948323       -2.45992699202138       -3.71705933042297
H            2.70684322234608       -2.36383482965870       -4.01322931155638
H            1.98766989294894        2.55476091859231        1.90734797156093
H            0.25341674642592        3.43014209264479        0.30974779128442
H           -0.71283127764087        2.25063595163713       -0.59985702111731
H            0.93508747822699        2.64096897291097       -1.11972651603539
H            0.19372253659765        2.70613115329250        2.93713578498583
H           -1.23469305283115        1.79189368450092        3.42177267891270
H           -1.28420160759370        2.78764941825636        1.96450918686002
H            1.34783731159843        0.33854523930848        3.15864684653211
H            0.84364016809072       -0.94754361665629        2.04430764234164
H           -0.21043474790329       -0.47077245811844        3.39447637493642
H           -1.05360638882288       -0.02942592563026        0.10594654224814
H           -5.31878326704210       -2.36048087499479       -2.64715982925028
H           -3.57707551339063       -2.65535554784733       -2.80920513604943
H           -4.21762964055778       -1.02909142664082       -3.06645789251534

          :  Hamiltonian                  GFN1-xTB          :
         :: total energy             -83.624010408682 Eh    ::
         :: gradient norm              0.000875332351 Eh/a0 ::
         :: HOMO-LUMO gap              0.082305164431 eV    ::
         :: SCC energy               -84.344706210480 Eh    ::
         :: -> Gsolv                  -0.268467954808 Eh    ::
         :: repulsion energy           0.747904128184 Eh    ::

    * Orbital Energies and Occupations

         #    Occupation            Energy/Eh            Energy/eV
      -------------------------------------------------------------
         1        2.0000           -0.8177716             -22.2527
       ...           ...                  ...                  ...
        56        2.0000           -0.4407388             -11.9931
        57        2.0000           -0.4373113             -11.8998
        58        2.0000           -0.4195940             -11.4177
        59        2.0000           -0.4158598             -11.3161
        60        2.0000           -0.4134610             -11.2508
        61        2.0000           -0.4075050             -11.0888
        62        2.0000           -0.4016993             -10.9308
        63        2.0000           -0.3964286             -10.7874
        64        2.0000           -0.3907135             -10.6319
        65        2.0000           -0.3785912             -10.3020
        66        2.0000           -0.3654207              -9.9436
        67        2.0000           -0.3345099              -9.1025
        68        1.6618           -0.2745505              -7.4709 (HOMO)
        69        0.3382           -0.2715258              -7.3886 (LUMO)
        70                         -0.2367737              -6.4429
        71                         -0.2213642              -6.0236
        72                         -0.1637907              -4.4570
        73                         -0.1515229              -4.1231
        74                         -0.1279362              -3.4813
        75                         -0.1109445              -3.0190
        76                         -0.1047881              -2.8514
        77                         -0.0959223              -2.6102
        78                         -0.0842732              -2.2932
        79                         -0.0806894              -2.1957
       ...                                ...                  ...
       134                          0.7378126              20.0769
      -------------------------------------------------------------
                  HL-Gap            0.0030247 Eh            0.0823 eV

Wiberg/Mayer (AO) data.
largest (>0.10) Wiberg bond orders for each atom

     #   Z sym  total        # sym  WBO       # sym  WBO       # sym  WBO
 ---------------------------------------------------------------------------
     1   6 C    3.912 --    27 H    0.987    26 H    0.980    28 H    0.980
                             2 O    0.939
     2   8 O    2.135 --     3 C    1.015     1 C    0.939     4 O    0.101
     3   6 C    3.815 --     4 O    1.549     5 C    1.114     2 O    1.015
     4   8 O    1.817 --     3 C    1.549     2 O    0.101
     5   6 C    3.909 --    25 N    1.273     6 C    1.232     3 C    1.114
     6   6 C    3.871 --     7 O    1.407     5 C    1.232     8 C    1.013
     7   8 O    1.652 --     6 C    1.407
     8   6 C    3.859 --     9 O    1.526    10 N    1.153     6 C    1.013
     9   8 O    1.790 --     8 C    1.526    10 N    0.127
    10   7 N    3.247 --     8 C    1.153    11 C    0.929    29 H    0.917
                             9 O    0.127
    11   6 C    3.941 --    25 N    1.027    12 C    0.961    13 C    0.944
                            10 N    0.929
    12   6 C    3.975 --    30 H    0.986    32 H    0.985    31 H    0.985
                            11 C    0.961
    13   6 C    3.934 --    14 C    0.999    15 C    0.991    11 C    0.944
                            16 N    0.937
    14   6 C    3.994 --    13 C    0.999    35 H    0.985    33 H    0.983
                            34 H    0.980
    15   6 C    3.992 --    13 C    0.991    36 H    0.985    38 H    0.985
                            37 H    0.982
    16   7 N    3.268 --    17 C    1.198    13 C    0.937    39 H    0.890
                            18 O    0.143
    17   6 C    3.824 --    18 O    1.467    16 N    1.198    19 C    1.079
    18   8 O    1.744 --    17 C    1.467    16 N    0.143
    19   6 C    3.735 --    20 N    1.477    17 C    1.079    24 O    0.996
    20   7 N    2.808 --    19 C    1.477    21 N    1.188
    21   7 N    2.979 --    22 C    1.625    20 N    1.188
    22   6 C    3.831 --    21 N    1.625    24 O    1.056    23 C    1.026
    23   6 C    3.993 --    22 C    1.026    40 H    0.985    42 H    0.972
                            41 H    0.967
    24   8 O    2.226 --    22 C    1.056    19 C    0.996
    25   7 N    2.663 --     5 C    1.273    11 C    1.027
    26   1 H    1.018 --     1 C    0.980
    27   1 H    1.018 --     1 C    0.987
    28   1 H    1.018 --     1 C    0.980
    29   1 H    0.970 --    10 N    0.917
    30   1 H    1.007 --    12 C    0.986
    31   1 H    1.013 --    12 C    0.985
    32   1 H    1.011 --    12 C    0.985
    33   1 H    1.005 --    14 C    0.983
    34   1 H    1.021 --    14 C    0.980
    35   1 H    1.008 --    14 C    0.985
    36   1 H    1.014 --    15 C    0.985
    37   1 H    1.023 --    15 C    0.982
    38   1 H    1.015 --    15 C    0.985
    39   1 H    0.988 --    16 N    0.890
    40   1 H    1.003 --    23 C    0.985
    41   1 H    0.999 --    23 C    0.967
    42   1 H    1.000 --    23 C    0.972
 ---------------------------------------------------------------------------

           -------------------------------------------------
          | TOTAL ENERGY              -83.624010408682 Eh   |
          | GRADIENT NORM               0.000875332351 Eh/α |
          | HOMO-LUMO GAP               0.082305164431 eV   |
           -------------------------------------------------

 * finished run on 2023/06/21 at 17:07:59.412
