   * xtb version 6.5.1 (579679a) compiled by 'ehlert@majestix' on 2022-07-11
          program call               : /lustre/hpc/kemi/ree/PhD/git/ReactivityQM/dep/xtb-6.5.1/bin/xtb --gfn 1 /lustre/hpc/kemi/ree/PhD/git/ReactivityQM/calculations/RaltegravirCLI/reac01prodN07/conf10/RaltegravirCLI_reac01prodN07_conf10_gfn1.xyz --opt --vfukui --chrg 1 --uhf 0 --alpb DMSO

   ID    Z sym.   atoms
    1    6 C      1, 3, 5, 8, 9
    2    8 O      2, 10
    3   17 Cl     4
    4    7 N      6, 7
    5    1 H      11-16

      * Solvation model:               ALPB
        Solvent                        DMSO
        Solvent mass                       7.8130E+01 g/mol
          :  Hamiltonian                  GFN1-xTB          :
 * total energy  :   -33.4078247 Eh     change       -0.3574030E-11 Eh
 * total energy  :   -33.4152327 Eh     change       -0.7407964E-02 Eh
 * total energy  :   -33.4175279 Eh     change       -0.2295229E-02 Eh
 * total energy  :   -33.4178659 Eh     change       -0.3379725E-03 Eh
 * total energy  :   -33.4180034 Eh     change       -0.1375209E-03 Eh
 * total energy  :   -33.4180163 Eh     change       -0.1289699E-04 Eh
 * total energy  :   -33.4180218 Eh     change       -0.5445391E-05 Eh
 * total energy  :   -33.4180235 Eh     change       -0.1708571E-05 Eh
   *** GEOMETRY OPTIMIZATION CONVERGED AFTER 8 ITERATIONS ***

 final structure:
================
16
 xtb: 6.5.1 (579679a)
C           -2.37951833320145        0.67893682340876        0.01227725364064
O           -2.47110842039359       -0.65309154926755        0.54957733094678
C           -1.48447558917777       -1.41606020994448        0.83069600926027
Cl          -1.87341316257660       -2.91591926347259        1.44281698031117
C           -0.11528774635469       -1.07703069955783        0.65871284108090
N            0.92005247658296       -1.84647263695997        0.93986162279531
N            2.01251520770799       -1.16790970253364        0.63278360067509
C            1.62817354879716        0.00716584446562        0.16883711916818
C            2.48517330860406        1.11055846987439       -0.28849687438053
O            0.30540424827270        0.11128151807546        0.16541600323097
H           -1.87174991782029        0.64932465586727       -0.95134140126194
H           -3.40859184853681        1.01508329074434       -0.09685506810166
H           -1.82995076807238        1.31493483752184        0.70572093446026
H            2.05358843570242        1.57587594293580       -1.17337552482415
H            2.54199224875007        1.87111077155787        0.49342699032729
H            3.48719731171619        0.74220990728472       -0.49817581732858

          :  Hamiltonian                  GFN1-xTB          :
         :: total energy             -33.418023486996 Eh    ::
         :: gradient norm              0.000507543901 Eh/a0 ::
         :: HOMO-LUMO gap              2.420136303121 eV    ::
         :: SCC energy               -33.695249732668 Eh    ::
         :: -> Gsolv                  -0.081482672432 Eh    ::
         :: repulsion energy           0.284380673812 Eh    ::

    * Orbital Energies and Occupations

         #    Occupation            Energy/Eh            Energy/eV
      -------------------------------------------------------------
         1        2.0000           -1.0169566             -27.6728
       ...           ...                  ...                  ...
        15        2.0000           -0.6327021             -17.2167
        16        2.0000           -0.5992618             -16.3067
        17        2.0000           -0.5850540             -15.9201
        18        2.0000           -0.5814241             -15.8214
        19        2.0000           -0.5737816             -15.6134
        20        2.0000           -0.5614434             -15.2777
        21        2.0000           -0.5580944             -15.1865
        22        2.0000           -0.5512270             -14.9997
        23        2.0000           -0.5372367             -14.6190
        24        2.0000           -0.5337358             -14.5237
        25        2.0000           -0.5286947             -14.3865
        26        2.0000           -0.5039900             -13.7143
        27        2.0000           -0.5008672             -13.6293 (HOMO)
        28                         -0.4119288             -11.2092 (LUMO)
        29                         -0.3063042              -8.3350
        30                         -0.2837801              -7.7221
        31                         -0.2663605              -7.2480
        32                         -0.1676491              -4.5620
        33                         -0.1618953              -4.4054
        34                         -0.1413876              -3.8474
        35                         -0.1410779              -3.8389
        36                         -0.1392588              -3.7894
        37                         -0.1062061              -2.8900
        38                         -0.0979939              -2.6665
       ...                                ...                  ...
        57                          0.5024088              13.6712
      -------------------------------------------------------------
                  HL-Gap            0.0889384 Eh            2.4201 eV

Wiberg/Mayer (AO) data.
largest (>0.10) Wiberg bond orders for each atom

     #   Z sym  total        # sym  WBO       # sym  WBO       # sym  WBO
 ---------------------------------------------------------------------------
     1   6 C    3.804 --    12 H    0.978    11 H    0.965    13 H    0.965
                             2 O    0.836
     2   8 O    2.350 --     3 C    1.311     1 C    0.836
     3   6 C    3.887 --     2 O    1.311     4 Cl   1.217     5 C    1.182
     4  17 Cl   1.441 --     3 C    1.217
     5   6 C    3.888 --     6 N    1.456     3 C    1.182    10 O    1.033
     6   7 N    3.022 --     5 C    1.456     7 N    1.347
     7   7 N    3.000 --     8 C    1.455     6 N    1.347
     8   6 C    3.843 --     7 N    1.455    10 O    1.125     9 C    1.050
     9   6 C    3.971 --     8 C    1.050    16 H    0.974    14 H    0.959
                            15 H    0.935
    10   8 O    2.358 --     8 C    1.125     5 C    1.033
    11   1 H    0.998 --     1 C    0.965
    12   1 H    0.999 --     1 C    0.978
    13   1 H    0.998 --     1 C    0.965
    14   1 H    0.988 --     9 C    0.959
    15   1 H    0.985 --     9 C    0.935
    16   1 H    0.991 --     9 C    0.974
 ---------------------------------------------------------------------------

           -------------------------------------------------
          | TOTAL ENERGY              -33.418023486996 Eh   |
          | GRADIENT NORM               0.000507543901 Eh/α |
          | HOMO-LUMO GAP               2.420136303121 eV   |
           -------------------------------------------------

 * finished run on 2023/06/20 at 14:55:32.634
