   * xtb version 6.5.1 (579679a) compiled by 'ehlert@majestix' on 2022-07-11
          program call               : /lustre/hpc/kemi/ree/PhD/git/ReactivityQM/dep/xtb-6.5.1/bin/xtb --gfn 1 /lustre/hpc/kemi/ree/PhD/git/ReactivityQM/calculations/R03/reac02prodN03/conf01/R03_reac02prodN03_conf01_gfn1.xyz --opt --vfukui --chrg 1 --uhf 0 --alpb DMSO

   ID    Z sym.   atoms
    1    6 C      1, 3, 5, 6, 8-11, 13, 15, 18, 19, 22, 23, 25
    2    8 O      2, 4, 14, 20, 24, 26
    3    7 N      7, 12, 16, 17, 21
    4    1 H      27-46

      * Solvation model:               ALPB
        Solvent                        DMSO
        Solvent mass                       7.8130E+01 g/mol
          :  Hamiltonian                  GFN1-xTB          :
 * total energy  :   -86.3040083 Eh     change       -0.1007550E-10 Eh
 * total energy  :   -86.3306370 Eh     change       -0.2662873E-01 Eh
 * total energy  :   -86.3392849 Eh     change       -0.8647876E-02 Eh
 * total energy  :   -86.3413659 Eh     change       -0.2081028E-02 Eh
 * total energy  :   -86.3421583 Eh     change       -0.7923682E-03 Eh
 * total energy  :   -86.3423285 Eh     change       -0.1701527E-03 Eh
 * total energy  :   -86.3424374 Eh     change       -0.1089553E-03 Eh
 * total energy  :   -86.3425089 Eh     change       -0.7148490E-04 Eh
 * total energy  :   -86.3425681 Eh     change       -0.5920937E-04 Eh
 * total energy  :   -86.3426291 Eh     change       -0.6103557E-04 Eh
 * total energy  :   -86.3429481 Eh     change       -0.7219166E-05 Eh
 * total energy  :   -86.3429611 Eh     change       -0.1298090E-04 Eh
 * total energy  :   -86.3429671 Eh     change       -0.5953903E-05 Eh
 * total energy  :   -86.3429761 Eh     change       -0.9033761E-05 Eh
 * total energy  :   -86.3429851 Eh     change       -0.9019831E-05 Eh
 * total energy  :   -86.3429941 Eh     change       -0.8947846E-05 Eh
 * total energy  :   -86.3430025 Eh     change       -0.8389269E-05 Eh
 * total energy  :   -86.3430095 Eh     change       -0.7073403E-05 Eh
 * total energy  :   -86.3430142 Eh     change       -0.4654872E-05 Eh
   *** GEOMETRY OPTIMIZATION CONVERGED AFTER 32 ITERATIONS ***

 final structure:
================
46
 xtb: 6.5.1 (579679a)
C           -2.88465031706207        0.47149730803296       -3.02362927126583
O           -3.93051760229242        0.85387155305419       -2.11933861364696
C           -3.92267632366003        0.75228903949346       -0.83521713431829
O           -4.98749937680335        1.15056715140135       -0.23106338780201
C           -6.09939893111611        1.66708386334988       -0.98435302444684
C           -2.85189085397200        0.23691733428831       -0.00892035053001
N           -1.68442797578315       -0.14873905750118       -0.62034156569459
C           -0.68259620538256       -0.61926043630080        0.05606435793665
C            0.54702005860982       -1.03691409056536       -0.74166494776177
C            0.42118712599648       -0.58010384764020       -2.19978254631556
C            0.68428147724634       -2.56684510286697       -0.69865229984358
N            1.70928967193782       -0.36320114430301       -0.15508459480447
C            2.98486484601295       -0.61028796378666       -0.56041359574769
O            3.33280680551275       -1.51672484564860       -1.28916913606535
C            3.91597085908335        0.37016583007782        0.04694830753713
N            3.58424261039877        1.36964497860541        0.80932251720667
N            4.73860078632108        2.00907887181222        1.14155575469226
C            5.70297452976929        1.35947890029839        0.55969931765163
C            7.15152366541074        1.65526415461045        0.61079377683943
O            5.24507404692838        0.31574395333463       -0.14639176826973
N           -0.73190230965105       -0.77385485699634        1.41943823773384
C            0.33167731678125       -1.35197120745997        2.25172049535937
C           -1.85712357065397       -0.43155063877110        2.13691158745722
O           -1.95010391637083       -0.57088950840369        3.34567725292584
C           -2.96816238391535        0.12193768535333        1.36085359420191
O           -4.03356805205150        0.45637929588817        2.05867611037230
H           -1.99239592901480        1.06459965486566       -2.82725605405774
H           -3.27375409784969        0.67757910917814       -4.01995975086426
H           -2.66247258117150       -0.58847221878112       -2.90668861596112
H           -6.85892716883478        1.92791836977766       -0.25081902440638
H           -5.78043138265729        2.54435563106892       -1.54799857158824
H           -6.46220715569193        0.89960141025909       -1.66862868562326
H            0.25438352453568        0.49406751058077       -2.24623716750380
H            1.34039228002735       -0.82235274361881       -2.73134555501382
H           -0.40813914970434       -1.09482412735548       -2.67907077844107
H            1.00750823629875       -2.91237426854660        0.27959069369100
H            1.41021055681456       -2.89384710710794       -1.44067541489942
H           -0.28128630105625       -3.01350888781346       -0.93125540963486
H            1.54123087590870        0.53162591729605        0.28146929032891
H            7.68681463446775        0.81517969858191        1.05301388870534
H            7.32144459880906        2.54934999155903        1.20549999506275
H            7.53573127839289        1.80627324135949       -0.39763403855906
H            1.29136980388712       -1.26986164544134        1.75702732750977
H            0.35110437379888       -0.80252536661843        3.19227358988302
H            0.09067804072715       -2.39545472934671        2.45076089028061
H           -3.87625141897892        0.26309534074360        3.00774231769170

          :  Hamiltonian                  GFN1-xTB          :
         :: total energy             -86.343014199164 Eh    ::
         :: gradient norm              0.000820585281 Eh/a0 ::
         :: HOMO-LUMO gap              1.962217858984 eV    ::
         :: SCC energy               -87.172473133344 Eh    ::
         :: -> Gsolv                  -0.102871769566 Eh    ::
         :: repulsion energy           0.858797479145 Eh    ::

    * Orbital Energies and Occupations

         #    Occupation            Energy/Eh            Energy/eV
      -------------------------------------------------------------
         1        2.0000           -0.9136369             -24.8613
       ...           ...                  ...                  ...
        58        2.0000           -0.5268683             -14.3368
        59        2.0000           -0.5200717             -14.1519
        60        2.0000           -0.5149784             -14.0133
        61        2.0000           -0.5111422             -13.9089
        62        2.0000           -0.5044877             -13.7278
        63        2.0000           -0.4939725             -13.4417
        64        2.0000           -0.4881421             -13.2830
        65        2.0000           -0.4823872             -13.1264
        66        2.0000           -0.4736946             -12.8899
        67        2.0000           -0.4677951             -12.7294
        68        2.0000           -0.4628247             -12.5941
        69        2.0000           -0.4583229             -12.4716
        70        2.0000           -0.4541288             -12.3575 (HOMO)
        71                         -0.3820186             -10.3953 (LUMO)
        72                         -0.3195985              -8.6967
        73                         -0.3187432              -8.6734
        74                         -0.2917538              -7.9390
        75                         -0.2613832              -7.1126
        76                         -0.2070049              -5.6329
        77                         -0.1991818              -5.4200
        78                         -0.1716363              -4.6705
        79                         -0.1625979              -4.4245
        80                         -0.1522722              -4.1435
        81                         -0.1437970              -3.9129
       ...                                ...                  ...
       144                          0.7239926              19.7008
      -------------------------------------------------------------
                  HL-Gap            0.0721102 Eh            1.9622 eV

Wiberg/Mayer (AO) data.
largest (>0.10) Wiberg bond orders for each atom

     #   Z sym  total        # sym  WBO       # sym  WBO       # sym  WBO
 ---------------------------------------------------------------------------
     1   6 C    3.815 --    28 H    0.978    29 H    0.971    27 H    0.970
                             2 O    0.850
     2   8 O    2.308 --     3 C    1.252     1 C    0.850
     3   6 C    3.815 --     4 O    1.262     2 O    1.252     6 C    1.117
     4   8 O    2.310 --     3 C    1.262     5 C    0.855
     5   6 C    3.823 --    30 H    0.981    31 H    0.972    32 H    0.972
                             4 O    0.855
     6   6 C    3.956 --    25 C    1.414     7 N    1.162     3 C    1.117
     7   7 N    3.036 --     8 C    1.570     6 C    1.162
     8   6 C    3.920 --     7 N    1.570    21 N    1.172     9 C    0.976
     9   6 C    3.934 --    10 C    0.990    11 C    0.979     8 C    0.976
                            12 N    0.927
    10   6 C    3.988 --     9 C    0.990    33 H    0.982    35 H    0.982
                            34 H    0.979
    11   6 C    3.985 --    38 H    0.984    36 H    0.980     9 C    0.979
                            37 H    0.975
    12   7 N    3.320 --    13 C    1.211     9 C    0.927    39 H    0.894
                            14 O    0.167
    13   6 C    3.912 --    14 O    1.619    12 N    1.211    15 C    0.994
    14   8 O    1.931 --    13 C    1.619    12 N    0.167
    15   6 C    3.878 --    16 N    1.604    20 O    1.066    13 C    0.994
    16   7 N    3.020 --    15 C    1.604    17 N    1.205
    17   7 N    2.981 --    18 C    1.598    16 N    1.205
    18   6 C    3.869 --    17 N    1.598    20 O    1.085    19 C    1.032
    19   6 C    3.985 --    18 C    1.032    41 H    0.982    42 H    0.963
                            40 H    0.962
    20   8 O    2.334 --    18 C    1.085    15 C    1.066
    21   7 N    3.525 --     8 C    1.172    23 C    1.147    22 C    0.916
                            24 O    0.142
    22   6 C    3.903 --    43 H    0.974    44 H    0.972    45 H    0.971
                            21 N    0.916
    23   6 C    3.918 --    24 O    1.588    21 N    1.147    25 C    1.044
    24   8 O    1.933 --    23 C    1.588    21 N    0.142
    25   6 C    3.913 --     6 C    1.414    26 O    1.175    23 C    1.044
    26   8 O    2.147 --    25 C    1.175    46 H    0.780
    27   1 H    1.012 --     1 C    0.970
    28   1 H    1.001 --     1 C    0.978
    29   1 H    1.012 --     1 C    0.971
    30   1 H    1.002 --     5 C    0.981
    31   1 H    0.998 --     5 C    0.972
    32   1 H    0.998 --     5 C    0.972
    33   1 H    1.005 --    10 C    0.982
    34   1 H    1.002 --    10 C    0.979
    35   1 H    1.005 --    10 C    0.982
    36   1 H    1.000 --    11 C    0.980
    37   1 H    1.009 --    11 C    0.975
    38   1 H    1.000 --    11 C    0.984
    39   1 H    0.950 --    12 N    0.894
    40   1 H    0.996 --    19 C    0.962
    41   1 H    0.998 --    19 C    0.982
    42   1 H    0.996 --    19 C    0.963
    43   1 H    1.008 --    22 C    0.974
    44   1 H    1.001 --    22 C    0.972
    45   1 H    0.997 --    22 C    0.971
    46   1 H    0.825 --    26 O    0.780
 ---------------------------------------------------------------------------

           -------------------------------------------------
          | TOTAL ENERGY              -86.343014199164 Eh   |
          | GRADIENT NORM               0.000820585281 Eh/α |
          | HOMO-LUMO GAP               1.962217858984 eV   |
           -------------------------------------------------

 * finished run on 2023/06/20 at 15:38:31.708
