                         Program Version 5.0.1 -  RELEASE  -
|  1> # ORCA input file
|  2> ! SP r2SCAN-3c CPCM
|  3>
|  4> %maxcore 1875.0
|  5> %pal nprocs 4 end
|  6> %cpcm smd true SMDsolvent "DMSO" end
|  7>
|  8> *xyz -1 1
|  9> C       5.156024   -0.893468    0.294904
| 10> C       3.836930   -0.161869   -0.090653
| 11> C       4.140360    1.008700   -0.998859
| 12> C       4.076177    2.273067   -0.523255
| 13> F       4.455971    3.288684   -1.359206
| 14> C       3.586049    2.647124    0.737648
| 15> C       3.036388    1.614535    1.518286
| 16> C       3.101622    0.295836    1.158580
| 17> C       2.354437   -0.749436    1.939749
| 18> N       0.993893   -0.878928    1.384915
| 19> C       0.677414   -1.807472    0.464337
| 20> O       1.375481   -2.819297    0.244889
| 21> C      -0.598237   -1.586004   -0.232349
| 22> N      -1.308971   -0.455334    0.072128
| 23> C      -2.453056   -0.218069   -0.488354
| 24> C      -3.185741    1.033052   -0.011252
| 25> C      -2.243828    1.868786    0.870583
| 26> C      -4.410869    0.622656    0.818201
| 27> N      -3.623832    1.840818   -1.150199
| 28> N      -2.992525   -1.080458   -1.408730
| 29> C      -4.277403   -0.875664   -2.077112
| 30> C      -2.365958   -2.288455   -1.768809
| 31> O      -2.918390   -3.046271   -2.571470
| 32> C      -1.094410   -2.510469   -1.132161
| 33> O      -0.427574   -3.644072   -1.437686
| 34> H       5.805157   -0.220700    0.856795
| 35> H       4.943856   -1.768939    0.909758
| 36> H       5.682303   -1.216851   -0.604435
| 37> H       3.221212   -0.900668   -0.635451
| 38> H       4.465370    0.801538   -2.011427
| 39> H       3.551689    3.682810    1.043812
| 40> H       2.526380    1.882768    2.441994
| 41> H       2.823655   -1.736930    1.881530
| 42> H       2.255016   -0.469653    2.994386
| 43> H       0.421667   -0.045423    1.407346
| 44> H      -1.342648    2.129200    0.317130
| 45> H      -1.959048    1.309772    1.760789
| 46> H      -2.750125    2.783869    1.172849
| 47> H      -4.103715   -0.027137    1.637342
| 48> H      -5.144015    0.097706    0.209186
| 49> H      -4.883498    1.510734    1.235445
| 50> H      -4.213045    2.586940   -0.810847
| 51> H      -2.819837    2.265287   -1.593961
| 52> H      -4.172751   -1.166264   -3.124062
| 53> H      -5.036746   -1.507200   -1.612647
| 54> H      -4.571491    0.167503   -2.022230
| 55> H       0.410660   -3.636353   -0.891725
| 56> **                         ****END OF INPUT****

CARTESIAN COORDINATES (ANGSTROEM)
---------------------------------
  C      5.156024   -0.893468    0.294904
  C      3.836930   -0.161869   -0.090653
  C      4.140360    1.008700   -0.998859
  C      4.076177    2.273067   -0.523255
  F      4.455971    3.288684   -1.359206
  C      3.586049    2.647124    0.737648
  C      3.036388    1.614535    1.518286
  C      3.101622    0.295836    1.158580
  C      2.354437   -0.749436    1.939749
  N      0.993893   -0.878928    1.384915
  C      0.677414   -1.807472    0.464337
  O      1.375481   -2.819297    0.244889
  C     -0.598237   -1.586004   -0.232349
  N     -1.308971   -0.455334    0.072128
  C     -2.453056   -0.218069   -0.488354
  C     -3.185741    1.033052   -0.011252
  C     -2.243828    1.868786    0.870583
  C     -4.410869    0.622656    0.818201
  N     -3.623832    1.840818   -1.150199
  N     -2.992525   -1.080458   -1.408730
  C     -4.277403   -0.875664   -2.077112
  C     -2.365958   -2.288455   -1.768809
  O     -2.918390   -3.046271   -2.571470
  C     -1.094410   -2.510469   -1.132161
  O     -0.427574   -3.644072   -1.437686
  H      5.805157   -0.220700    0.856795
  H      4.943856   -1.768939    0.909758
  H      5.682303   -1.216851   -0.604435
  H      3.221212   -0.900668   -0.635451
  H      4.465370    0.801538   -2.011427
  H      3.551689    3.682810    1.043812
  H      2.526380    1.882768    2.441994
  H      2.823655   -1.736930    1.881530
  H      2.255016   -0.469653    2.994386
  H      0.421667   -0.045423    1.407346
  H     -1.342648    2.129200    0.317130
  H     -1.959048    1.309772    1.760789
  H     -2.750125    2.783869    1.172849
  H     -4.103715   -0.027137    1.637342
  H     -5.144015    0.097706    0.209186
  H     -4.883498    1.510734    1.235445
  H     -4.213045    2.586940   -0.810847
  H     -2.819837    2.265287   -1.593961
  H     -4.172751   -1.166264   -3.124062
  H     -5.036746   -1.507200   -1.612647
  H     -4.571491    0.167503   -2.022230
  H      0.410660   -3.636353   -0.891725

 Total Charge           Charge          ....   -1
 Multiplicity           Mult            ....    1
 Number of Electrons    NEL             ....  186
 Basis Dimension        Dim             ....  625

ORBITAL ENERGIES
----------------

  NO   OCC          E(Eh)            E(eV)
   0   2.0000     -24.470389      -665.8731
   1   2.0000     -18.971810      -516.2492
   2   2.0000     -18.920849      -514.8625
   3   2.0000     -18.916802      -514.7524
   4   2.0000     -14.226296      -387.1172
   5   2.0000     -14.176688      -385.7673
   6   2.0000     -14.154390      -385.1605
   7   2.0000     -14.132883      -384.5753
   8   2.0000     -10.131702      -275.6976
   9   2.0000     -10.126528      -275.5568
  10   2.0000     -10.112166      -275.1660
  11   2.0000     -10.103106      -274.9195
  12   2.0000     -10.078412      -274.2475
  13   2.0000     -10.076931      -274.2072
  14   2.0000     -10.073549      -274.1152
  15   2.0000     -10.049554      -273.4623
  16   2.0000     -10.045855      -273.3616
  17   2.0000     -10.021204      -272.6908
  18   2.0000     -10.016640      -272.5666
  19   2.0000     -10.007395      -272.3151
  20   2.0000     -10.004538      -272.2373
  21   2.0000      -9.996618      -272.0218
  22   2.0000      -9.991876      -271.8928
  23   2.0000      -9.981629      -271.6139
  24   2.0000      -9.975451      -271.4458
  25   2.0000      -1.154987       -31.4288
  26   2.0000      -1.030105       -28.0306
  27   2.0000      -1.003508       -27.3068
  28   2.0000      -0.992011       -26.9940
  29   2.0000      -0.950949       -25.8766
  30   2.0000      -0.888112       -24.1668
  31   2.0000      -0.868272       -23.6269
  32   2.0000      -0.860245       -23.4085
  33   2.0000      -0.783800       -21.3283
  34   2.0000      -0.754514       -20.5314
  35   2.0000      -0.711873       -19.3710
  36   2.0000      -0.710629       -19.3372
  37   2.0000      -0.703257       -19.1366
  38   2.0000      -0.687885       -18.7183
  39   2.0000      -0.651802       -17.7364
  40   2.0000      -0.648691       -17.6518
  41   2.0000      -0.624303       -16.9882
  42   2.0000      -0.619005       -16.8440
  43   2.0000      -0.602494       -16.3947
  44   2.0000      -0.553100       -15.0506
  45   2.0000      -0.549754       -14.9596
  46   2.0000      -0.543570       -14.7913
  47   2.0000      -0.525987       -14.3128
  48   2.0000      -0.518915       -14.1204
  49   2.0000      -0.502743       -13.6803
  50   2.0000      -0.480656       -13.0793
  51   2.0000      -0.474442       -12.9102
  52   2.0000      -0.461304       -12.5527
  53   2.0000      -0.452322       -12.3083
  54   2.0000      -0.432386       -11.7658
  55   2.0000      -0.428044       -11.6477
  56   2.0000      -0.423276       -11.5179
  57   2.0000      -0.419946       -11.4273
  58   2.0000      -0.418499       -11.3879
  59   2.0000      -0.405391       -11.0313
  60   2.0000      -0.402587       -10.9549
  61   2.0000      -0.398033       -10.8310
  62   2.0000      -0.394619       -10.7381
  63   2.0000      -0.387345       -10.5402
  64   2.0000      -0.380433       -10.3521
  65   2.0000      -0.370675       -10.0866
  66   2.0000      -0.368157       -10.0181
  67   2.0000      -0.362711        -9.8699
  68   2.0000      -0.358694        -9.7606
  69   2.0000      -0.357603        -9.7309
  70   2.0000      -0.349535        -9.5113
  71   2.0000      -0.348111        -9.4726
  72   2.0000      -0.343794        -9.3551
  73   2.0000      -0.338120        -9.2007
  74   2.0000      -0.333901        -9.0859
  75   2.0000      -0.331358        -9.0167
  76   2.0000      -0.326957        -8.8969
  77   2.0000      -0.321932        -8.7602
  78   2.0000      -0.317588        -8.6420
  79   2.0000      -0.308846        -8.4041
  80   2.0000      -0.307430        -8.3656
  81   2.0000      -0.288479        -7.8499
  82   2.0000      -0.268334        -7.3017
  83   2.0000      -0.262419        -7.1408
  84   2.0000      -0.258659        -7.0385
  85   2.0000      -0.254129        -6.9152
  86   2.0000      -0.233155        -6.3445
  87   2.0000      -0.227263        -6.1842
  88   2.0000      -0.221678        -6.0322
  89   2.0000      -0.207302        -5.6410
  90   2.0000      -0.197333        -5.3697
  91   2.0000      -0.194309        -5.2874
  92   2.0000      -0.102142        -2.7794
  93   0.0000      -0.078699        -2.1415
  94   0.0000      -0.028813        -0.7840
  95   0.0000       0.005369         0.1461
  96   0.0000       0.029287         0.7969
  97   0.0000       0.050908         1.3853

MULLIKEN ATOMIC CHARGES
-----------------------
   0 C :   -0.558469
   1 C :    0.105876
   2 C :   -0.621868
   3 C :    0.437329
   4 F :   -0.285032
   5 C :   -0.653760
   6 C :   -0.172134
   7 C :   -0.119225
   8 C :   -0.439214
   9 N :   -0.105049
  10 C :    0.033722
  11 O :   -0.536402
  12 C :    0.116275
  13 N :   -0.146662
  14 C :    0.050076
  15 C :    0.227321
  16 C :   -0.603655
  17 C :   -0.526475
  18 N :   -0.682082
  19 N :    0.241905
  20 C :   -0.483256
  21 C :    0.068980
  22 O :   -0.438712
  23 C :    0.039730
  24 O :   -0.377766
  25 H :    0.158341
  26 H :    0.149152
  27 H :    0.151917
  28 H :    0.142660
  29 H :    0.175703
  30 H :    0.173984
  31 H :    0.162350
  32 H :    0.193204
  33 H :    0.170206
  34 H :    0.314531
  35 H :    0.177432
  36 H :    0.178813
  37 H :    0.169458
  38 H :    0.183716
  39 H :    0.178060
  40 H :    0.179825
  41 H :    0.292693
  42 H :    0.286042
  43 H :    0.184327
  44 H :    0.192223
  45 H :    0.226132
  46 H :    0.387779
Sum of atomic charges:   -1.0000000

LOEWDIN ATOMIC CHARGES
----------------------
   0 C :   -0.435705
   1 C :   -0.196026
   2 C :   -0.337551
   3 C :    0.171013
   4 F :   -0.349069
   5 C :   -0.413253
   6 C :   -0.194669
   7 C :   -0.185072
   8 C :   -0.020670
   9 N :   -0.606654
  10 C :    0.354931
  11 O :   -0.557908
  12 C :    0.196520
  13 N :   -0.606946
  14 C :    0.365879
  15 C :    0.063815
  16 C :   -0.365253
  17 C :   -0.354724
  18 N :   -0.708729
  19 N :   -0.636452
  20 C :   -0.100380
  21 C :    0.373346
  22 O :   -0.484530
  23 C :    0.264029
  24 O :   -0.477577
  25 H :    0.152685
  26 H :    0.150538
  27 H :    0.150803
  28 H :    0.158267
  29 H :    0.170461
  30 H :    0.169210
  31 H :    0.170077
  32 H :    0.198939
  33 H :    0.188350
  34 H :    0.295318
  35 H :    0.169878
  36 H :    0.167988
  37 H :    0.161375
  38 H :    0.171669
  39 H :    0.170965
  40 H :    0.169467
  41 H :    0.254591
  42 H :    0.253728
  43 H :    0.201260
  44 H :    0.188725
  45 H :    0.213724
  46 H :    0.313615

  Mayer bond orders larger than 0.100000
B(  0-C ,  1-C ) :   0.8570 B(  0-C , 25-H ) :   0.9918 B(  0-C , 26-H ) :   0.9734
B(  0-C , 27-H ) :   0.9759 B(  1-C ,  2-C ) :   0.8573 B(  1-C ,  7-C ) :   0.9024
B(  1-C , 28-H ) :   0.9862 B(  2-C ,  3-C ) :   1.5973 B(  2-C ,  7-C ) :   0.1093
B(  2-C , 29-H ) :   0.9612 B(  3-C ,  4-F ) :   0.8315 B(  3-C ,  5-C ) :   1.2355
B(  5-C ,  6-C ) :   1.1916 B(  5-C , 30-H ) :   0.9829 B(  6-C ,  7-C ) :   1.5574
B(  6-C , 31-H ) :   0.9568 B(  7-C ,  8-C ) :   0.9262 B(  8-C ,  9-N ) :   0.7975
B(  8-C , 32-H ) :   0.9760 B(  8-C , 33-H ) :   0.9878 B(  9-N , 10-C ) :   1.2760
B(  9-N , 34-H ) :   0.8811 B( 10-C , 11-O ) :   1.6960 B( 10-C , 12-C ) :   0.9806
B( 11-O , 46-H ) :   0.1252 B( 12-C , 13-N ) :   1.0245 B( 12-C , 23-C ) :   1.2373
B( 13-N , 14-C ) :   1.6828 B( 13-N , 15-C ) :  -0.1260 B( 14-C , 15-C ) :   0.9017
B( 14-C , 19-N ) :   1.2629 B( 14-C , 23-C ) :   0.1024 B( 15-C , 16-C ) :   0.9642
B( 15-C , 17-C ) :   0.9351 B( 15-C , 18-N ) :   0.7724 B( 16-C , 35-H ) :   0.9646
B( 16-C , 36-H ) :   0.9802 B( 16-C , 37-H ) :   0.9667 B( 17-C , 38-H ) :   0.9748
B( 17-C , 39-H ) :   0.9466 B( 17-C , 40-H ) :   0.9633 B( 18-N , 41-H ) :   0.9131
B( 18-N , 42-H ) :   0.9088 B( 19-N , 20-C ) :   0.8462 B( 19-N , 21-C ) :   1.0564
B( 20-C , 43-H ) :   0.9406 B( 20-C , 44-H ) :   0.9416 B( 20-C , 45-H ) :   0.9232
B( 21-C , 22-O ) :   1.8889 B( 21-C , 23-C ) :   1.0433 B( 23-C , 24-O ) :   1.1419
B( 24-O , 46-H ) :   0.7224

Dispersion correction           -0.021828876
FINAL SINGLE POINT ENERGY     -1205.483567496557

DIPOLE MOMENT
-------------
                                X             Y             Z
Electronic contribution:      5.94636      -7.10839      -9.23183
Nuclear contribution   :    -12.36401       7.90156      10.63595
                        -----------------------------------------
Total Dipole Moment    :     -6.41766       0.79317       1.40412
                        -----------------------------------------
Magnitude (a.u.)       :      6.61717
Magnitude (Debye)      :     16.81952

Rotational constants in cm-1:     0.010633     0.004182     0.003547
Rotational constants in MHz :   318.779520   125.387204   106.341931

                             ****ORCA TERMINATED NORMALLY****
TOTAL RUN TIME: 0 days 0 hours 2 minutes 55 seconds 212 msec
