   * xtb version 6.5.1 (579679a) compiled by 'ehlert@majestix' on 2022-07-11
          program call               : /lustre/hpc/kemi/ree/PhD/git/ReactivityQM/dep/xtb-6.5.1/bin/xtb --gfn 1 /lustre/hpc/kemi/ree/PhD/git/ReactivityQM/calculations/RaltegravirCLI/reac02prodE07/conf05/RaltegravirCLI_reac02prodE07_conf05_gfn1.xyz --opt --vfukui --chrg -1 --uhf 0 --alpb DMSO

   ID    Z sym.   atoms
    1    6 C      1-4, 6-9, 11, 13, 15-18, 21, 22, 24
    2    9 F      5
    3    7 N      10, 14, 19, 20
    4    8 O      12, 23, 25
    5    1 H      26-47

      * Solvation model:               ALPB
        Solvent                        DMSO
        Solvent mass                       7.8130E+01 g/mol
          :  Hamiltonian                  GFN1-xTB          :
 * total energy  :   -80.1842262 Eh     change       -0.1538922E-08 Eh
 * total energy  :   -80.1926700 Eh     change       -0.8443768E-02 Eh
 * total energy  :   -80.1949417 Eh     change       -0.2271707E-02 Eh
 * total energy  :   -80.1953518 Eh     change       -0.4101321E-03 Eh
 * total energy  :   -80.1958178 Eh     change       -0.4659981E-03 Eh
 * total energy  :   -80.1960772 Eh     change       -0.2593072E-03 Eh
 * total energy  :   -80.1963650 Eh     change       -0.2878474E-03 Eh
 * total energy  :   -80.1965169 Eh     change       -0.1518573E-03 Eh
 * total energy  :   -80.1966046 Eh     change       -0.8770287E-04 Eh
 * total energy  :   -80.1966638 Eh     change       -0.5923368E-04 Eh
 * total energy  :   -80.1983263 Eh     change       -0.2765729E-04 Eh
 * total energy  :   -80.1983479 Eh     change       -0.2167270E-04 Eh
 * total energy  :   -80.1983635 Eh     change       -0.1553224E-04 Eh
 * total energy  :   -80.1983860 Eh     change       -0.2254000E-04 Eh
 * total energy  :   -80.1983998 Eh     change       -0.1383749E-04 Eh
 * total energy  :   -80.1984148 Eh     change       -0.1493703E-04 Eh
 * total energy  :   -80.1984205 Eh     change       -0.5731256E-05 Eh
 * total energy  :   -80.1984293 Eh     change       -0.8750179E-05 Eh
 * total energy  :   -80.1984332 Eh     change       -0.3956990E-05 Eh
   *** GEOMETRY OPTIMIZATION CONVERGED AFTER 72 ITERATIONS ***

 final structure:
================
47
 xtb: 6.5.1 (579679a)
C            5.15602411560027       -0.89346792999033        0.29490414675563
C            3.83693039913321       -0.16186863571417       -0.09065269847186
C            4.14036033560149        1.00869954335146       -0.99885886334993
C            4.07617657933091        2.27306731736833       -0.52325539379398
F            4.45597067049784        3.28868409415303       -1.35920595314248
C            3.58604865592568        2.64712409888027        0.73764826077638
C            3.03638775757193        1.61453532107573        1.51828640898922
C            3.10162223970670        0.29583630582546        1.15857997162910
C            2.35443687489580       -0.74943619140522        1.93974920731647
N            0.99389279729618       -0.87892805344162        1.38491539070460
C            0.67741375266585       -1.80747205888209        0.46433707169601
O            1.37548132848546       -2.81929748017471        0.24488894269163
C           -0.59823702477520       -1.58600431832482       -0.23234872022652
N           -1.30897057858058       -0.45533439419269        0.07212782686780
C           -2.45305644116185       -0.21806870611131       -0.48835375261663
C           -3.18574063418779        1.03305176764529       -0.01125225076857
C           -2.24382841040944        1.86878613680431        0.87058324143275
C           -4.41086870358220        0.62265626499374        0.81820143077874
N           -3.62383160458468        1.84081756825513       -1.15019923694443
N           -2.99252468946961       -1.08045785472013       -1.40872982745874
C           -4.27740295989501       -0.87566408797588       -2.07711155535275
C           -2.36595801445717       -2.28845480223831       -1.76880870066554
O           -2.91839022417936       -3.04627087921891       -2.57146973854207
C           -1.09441016122105       -2.51046854041194       -1.13216072096856
O           -0.42757355150303       -3.64407153940968       -1.43768579527120
H            5.80515688727621       -0.22070004081846        0.85679536694842
H            4.94385612844706       -1.76893941513246        0.90975786221567
H            5.68230334421496       -1.21685096706774       -0.60443457978315
H            3.22121153674373       -0.90066783349055       -0.63545055652945
H            4.46536966929485        0.80153796233736       -2.01142712324957
H            3.55168918514039        3.68280982514151        1.04381227857958
H            2.52638015887728        1.88276814661072        2.44199391609224
H            2.82365477371532       -1.73692957390621        1.88152996504171
H            2.25501578654404       -0.46965275582130        2.99438573413281
H            0.42166675997036       -0.04542302421763        1.40734555493671
H           -1.34264800994676        2.12920047567936        0.31712971621158
H           -1.95904774050086        1.30977218476925        1.76078857227863
H           -2.75012541722391        2.78386916190928        1.17284907545085
H           -4.10371496568984       -0.02713666310244        1.63734188913027
H           -5.14401453868552        0.09770587228773        0.20918614170450
H           -4.88349785875228        1.51073406117424        1.23544533062961
H           -4.21304497577590        2.58693985464527       -0.81084665516301
H           -2.81983700513189        2.26528741392922       -1.59396138585870
H           -4.17275129558056       -1.16626363907766       -3.12406239702878
H           -5.03674605351512       -1.50719996658324       -1.61264721059228
H           -4.57149112365717        0.16750308103150       -2.02222973810525
H            0.41066024554219       -3.63635310642888       -0.89172544910876

          :  Hamiltonian                  GFN1-xTB          :
         :: total energy             -80.198433215935 Eh    ::
         :: gradient norm              0.000803860528 Eh/a0 ::
         :: HOMO-LUMO gap              0.238780257517 eV    ::
         :: SCC energy               -81.051056949859 Eh    ::
         :: -> Gsolv                  -0.098103642545 Eh    ::
         :: repulsion energy           0.883457968505 Eh    ::

    * Orbital Energies and Occupations

         #    Occupation            Energy/Eh            Energy/eV
      -------------------------------------------------------------
         1        2.0000           -0.8067235             -21.9521
       ...           ...                  ...                  ...
        56        2.0000           -0.4522777             -12.3071
        57        2.0000           -0.4458025             -12.1309
        58        2.0000           -0.4450051             -12.1092
        59        2.0000           -0.4410611             -12.0019
        60        2.0000           -0.4309257             -11.7261
        61        2.0000           -0.4241325             -11.5412
        62        2.0000           -0.4191487             -11.4056
        63        2.0000           -0.4101498             -11.1607
        64        2.0000           -0.4065907             -11.0639
        65        2.0000           -0.4047597             -11.0141
        66        2.0000           -0.3941379             -10.7250
        67        2.0000           -0.3816932             -10.3864
        68        1.9805           -0.2995341              -8.1507 (HOMO)
        69        0.0195           -0.2907591              -7.9120 (LUMO)
        70                         -0.2543585              -6.9214
        71                         -0.2063951              -5.6163
        72                         -0.1979452              -5.3864
        73                         -0.1281749              -3.4878
        74                         -0.1260100              -3.4289
        75                         -0.1231103              -3.3500
        76                         -0.1165107              -3.1704
        77                         -0.1112569              -3.0275
        78                         -0.0967420              -2.6325
        79                         -0.0941446              -2.5618
       ...                                ...                  ...
       144                          0.7068252              19.2337
      -------------------------------------------------------------
                  HL-Gap            0.0087750 Eh            0.2388 eV

Wiberg/Mayer (AO) data.
largest (>0.10) Wiberg bond orders for each atom

     #   Z sym  total        # sym  WBO       # sym  WBO       # sym  WBO
 ---------------------------------------------------------------------------
     1   6 C    3.978 --    26 H    0.989    28 H    0.987    27 H    0.985
                             2 C    0.967
     2   6 C    3.993 --     3 C    1.009     8 C    1.000     1 C    0.967
                            29 H    0.964
     3   6 C    3.866 --     4 C    1.608     2 C    1.009    30 H    0.975
     4   6 C    3.835 --     3 C    1.608     6 C    1.274     5 F    0.870
     5   9 F    0.982 --     4 C    0.870
     6   6 C    3.788 --     7 C    1.326     4 C    1.274    31 H    0.976
     7   6 C    3.995 --     8 C    1.582     6 C    1.326    32 H    0.971
     8   6 C    3.872 --     7 C    1.582     9 C    1.005     2 C    1.000
     9   6 C    3.938 --     8 C    1.005    34 H    0.978    33 H    0.975
                            10 N    0.908
    10   7 N    3.351 --    11 C    1.270     9 C    0.908    35 H    0.907
                            12 O    0.148
    11   6 C    3.893 --    12 O    1.454    10 N    1.270    13 C    1.055
    12   8 O    1.860 --    11 C    1.454    10 N    0.148
    13   6 C    3.914 --    24 C    1.414    14 N    1.179    11 C    1.055
    14   7 N    3.041 --    15 C    1.563    13 C    1.179
    15   6 C    3.915 --    14 N    1.563    20 N    1.173    16 C    0.974
    16   6 C    3.966 --    17 C    0.992    18 C    0.986    19 N    0.978
                            15 C    0.974
    17   6 C    3.995 --    16 C    0.992    38 H    0.986    36 H    0.984
                            37 H    0.983
    18   6 C    3.994 --    16 C    0.986    39 H    0.986    41 H    0.983
                            40 H    0.982
    19   7 N    2.993 --    16 C    0.978    42 H    0.942    43 H    0.942
    20   7 N    3.444 --    15 C    1.173    22 C    1.073    21 C    0.939
                            23 O    0.119
    21   6 C    3.933 --    45 H    0.979    44 H    0.977    46 H    0.970
                            20 N    0.939
    22   6 C    3.872 --    23 O    1.523    24 C    1.135    20 N    1.073
    23   8 O    1.818 --    22 C    1.523    20 N    0.119
    24   6 C    3.852 --    13 C    1.414    22 C    1.135    25 O    1.085
    25   8 O    2.024 --    24 C    1.085    47 H    0.762
    26   1 H    1.017 --     1 C    0.989
    27   1 H    1.009 --     1 C    0.985
    28   1 H    1.011 --     1 C    0.987
    29   1 H    1.017 --     2 C    0.964
    30   1 H    1.003 --     3 C    0.975
    31   1 H    1.004 --     6 C    0.976
    32   1 H    1.005 --     7 C    0.971
    33   1 H    1.019 --     9 C    0.975
    34   1 H    1.013 --     9 C    0.978
    35   1 H    0.977 --    10 N    0.907
    36   1 H    1.011 --    17 C    0.984
    37   1 H    1.014 --    17 C    0.983
    38   1 H    1.004 --    17 C    0.986
    39   1 H    1.004 --    18 C    0.986
    40   1 H    1.004 --    18 C    0.982
    41   1 H    1.001 --    18 C    0.983
    42   1 H    0.956 --    19 N    0.942
    43   1 H    0.958 --    19 N    0.942
    44   1 H    1.013 --    21 C    0.977
    45   1 H    1.006 --    21 C    0.979
    46   1 H    1.030 --    21 C    0.970
    47   1 H    0.872 --    25 O    0.762
 ---------------------------------------------------------------------------

           -------------------------------------------------
          | TOTAL ENERGY              -80.198433215935 Eh   |
          | GRADIENT NORM               0.000803860528 Eh/α |
          | HOMO-LUMO GAP               0.238780257517 eV   |
           -------------------------------------------------

 * finished run on 2023/06/20 at 15:06:18.425
