   * xtb version 6.5.1 (579679a) compiled by 'ehlert@majestix' on 2022-07-11
          program call               : /lustre/hpc/kemi/ree/PhD/git/ReactivityQM/dep/xtb-6.5.1/bin/xtb --gfn 1 /lustre/hpc/kemi/ree/PhD/git/ReactivityQM/calculations/R02deprot/reac01prodN12/conf19/R02deprot_reac01prodN12_conf19_gfn1.xyz --opt --vfukui --chrg 0 --uhf 0 --alpb DMSO

   ID    Z sym.   atoms
    1    6 C      1, 3, 5, 7-10, 12, 13, 15, 18, 19, 22, 24
    2    8 O      2, 4, 14, 20, 23, 25
    3    7 N      6, 11, 16, 17, 21
    4    1 H      26-42

      * Solvation model:               ALPB
        Solvent                        DMSO
        Solvent mass                       7.8130E+01 g/mol
          :  Hamiltonian                  GFN1-xTB          :
 * total energy  :   -82.8419003 Eh     change       -0.1548557E-09 Eh
 * total energy  :   -82.8567463 Eh     change       -0.1484601E-01 Eh
 * total energy  :   -82.8639463 Eh     change       -0.7200036E-02 Eh
 * total energy  :   -82.8663114 Eh     change       -0.2365019E-02 Eh
 * total energy  :   -82.8681382 Eh     change       -0.1826827E-02 Eh
 * total energy  :   -82.8692564 Eh     change       -0.1118189E-02 Eh
 * total energy  :   -82.8700768 Eh     change       -0.8204104E-03 Eh
 * total energy  :   -82.8707577 Eh     change       -0.6808833E-03 Eh
 * total energy  :   -82.8712347 Eh     change       -0.4770049E-03 Eh
 * total energy  :   -82.8712991 Eh     change       -0.6445679E-04 Eh
 * total energy  :   -82.8740109 Eh     change       -0.1407012E-04 Eh
 * total energy  :   -82.8740214 Eh     change       -0.1044208E-04 Eh
 * total energy  :   -82.8740293 Eh     change       -0.7931432E-05 Eh
 * total energy  :   -82.8740345 Eh     change       -0.5165298E-05 Eh
 * total energy  :   -82.8740398 Eh     change       -0.5338951E-05 Eh
 * total energy  :   -82.8740471 Eh     change       -0.7322272E-05 Eh
 * total energy  :   -82.8740549 Eh     change       -0.7824493E-05 Eh
 * total energy  :   -82.8740614 Eh     change       -0.6485945E-05 Eh
 * total energy  :   -82.8740656 Eh     change       -0.4118280E-05 Eh
   *** GEOMETRY OPTIMIZATION CONVERGED AFTER 63 ITERATIONS ***

 final structure:
================
42
 xtb: 6.5.1 (579679a)
C            7.09760508492779       -0.28167836059397        0.03187333008468
O            5.80070962125660        0.25052412794450        0.32275849814689
C            4.75843661895092       -0.47769286064014       -0.05956210594669
O            4.85453233903597       -1.54530937109062       -0.61732166302756
C            3.44142903482891        0.16349721191081        0.26598206036764
N            2.36715300003792       -0.50568469360313       -0.16953642211317
C            1.14897158286076        0.01500155234087        0.03166315487473
C           -0.00365186688186       -0.80763350061041       -0.49401323786227
C           -0.13929235462853       -2.07483004873680        0.38209991971779
C            0.26326724450649       -1.21734145065221       -1.95559903146185
N           -1.19484316941841       -0.01840305022210       -0.39543814132313
C           -2.49261978855814       -0.42969046598108       -0.85143408826754
C           -2.83396335861713        0.63635993211126       -2.01584603285063
O           -2.64325600151662       -1.62654144899104       -1.26320430607040
C           -3.47309391891533        0.03509395889586        0.24565861329871
N           -3.17815409981664        0.40887462557274        1.44573728568994
N           -4.37111727476403        0.69281229361334        2.05395318455294
C           -5.30218480508861        0.48389910765786        1.17865203736975
C           -6.76274539191919        0.64273547713668        1.34704026321610
O           -4.79257750842061        0.06603831677581        0.00369403960103
N            0.87110473543882        1.15171754901710        0.62734572270334
C            1.89626531763238        1.89948045555264        1.13439503986606
O            1.75333014434160        2.95241688454517        1.74930915514876
C            3.26543246548270        1.37239802037681        0.93017328914173
O            4.24161746244876        2.09848028107892        1.43883968263078
H            7.23209086977215       -1.24000736664542        0.53887887740050
H            7.21016444499145       -0.42290933040166       -1.04553254233349
H            7.81985017535760        0.44563123975496        0.39640129006326
H           -0.36083080693410       -1.78640048603915        1.40809224620045
H            0.80118750082897       -2.62122877459513        0.35278216526996
H           -0.93849608935376       -2.70723714704811        0.00217411321582
H            1.20881351726451       -1.75520326181798       -1.99524397362825
H           -0.53483268778147       -1.85873186839449       -2.32195256750870
H            0.32884260961325       -0.32753929329814       -2.57811597970698
H           -1.08449303423671        0.91867861077774       -0.01678763173270
H           -2.12934758007383        0.45311573245876       -2.81959312310140
H           -3.84896958309194        0.41716780994456       -2.33100755356027
H           -2.74708471501854        1.64853554770295       -1.63822775337603
H           -7.15406311690719        1.30871973494078        0.57880567004924
H           -6.97404340937844        1.05303455815027        2.33156578762296
H           -7.25939894330971       -0.32195300456029        1.24043424338984
H            3.85825373504787        2.91180175564690        1.83008048424614

          :  Hamiltonian                  GFN1-xTB          :
         :: total energy             -82.874065554091 Eh    ::
         :: gradient norm              0.000470419220 Eh/a0 ::
         :: HOMO-LUMO gap              0.092205444904 eV    ::
         :: SCC energy               -83.632162400267 Eh    ::
         :: -> Gsolv                  -0.055009772545 Eh    ::
         :: repulsion energy           0.783973779691 Eh    ::

    * Orbital Energies and Occupations

         #    Occupation            Energy/Eh            Energy/eV
      -------------------------------------------------------------
         1        2.0000           -0.8708991             -23.6984
       ...           ...                  ...                  ...
        55        2.0000           -0.5074909             -13.8095
        56        2.0000           -0.5002828             -13.6134
        57        2.0000           -0.4984518             -13.5636
        58        2.0000           -0.4867094             -13.2440
        59        2.0000           -0.4843301             -13.1793
        60        2.0000           -0.4776649             -12.9979
        61        2.0000           -0.4668748             -12.7043
        62        2.0000           -0.4625349             -12.5862
        63        2.0000           -0.4597314             -12.5099
        64        2.0000           -0.4552700             -12.3885
        65        2.0000           -0.4505617             -12.2604
        66        1.9992           -0.4295159             -11.6877
        67        1.7126           -0.4238157             -11.5326 (HOMO)
        68        0.2882           -0.4204272             -11.4404 (LUMO)
        69                         -0.3192843              -8.6882
        70                         -0.2859390              -7.7808
        71                         -0.2766420              -7.5278
        72                         -0.2590441              -7.0489
        73                         -0.2351572              -6.3990
        74                         -0.1614831              -4.3942
        75                         -0.1449229              -3.9436
        76                         -0.1395428              -3.7972
        77                         -0.1392937              -3.7904
        78                         -0.1272914              -3.4638
       ...                                ...                  ...
       134                          0.7265267              19.7698
      -------------------------------------------------------------
                  HL-Gap            0.0033885 Eh            0.0922 eV

Wiberg/Mayer (AO) data.
largest (>0.10) Wiberg bond orders for each atom

     #   Z sym  total        # sym  WBO       # sym  WBO       # sym  WBO
 ---------------------------------------------------------------------------
     1   6 C    3.867 --    28 H    0.986    26 H    0.979    27 H    0.979
                             2 O    0.893
     2   8 O    2.208 --     3 C    1.125     1 C    0.893     4 O    0.139
     3   6 C    3.848 --     4 O    1.667     2 O    1.125     5 C    0.980
     4   8 O    1.925 --     3 C    1.667     2 O    0.139
     5   6 C    3.919 --     6 N    1.351    24 C    1.343     3 C    0.980
     6   7 N    2.898 --     5 C    1.351     7 C    1.302
     7   6 C    3.922 --    21 N    1.466     6 N    1.302     8 C    0.990
     8   6 C    3.925 --     7 C    0.990    11 N    0.980    10 C    0.940
                             9 C    0.927
     9   6 C    3.962 --    29 H    0.986    30 H    0.983    31 H    0.978
                             8 C    0.927
    10   6 C    3.963 --    34 H    0.984    32 H    0.980    33 H    0.979
                             8 C    0.940
    11   7 N    3.309 --     8 C    0.980    12 C    0.975    35 H    0.876
                            14 O    0.201
    12   6 C    3.892 --    14 O    1.280    11 N    0.975    15 C    0.846
                            13 C    0.720
    13   6 C    3.794 --    38 H    0.987    36 H    0.980    37 H    0.977
                            12 C    0.720
    14   8 O    1.684 --    12 C    1.280    11 N    0.201
    15   6 C    3.804 --    16 N    1.644    20 O    1.074    12 C    0.846
    16   7 N    2.985 --    15 C    1.644    17 N    1.166
    17   7 N    2.983 --    18 C    1.626    16 N    1.166
    18   6 C    3.857 --    17 N    1.626    20 O    1.058    19 C    1.031
    19   6 C    3.984 --    18 C    1.031    40 H    0.981    39 H    0.965
                            41 H    0.961
    20   8 O    2.322 --    15 C    1.074    18 C    1.058
    21   7 N    3.004 --     7 C    1.466    22 C    1.173
    22   6 C    3.876 --    23 O    1.575    21 N    1.173    24 C    1.014
    23   8 O    1.814 --    22 C    1.575
    24   6 C    3.731 --     5 C    1.343    25 O    1.176    22 C    1.014
    25   8 O    2.073 --    24 C    1.176    42 H    0.788
    26   1 H    1.006 --     1 C    0.979
    27   1 H    1.006 --     1 C    0.979
    28   1 H    1.010 --     1 C    0.986
    29   1 H    1.001 --     9 C    0.986
    30   1 H    1.003 --     9 C    0.983
    31   1 H    1.009 --     9 C    0.978
    32   1 H    1.009 --    10 C    0.980
    33   1 H    1.010 --    10 C    0.979
    34   1 H    1.000 --    10 C    0.984
    35   1 H    0.962 --    11 N    0.876
    36   1 H    0.996 --    13 C    0.980
    37   1 H    1.000 --    13 C    0.977
    38   1 H    0.996 --    13 C    0.987
    39   1 H    0.996 --    19 C    0.965
    40   1 H    0.997 --    19 C    0.981
    41   1 H    0.996 --    19 C    0.961
    42   1 H    0.838 --    25 O    0.788
 ---------------------------------------------------------------------------

           -------------------------------------------------
          | TOTAL ENERGY              -82.874065554091 Eh   |
          | GRADIENT NORM               0.000470419220 Eh/α |
          | HOMO-LUMO GAP               0.092205444904 eV   |
           -------------------------------------------------

 * finished run on 2023/06/20 at 18:20:58.104
