   * xtb version 6.5.1 (579679a) compiled by 'ehlert@majestix' on 2022-07-11
          program call               : /lustre/hpc/kemi/ree/PhD/git/ReactivityQM/dep/xtb-6.5.1/bin/xtb --gfn 1 /lustre/hpc/kemi/ree/PhD/git/ReactivityQM/calculations/R02/reac01prodN01/conf10/R02_reac01prodN01_conf10_gfn1.xyz --opt --vfukui --chrg 1 --uhf 0 --alpb DMSO

   ID    Z sym.   atoms
    1    6 C      1, 3, 5, 7-10, 12, 14, 17, 18, 20, 22, 24
    2    8 O      2, 4, 13, 19, 23, 25
    3    7 N      6, 11, 15, 16, 21
    4    1 H      26-43

      * Solvation model:               ALPB
        Solvent                        DMSO
        Solvent mass                       7.8130E+01 g/mol
          :  Hamiltonian                  GFN1-xTB          :
 * total energy  :   -83.0826943 Eh     change       -0.3167600E-10 Eh
 * total energy  :   -83.1014134 Eh     change       -0.1871913E-01 Eh
 * total energy  :   -83.1098821 Eh     change       -0.8468691E-02 Eh
 * total energy  :   -83.1122194 Eh     change       -0.2337247E-02 Eh
 * total energy  :   -83.1135955 Eh     change       -0.1376160E-02 Eh
 * total energy  :   -83.1142367 Eh     change       -0.6412172E-03 Eh
 * total energy  :   -83.1147818 Eh     change       -0.5450478E-03 Eh
 * total energy  :   -83.1152016 Eh     change       -0.4198282E-03 Eh
 * total energy  :   -83.1155267 Eh     change       -0.3251029E-03 Eh
 * total energy  :   -83.1157249 Eh     change       -0.1982188E-03 Eh
 * total energy  :   -83.1170084 Eh     change       -0.9492245E-04 Eh
 * total energy  :   -83.1170232 Eh     change       -0.1482231E-04 Eh
 * total energy  :   -83.1170823 Eh     change       -0.5913206E-04 Eh
 * total energy  :   -83.1171101 Eh     change       -0.2773968E-04 Eh
 * total energy  :   -83.1171139 Eh     change       -0.3834942E-05 Eh
 * total energy  :   -83.1171552 Eh     change       -0.4126593E-04 Eh
 * total energy  :   -83.1171618 Eh     change       -0.6646617E-05 Eh
 * total energy  :   -83.1171684 Eh     change       -0.6570924E-05 Eh
 * total energy  :   -83.1171707 Eh     change       -0.2330687E-05 Eh
   *** GEOMETRY OPTIMIZATION CONVERGED AFTER 35 ITERATIONS ***

 final structure:
================
43
 xtb: 6.5.1 (579679a)
C           -7.02868439666174        1.66968920827638        0.11634022149360
O           -5.90887976782139        0.93602323067302       -0.39086199925839
C           -4.79270434093877        0.97960517523342        0.32945678022480
O           -4.69050771923273        1.59813905308421        1.36396459036407
C           -3.67247330826128        0.18902776560650       -0.26640062638318
N           -2.52733154362184        0.20369680791101        0.49675988959302
C           -1.48164674143127       -0.43228929249863        0.10558241019697
C           -0.23863347728537       -0.45274139076617        0.96724749344073
C           -0.33443255489713        0.60601299236470        2.06739801075928
C           -0.06953650941569       -1.86043320994567        1.55591963025438
N            0.90324047565124       -0.14578307290395        0.08223171958038
C            2.17290566994348       -0.16107802570287        0.50019648087587
O            2.57922501397443       -0.42464553511068        1.61484351627916
C            3.10962789653954        0.19374084854667       -0.61132017375565
N            2.84849815402050        0.55065835603058       -1.81131431056588
N            4.02495461704061        0.76560480120484       -2.47383939102058
C            4.99867288116817        0.53865003528223       -1.67722025750742
C            6.44629790722128        0.61901659516603       -1.92463341964010
O            4.49176549346534        0.16016376359242       -0.42757537878945
C            5.20281084230815       -0.19860342401124        0.80257813843658
N           -1.45176526906183       -1.15049379615874       -1.05968419974575
C           -2.53002872295222       -1.23245812447369       -1.90970179181451
O           -2.50122418692017       -1.86298570029236       -2.95410115417341
C           -3.70916092372588       -0.49885661291641       -1.44860318057177
O           -4.77280070516034       -0.56340879945414       -2.25360773249279
H           -6.77463207661434        2.72869824458520        0.20358989089350
H           -7.31559417796523        1.28395712011814        1.09758097006682
H           -7.83879719714336        1.53153666873380       -0.59707631522239
H           -1.20855428785753        0.40101810324414        2.68429890379424
H           -0.43782393240222        1.59541623856126        1.62512271887568
H            0.55824591276355        0.57976702231313        2.68811267228189
H           -0.97014662056897       -2.12885059718596        2.10668449293499
H            0.78149033472228       -1.88657546487210        2.23267391739874
H            0.08955140775198       -2.58215046982063        0.75746227074261
H            0.71829040258855        0.12611871059653       -0.87068529563256
H            6.60592987347100        0.94996686069942       -2.94945360434295
H            6.91486516428307        1.32256142868230       -1.23602139098411
H            6.90935155949849       -0.35806606494588       -1.78149389783995
H            6.26268056068857       -0.14985742430440        0.57491599969802
H            4.91724038307729        0.52366868354071        1.56439050807144
H            4.89271857500493       -1.20538290611086        1.07284825908966
H           -0.62128132934104       -1.65176386480405       -1.32988101663868
H           -4.55172233590071       -1.10631293776888       -3.03257534896639

          :  Hamiltonian                  GFN1-xTB          :
         :: total energy             -83.117170721822 Eh    ::
         :: gradient norm              0.000603223691 Eh/a0 ::
         :: HOMO-LUMO gap              2.017730038654 eV    ::
         :: SCC energy               -83.923090418172 Eh    ::
         :: -> Gsolv                  -0.130769036351 Eh    ::
         :: repulsion energy           0.832020343813 Eh    ::

    * Orbital Energies and Occupations

         #    Occupation            Energy/Eh            Energy/eV
      -------------------------------------------------------------
         1        2.0000           -0.9695655             -26.3832
       ...           ...                  ...                  ...
        55        2.0000           -0.5214846             -14.1903
        56        2.0000           -0.5176097             -14.0849
        57        2.0000           -0.5167524             -14.0615
        58        2.0000           -0.5154131             -14.0251
        59        2.0000           -0.5114569             -13.9175
        60        2.0000           -0.5011271             -13.6364
        61        2.0000           -0.4972523             -13.5309
        62        2.0000           -0.4965302             -13.5113
        63        2.0000           -0.4923080             -13.3964
        64        2.0000           -0.4827718             -13.1369
        65        2.0000           -0.4697464             -12.7824
        66        2.0000           -0.4596171             -12.5068
        67        2.0000           -0.4415526             -12.0153 (HOMO)
        68                         -0.3674023              -9.9975 (LUMO)
        69                         -0.3323041              -9.0425
        70                         -0.3154458              -8.5837
        71                         -0.2951439              -8.0313
        72                         -0.2482665              -6.7557
        73                         -0.2475269              -6.7356
        74                         -0.1906572              -5.1880
        75                         -0.1759370              -4.7875
        76                         -0.1671429              -4.5482
        77                         -0.1440692              -3.9203
        78                         -0.1405700              -3.8251
       ...                                ...                  ...
       136                          0.7275936              19.7988
      -------------------------------------------------------------
                  HL-Gap            0.0741502 Eh            2.0177 eV

Wiberg/Mayer (AO) data.
largest (>0.10) Wiberg bond orders for each atom

     #   Z sym  total        # sym  WBO       # sym  WBO       # sym  WBO
 ---------------------------------------------------------------------------
     1   6 C    3.869 --    28 H    0.986    26 H    0.979    27 H    0.979
                             2 O    0.894
     2   8 O    2.208 --     3 C    1.121     1 C    0.894     4 O    0.136
     3   6 C    3.853 --     4 O    1.658     2 O    1.121     5 C    0.995
     4   8 O    1.921 --     3 C    1.658     2 O    0.136
     5   6 C    3.962 --    24 C    1.509     6 N    1.170     3 C    0.995
     6   7 N    3.031 --     7 C    1.610     5 C    1.170
     7   6 C    3.934 --     6 N    1.610    21 N    1.154     8 C    0.981
     8   6 C    3.916 --     9 C    0.991     7 C    0.981    10 C    0.977
                            11 N    0.901
     9   6 C    3.986 --     8 C    0.991    30 H    0.984    31 H    0.982
                            29 H    0.982
    10   6 C    3.985 --    34 H    0.984    32 H    0.983    33 H    0.977
                             8 C    0.977
    11   7 N    3.380 --    12 C    1.297     8 C    0.901    35 H    0.888
                            13 O    0.193
    12   6 C    3.926 --    13 O    1.588    11 N    1.297    14 C    0.969
    13   8 O    1.946 --    12 C    1.588    11 N    0.193
    14   6 C    3.802 --    15 N    1.704    12 C    0.969    19 O    0.888
    15   7 N    3.045 --    14 C    1.704    16 N    1.148
    16   7 N    3.024 --    17 C    1.695    15 N    1.148
    17   6 C    3.802 --    16 N    1.695    18 C    1.044    19 O    0.876
    18   6 C    3.968 --    17 C    1.044    36 H    0.969    37 H    0.951
                            38 H    0.949
    19   8 O    2.655 --    14 C    0.888    17 C    0.876    20 C    0.744
    20   6 C    3.721 --    39 H    0.974    40 H    0.967    41 H    0.967
                            19 O    0.744
    21   7 N    3.460 --     7 C    1.154    22 C    1.134    42 H    0.882
                            23 O    0.134
    22   6 C    3.909 --    23 O    1.585    21 N    1.134    24 C    1.058
    23   8 O    1.909 --    22 C    1.585    21 N    0.134
    24   6 C    3.920 --     5 C    1.509    25 O    1.114    22 C    1.058
    25   8 O    2.092 --    24 C    1.114    43 H    0.804
    26   1 H    1.007 --     1 C    0.979
    27   1 H    1.007 --     1 C    0.979
    28   1 H    1.010 --     1 C    0.986
    29   1 H    1.007 --     9 C    0.982
    30   1 H    1.004 --     9 C    0.984
    31   1 H    1.004 --     9 C    0.982
    32   1 H    0.999 --    10 C    0.983
    33   1 H    1.004 --    10 C    0.977
    34   1 H    0.999 --    10 C    0.984
    35   1 H    0.936 --    11 N    0.888
    36   1 H    0.989 --    18 C    0.969
    37   1 H    0.988 --    18 C    0.951
    38   1 H    0.987 --    18 C    0.949
    39   1 H    0.990 --    20 C    0.974
    40   1 H    0.999 --    20 C    0.967
    41   1 H    0.998 --    20 C    0.967
    42   1 H    0.923 --    21 N    0.882
    43   1 H    0.843 --    25 O    0.804
 ---------------------------------------------------------------------------

           -------------------------------------------------
          | TOTAL ENERGY              -83.117170721822 Eh   |
          | GRADIENT NORM               0.000603223691 Eh/α |
          | HOMO-LUMO GAP               2.017730038654 eV   |
           -------------------------------------------------

 * finished run on 2023/06/20 at 15:18:25.279
