   * xtb version 6.5.1 (579679a) compiled by 'ehlert@majestix' on 2022-07-11
          program call               : /lustre/hpc/kemi/ree/PhD/git/ReactivityQM/dep/xtb-6.5.1/bin/xtb --gfn 1 /lustre/hpc/kemi/ree/PhD/git/ReactivityQM/calculations/R01/reac02prodN12/conf14/R01_reac02prodN12_conf14_gfn1.xyz --opt --vfukui --chrg 1 --uhf 0 --alpb DMSO

   ID    Z sym.   atoms
    1    6 C      1, 3, 5, 7-10, 13, 15, 16
    2    8 O      2, 4, 14, 17
    3    7 N      6, 11, 12
    4    1 H      18-33

      * Solvation model:               ALPB
        Solvent                        DMSO
        Solvent mass                       7.8130E+01 g/mol
          :  Hamiltonian                  GFN1-xTB          :
 * total energy  :   -57.8409429 Eh     change       -0.3510081E-11 Eh
 * total energy  :   -57.8587396 Eh     change       -0.1779669E-01 Eh
 * total energy  :   -57.8644665 Eh     change       -0.5726966E-02 Eh
 * total energy  :   -57.8659230 Eh     change       -0.1456426E-02 Eh
 * total energy  :   -57.8669645 Eh     change       -0.1041572E-02 Eh
 * total energy  :   -57.8673201 Eh     change       -0.3555890E-03 Eh
 * total energy  :   -57.8674967 Eh     change       -0.1765538E-03 Eh
 * total energy  :   -57.8675897 Eh     change       -0.9299862E-04 Eh
 * total energy  :   -57.8676538 Eh     change       -0.6414637E-04 Eh
 * total energy  :   -57.8677057 Eh     change       -0.5188487E-04 Eh
 * total energy  :   -57.8678135 Eh     change       -0.2480234E-04 Eh
 * total energy  :   -57.8678351 Eh     change       -0.2159331E-04 Eh
 * total energy  :   -57.8678549 Eh     change       -0.1986195E-04 Eh
 * total energy  :   -57.8678694 Eh     change       -0.1448554E-04 Eh
 * total energy  :   -57.8678814 Eh     change       -0.1195837E-04 Eh
 * total energy  :   -57.8678914 Eh     change       -0.1000145E-04 Eh
 * total energy  :   -57.8678990 Eh     change       -0.7631655E-05 Eh
 * total energy  :   -57.8679047 Eh     change       -0.5731241E-05 Eh
 * total energy  :   -57.8679089 Eh     change       -0.4133673E-05 Eh
   *** GEOMETRY OPTIMIZATION CONVERGED AFTER 21 ITERATIONS ***

 final structure:
================
33
 xtb: 6.5.1 (579679a)
C            2.95401516582050       -3.55584580484983        0.52238150590393
O            1.95199705533758       -2.53701299649921        0.36702128387348
C            2.36988037525888       -1.29489057471596        0.30851797015400
O            3.53419174568276       -0.95654228612058        0.38752537579700
C            1.26790624673535       -0.29858670637172        0.12092861161314
N            0.00481044895232       -0.76138936397936        0.06955692837561
C           -0.97026360313054        0.08142558660184       -0.11632373484557
C           -2.41725623214677       -0.34286655582728       -0.14459217538456
C           -2.88716082031923       -0.48446238398928        1.31122898201267
C           -2.56007235591890       -1.67257599851882       -0.89562552191210
N           -3.16384733597590        0.73507258655030       -0.78110983765315
N           -0.72604776441178        1.40983053648202       -0.24810021953374
C            0.49520659385902        1.95361830847090       -0.20250766414864
O            0.52297691459443        3.25232900730650       -0.35299665171872
C            1.73548438941262        4.02599814790860       -0.32641823738989
C            1.57813234647068        1.05507845947105       -0.00294826070146
O            2.81605815073876        1.53338435442487        0.04801359022358
H            2.42337486946225       -4.50498698199766        0.54879546404354
H            3.64447294024393       -3.52190694750871       -0.32237772797475
H            3.50355402669850       -3.39305201848739        1.45115575062827
H           -3.91967957710924       -0.82909085222565        1.32578258151736
H           -2.82617850400027        0.47843413073679        1.81574198111594
H           -2.26257178680812       -1.20461840216305        1.83811796869567
H           -1.96077720036995       -2.43902942048911       -0.40509082104824
H           -3.60440093698284       -1.97801205123610       -0.89888896705886
H           -2.21896776618603       -1.56108997564482       -1.92346302333521
H           -4.13466321196902        0.69516549035190       -0.50460751978775
H           -3.12197415629602        0.63714268312759       -1.78621670712736
H           -1.54691082544802        1.99685919629422       -0.41699663627458
H            2.23205929092604        3.91434928896065        0.63793257538027
H            2.40006881158735        3.71328188645061       -1.13224223407105
H            1.41832280692335        5.05765592844737       -0.47377493855147
H            3.46826089836802        0.79633072903955        0.18158130918216

          :  Hamiltonian                  GFN1-xTB          :
         :: total energy             -57.867908862854 Eh    ::
         :: gradient norm              0.000578556679 Eh/a0 ::
         :: HOMO-LUMO gap              1.737793006778 eV    ::
         :: SCC energy               -58.439954284520 Eh    ::
         :: -> Gsolv                  -0.087130550065 Eh    ::
         :: repulsion energy           0.589981994580 Eh    ::

    * Orbital Energies and Occupations

         #    Occupation            Energy/Eh            Energy/eV
      -------------------------------------------------------------
         1        2.0000           -0.8912603             -24.2524
       ...           ...                  ...                  ...
        35        2.0000           -0.5385116             -14.6536
        36        2.0000           -0.5342742             -14.5383
        37        2.0000           -0.5309874             -14.4489
        38        2.0000           -0.5308222             -14.4444
        39        2.0000           -0.5288472             -14.3907
        40        2.0000           -0.5219847             -14.2039
        41        2.0000           -0.5202675             -14.1572
        42        2.0000           -0.5162593             -14.0481
        43        2.0000           -0.5084807             -13.8365
        44        2.0000           -0.5029911             -13.6871
        45        2.0000           -0.4836677             -13.1613
        46        2.0000           -0.4749980             -12.9254
        47        2.0000           -0.4390143             -11.9462 (HOMO)
        48                         -0.3751516             -10.2084 (LUMO)
        49                         -0.3278758              -8.9220
        50                         -0.2841140              -7.7311
        51                         -0.2015815              -5.4853
        52                         -0.1575782              -4.2879
        53                         -0.1482589              -4.0343
        54                         -0.1386938              -3.7741
        55                         -0.1351313              -3.6771
        56                         -0.1267767              -3.4498
        57                         -0.1108638              -3.0168
        58                         -0.1027737              -2.7966
       ...                                ...                  ...
       100                          0.6837287              18.6052
      -------------------------------------------------------------
                  HL-Gap            0.0638627 Eh            1.7378 eV

Wiberg/Mayer (AO) data.
largest (>0.10) Wiberg bond orders for each atom

     #   Z sym  total        # sym  WBO       # sym  WBO       # sym  WBO
 ---------------------------------------------------------------------------
     1   6 C    3.848 --    18 H    0.985    20 H    0.977    19 H    0.977
                             2 O    0.876
     2   8 O    2.244 --     3 C    1.174     1 C    0.876     4 O    0.142
     3   6 C    3.856 --     4 O    1.623     2 O    1.174     5 C    0.985
     4   8 O    1.972 --     3 C    1.623     2 O    0.142
     5   6 C    3.970 --    16 C    1.380     6 N    1.297     3 C    0.985
     6   7 N    3.040 --     7 C    1.499     5 C    1.297
     7   6 C    3.898 --     6 N    1.499    12 N    1.197     8 C    0.983
     8   6 C    3.959 --    11 N    0.991     7 C    0.983    10 C    0.981
                             9 C    0.969
     9   6 C    3.988 --    22 H    0.985    23 H    0.985    21 H    0.980
                             8 C    0.969
    10   6 C    3.990 --    26 H    0.984    25 H    0.984    24 H    0.983
                             8 C    0.981
    11   7 N    2.989 --     8 C    0.991    28 H    0.934    27 H    0.929
    12   7 N    3.546 --    13 C    1.276     7 C    1.197    29 H    0.838
    13   6 C    3.894 --    12 N    1.276    16 C    1.204    14 O    1.175
    14   8 O    2.252 --    13 C    1.175    15 C    0.860
    15   6 C    3.829 --    32 H    0.981    30 H    0.977    31 H    0.976
                            14 O    0.860
    16   6 C    3.933 --     5 C    1.380    13 C    1.204    17 O    1.134
    17   8 O    2.093 --    16 C    1.134    33 H    0.744
    18   1 H    1.007 --     1 C    0.985
    19   1 H    1.002 --     1 C    0.977
    20   1 H    1.002 --     1 C    0.977
    21   1 H    0.997 --     9 C    0.980
    22   1 H    1.000 --     9 C    0.985
    23   1 H    1.001 --     9 C    0.985
    24   1 H    1.005 --    10 C    0.983
    25   1 H    0.999 --    10 C    0.984
    26   1 H    1.000 --    10 C    0.984
    27   1 H    0.943 --    11 N    0.929
    28   1 H    0.946 --    11 N    0.934
    29   1 H    0.933 --    12 N    0.838
    30   1 H    1.005 --    15 C    0.977
    31   1 H    1.005 --    15 C    0.976
    32   1 H    1.004 --    15 C    0.981
    33   1 H    0.828 --    17 O    0.744
 ---------------------------------------------------------------------------

           -------------------------------------------------
          | TOTAL ENERGY              -57.867908862854 Eh   |
          | GRADIENT NORM               0.000578556679 Eh/α |
          | HOMO-LUMO GAP               1.737793006778 eV   |
           -------------------------------------------------

 * finished run on 2023/06/20 at 15:11:45.194
