   * xtb version 6.5.1 (579679a) compiled by 'ehlert@majestix' on 2022-07-11
          program call               : /lustre/hpc/kemi/ree/PhD/git/ReactivityQM/dep/xtb-6.5.1/bin/xtb --gfn 1 /lustre/hpc/kemi/ree/PhD/git/ReactivityQM/calculations/R02deprot/reac01/conf16/R02deprot_reac01_conf16_gfn1.xyz --opt --vfukui --chrg -1 --uhf 0 --alpb DMSO

   ID    Z sym.   atoms
    1    6 C      1, 3, 5, 7-10, 12, 14, 17, 18, 21, 23
    2    8 O      2, 4, 13, 19, 22, 24
    3    7 N      6, 11, 15, 16, 20
    4    1 H      25-38

      * Solvation model:               ALPB
        Solvent                        DMSO
        Solvent mass                       7.8130E+01 g/mol
          :  Hamiltonian                  GFN1-xTB          :
 * total energy  :   -79.5946159 Eh     change       -0.3529976E-10 Eh
 * total energy  :   -79.6057972 Eh     change       -0.1118130E-01 Eh
 * total energy  :   -79.6097612 Eh     change       -0.3964061E-02 Eh
 * total energy  :   -79.6103256 Eh     change       -0.5643894E-03 Eh
 * total energy  :   -79.6107431 Eh     change       -0.4174871E-03 Eh
 * total energy  :   -79.6109886 Eh     change       -0.2454908E-03 Eh
 * total energy  :   -79.6112388 Eh     change       -0.2502170E-03 Eh
 * total energy  :   -79.6114919 Eh     change       -0.2530465E-03 Eh
 * total energy  :   -79.6117072 Eh     change       -0.2153361E-03 Eh
 * total energy  :   -79.6118665 Eh     change       -0.1593248E-03 Eh
 * total energy  :   -79.6132786 Eh     change       -0.1851778E-04 Eh
 * total energy  :   -79.6132935 Eh     change       -0.1491251E-04 Eh
 * total energy  :   -79.6133070 Eh     change       -0.1346300E-04 Eh
 * total energy  :   -79.6133163 Eh     change       -0.9269867E-05 Eh
 * total energy  :   -79.6133210 Eh     change       -0.4760503E-05 Eh
 * total energy  :   -79.6133282 Eh     change       -0.7164716E-05 Eh
 * total energy  :   -79.6133330 Eh     change       -0.4754535E-05 Eh
 * total energy  :   -79.6133385 Eh     change       -0.5563015E-05 Eh
 * total energy  :   -79.6133407 Eh     change       -0.2157499E-05 Eh
   *** GEOMETRY OPTIMIZATION CONVERGED AFTER 45 ITERATIONS ***

 final structure:
================
38
 xtb: 6.5.1 (579679a)
C           -6.35343057914999        0.36137077771919        1.43082439006049
O           -4.94750156548321        0.25053456701913        1.66233327139430
C           -4.17571788415883        0.12907204618775        0.55747072519075
O           -4.66552706682733        0.10460355985053       -0.55255423682841
C           -2.72834550847697        0.04362958961687        0.84209171177009
N           -1.96281665851008       -0.05102522196230       -0.29036938906562
C           -0.65955192665624       -0.10555889056700       -0.13180309975422
C            0.15110500930955       -0.20864305850707       -1.42028503394150
C           -0.15287235473964       -1.55388433665492       -2.09500556233566
C           -0.21661170039499        0.95911144667367       -2.34469939723819
N            1.56458162245981       -0.13864981040343       -1.05477642897209
C            2.57607817519754       -0.18230013038442       -1.92324258354334
O            2.47539859495127       -0.28422467174948       -3.14108583234026
C            3.91416373549779       -0.08857496423151       -1.26979787752636
N            5.07402978676652       -0.08991150754073       -1.85214036620027
N            6.01110432137530        0.02302405269084       -0.86549823822034
C            5.36391760613016        0.08602876450875        0.25603103208650
C            5.92699577635866        0.21324967670496        1.61842364731911
O            4.03545540296238        0.02072232441201        0.07091932451944
N            0.01288205363114       -0.08862820453125        1.01136967215110
C           -0.66427832372576       -0.00735660224735        2.19222093053498
O           -0.08293183890077        0.00746892942785        3.28729165156173
C           -2.13330578973570        0.06451921607260        2.08249558273079
O           -2.79026909722269        0.15152883975342        3.26464084010619
H           -6.72339237699503       -0.52952190800052        0.91702333733834
H           -6.82720416740801        0.45602345744097        2.40518045565101
H           -6.56652629265439        1.24330997029890        0.82132824637386
H            0.35940084503487       -1.62969333101739       -3.05288058540312
H           -1.22741084042261       -1.63145051053125       -2.25697566459775
H            0.16828505074742       -2.37421450862746       -1.45402888112984
H           -1.29517888653825        0.95689032351111       -2.49880132947221
H            0.07213608756324        1.90386864701810       -1.88510100710521
H            0.28266150751210        0.86367581939523       -3.30756966478550
H            1.74427529841013       -0.06965078976186       -0.05463226575031
H            7.01036814255113        0.27120795995371        1.55996914261289
H            5.53970838422201        1.10955849865485        2.10166248555448
H            5.64119220441435       -0.64719236819829        2.22266316846310
H           -3.75086474710582        0.20514634799878        3.14730882879016

          :  Hamiltonian                  GFN1-xTB          :
         :: total energy             -79.613340677429 Eh    ::
         :: gradient norm              0.000646231407 Eh/a0 ::
         :: HOMO-LUMO gap              1.954563111037 eV    ::
         :: SCC energy               -80.333171442364 Eh    ::
         :: -> Gsolv                  -0.111040986940 Eh    ::
         :: repulsion energy           0.742545565312 Eh    ::

    * Orbital Energies and Occupations

         #    Occupation            Energy/Eh            Energy/eV
      -------------------------------------------------------------
         1        2.0000           -0.8567507             -23.3134
       ...           ...                  ...                  ...
        52        2.0000           -0.4742992             -12.9063
        53        2.0000           -0.4704261             -12.8009
        54        2.0000           -0.4690668             -12.7640
        55        2.0000           -0.4539169             -12.3517
        56        2.0000           -0.4508286             -12.2677
        57        2.0000           -0.4495554             -12.2330
        58        2.0000           -0.4400397             -11.9741
        59        2.0000           -0.4327097             -11.7746
        60        2.0000           -0.4300282             -11.7017
        61        2.0000           -0.4183156             -11.3829
        62        2.0000           -0.3989293             -10.8554
        63        2.0000           -0.3726290             -10.1398
        64        2.0000           -0.3684904             -10.0271 (HOMO)
        65                         -0.2966616              -8.0726 (LUMO)
        66                         -0.2780421              -7.5659
        67                         -0.2498596              -6.7990
        68                         -0.2255710              -6.1381
        69                         -0.1900767              -5.1723
        70                         -0.1848885              -5.0311
        71                         -0.1396398              -3.7998
        72                         -0.1266357              -3.4459
        73                         -0.1085304              -2.9533
        74                         -0.1043923              -2.8407
        75                         -0.1020460              -2.7768
       ...                                ...                  ...
       124                          0.7417501              20.1840
      -------------------------------------------------------------
                  HL-Gap            0.0718289 Eh            1.9546 eV

Wiberg/Mayer (AO) data.
largest (>0.10) Wiberg bond orders for each atom

     #   Z sym  total        # sym  WBO       # sym  WBO       # sym  WBO
 ---------------------------------------------------------------------------
     1   6 C    3.878 --    26 H    0.987    27 H    0.980    25 H    0.980
                             2 O    0.901
     2   8 O    2.184 --     3 C    1.057     1 C    0.901     4 O    0.119
     3   6 C    3.833 --     4 O    1.646     2 O    1.057     5 C    1.034
     4   8 O    1.907 --     3 C    1.646     2 O    0.119
     5   6 C    3.962 --    23 C    1.474     6 N    1.200     3 C    1.034
     6   7 N    2.995 --     7 C    1.458     5 C    1.200
     7   6 C    3.958 --     6 N    1.458    20 N    1.377     8 C    0.969
     8   6 C    3.929 --    10 C    0.986     9 C    0.983     7 C    0.969
                            11 N    0.922
     9   6 C    3.993 --    30 H    0.987    29 H    0.985    28 H    0.984
                             8 C    0.983
    10   6 C    3.993 --    32 H    0.987     8 C    0.986    31 H    0.984
                            33 H    0.984
    11   7 N    3.393 --    12 C    1.311     8 C    0.922    34 H    0.871
                            13 O    0.188
    12   6 C    3.925 --    13 O    1.551    11 N    1.311    14 C    0.982
    13   8 O    1.872 --    12 C    1.551    11 N    0.188
    14   6 C    3.867 --    15 N    1.626    19 O    1.050    12 C    0.982
    15   7 N    2.993 --    14 C    1.626    16 N    1.191
    16   7 N    2.979 --    17 C    1.617    15 N    1.191
    17   6 C    3.872 --    16 N    1.617    19 O    1.074    18 C    1.030
    18   6 C    3.988 --    17 C    1.030    35 H    0.983    36 H    0.965
                            37 H    0.964
    19   8 O    2.317 --    17 C    1.074    14 C    1.050
    20   7 N    3.012 --     7 C    1.377    21 C    1.220    22 O    0.125
    21   6 C    3.928 --    22 O    1.507    20 N    1.220    23 C    1.067
    22   8 O    1.794 --    21 C    1.507    20 N    0.125
    23   6 C    3.902 --     5 C    1.474    21 C    1.067    24 O    1.064
    24   8 O    2.049 --    23 C    1.064    38 H    0.822
    25   1 H    1.010 --     1 C    0.980
    26   1 H    1.012 --     1 C    0.987
    27   1 H    1.010 --     1 C    0.980
    28   1 H    1.012 --     9 C    0.984
    29   1 H    1.013 --     9 C    0.985
    30   1 H    1.005 --     9 C    0.987
    31   1 H    1.017 --    10 C    0.984
    32   1 H    1.006 --    10 C    0.987
    33   1 H    1.013 --    10 C    0.984
    34   1 H    0.972 --    11 N    0.871
    35   1 H    1.000 --    18 C    0.983
    36   1 H    0.998 --    18 C    0.965
    37   1 H    0.998 --    18 C    0.964
    38   1 H    0.874 --    24 O    0.822
 ---------------------------------------------------------------------------

           -------------------------------------------------
          | TOTAL ENERGY              -79.613340677429 Eh   |
          | GRADIENT NORM               0.000646231407 Eh/α |
          | HOMO-LUMO GAP               1.954563111037 eV   |
           -------------------------------------------------

 * finished run on 2023/06/20 at 17:32:25.751
