   * xtb version 6.5.1 (579679a) compiled by 'ehlert@majestix' on 2022-07-11
          program call               : /lustre/hpc/kemi/ree/PhD/git/ReactivityQM/dep/xtb-6.5.1/bin/xtb --gfn 1 /lustre/hpc/kemi/ree/PhD/git/ReactivityQM/calculations/R02deprot/reac01prodN08/conf19/R02deprot_reac01prodN08_conf19_gfn1.xyz --opt --vfukui --chrg 0 --uhf 0 --alpb DMSO

   ID    Z sym.   atoms
    1    6 C      1, 3, 5, 7-10, 12, 14, 17-19, 22, 24
    2    8 O      2, 4, 13, 20, 23, 25
    3    7 N      6, 11, 15, 16, 21
    4    1 H      26-42

      * Solvation model:               ALPB
        Solvent                        DMSO
        Solvent mass                       7.8130E+01 g/mol
          :  Hamiltonian                  GFN1-xTB          :
 * total energy  :   -82.9458815 Eh     change       -0.2673062E-09 Eh
 * total energy  :   -82.9643663 Eh     change       -0.1848480E-01 Eh
 * total energy  :   -82.9709433 Eh     change       -0.6576977E-02 Eh
 * total energy  :   -82.9721264 Eh     change       -0.1183108E-02 Eh
 * total energy  :   -82.9729287 Eh     change       -0.8023553E-03 Eh
 * total energy  :   -82.9732335 Eh     change       -0.3047066E-03 Eh
 * total energy  :   -82.9734867 Eh     change       -0.2532160E-03 Eh
 * total energy  :   -82.9736579 Eh     change       -0.1711840E-03 Eh
 * total energy  :   -82.9737713 Eh     change       -0.1134499E-03 Eh
 * total energy  :   -82.9738681 Eh     change       -0.9682160E-04 Eh
 * total energy  :   -82.9765221 Eh     change       -0.1875739E-04 Eh
 * total energy  :   -82.9765279 Eh     change       -0.5804174E-05 Eh
 * total energy  :   -82.9765432 Eh     change       -0.1526867E-04 Eh
 * total energy  :   -82.9765497 Eh     change       -0.6568173E-05 Eh
 * total energy  :   -82.9765585 Eh     change       -0.8797142E-05 Eh
 * total energy  :   -82.9765666 Eh     change       -0.8025102E-05 Eh
 * total energy  :   -82.9765739 Eh     change       -0.7345785E-05 Eh
 * total energy  :   -82.9765805 Eh     change       -0.6611183E-05 Eh
 * total energy  :   -82.9765854 Eh     change       -0.4858195E-05 Eh
   *** GEOMETRY OPTIMIZATION CONVERGED AFTER 53 ITERATIONS ***

 final structure:
================
42
 xtb: 6.5.1 (579679a)
C            7.25162711206338        0.21443340678216        0.40389424011123
O            5.87440586203427        0.38922989717008        0.72856248893801
C            4.99695195666728        0.16938105611553       -0.26360470552427
O            5.35669922700114       -0.15007420810835       -1.37993016627440
C            3.58330955612446        0.34247620655629        0.14242638117034
N            2.67320003215466        0.05631692870832       -0.84519716713661
C            1.40266578604901        0.16110219353496       -0.54577368942391
C            0.42300369975070       -0.16764700320172       -1.66722925910971
C            0.50301264753546        0.91428647771245       -2.75171644099545
C            0.73151559901675       -1.55208498562603       -2.24597648136443
N           -0.90945769941613       -0.15797377115340       -1.05648244819988
C           -2.04615653780543       -0.44087565918273       -1.67559824162764
O           -2.20834753683823       -0.75527327541256       -2.84006522351544
C           -3.21406267320681       -0.33865387405423       -0.71994441725997
N           -3.18359688548088        0.00706259154716        0.53243280649040
N           -4.46445159177034       -0.06879580001549        0.94488729796194
C           -4.79554187680809        0.24690388142618        2.31686669488964
C           -5.23383103752758       -0.45607554183744       -0.04947385057414
C           -6.68853166025156       -0.68564523453439       -0.07026615322495
O           -4.47002705910723       -0.63023002588295       -1.10783493281731
N            0.86560546452066        0.52967206786448        0.61891447092723
C            1.69769865094644        0.84383086417637        1.64164620341779
O            1.31644618587095        1.20519370360494        2.77018238114279
C            3.13652463591312        0.73706838434991        1.37610256250268
O            3.92725340859490        1.05221211196477        2.42431643839348
H            7.54992105718905        0.91234437088437       -0.38348075027738
H            7.43535122232547       -0.80820862408033        0.06254475236873
H            7.81754043637453        0.41183300363634        1.31266802735476
H            1.52489036647556        0.96238094195081       -3.12681145437371
H            0.23253586343044        1.88222269083288       -2.33184016377265
H           -0.17189298162264        0.68198826717922       -3.57391490213704
H            1.77506831453050       -1.57308211294538       -2.55988360229290
H            0.09384397968920       -1.76402094283430       -3.10237699953417
H            0.57458912501450       -2.31726451870221       -1.48687189947317
H           -0.90046373922013        0.11928162937718       -0.07179984192916
H           -5.87461663698607        0.32918231778335        2.40224510203284
H           -4.31625737061258        1.18870565757126        2.57827109610895
H           -4.42535970642106       -0.55123156047803        2.95948902420587
H           -6.94526568692647       -1.50479937145941        0.60266923752080
H           -7.21508675976981        0.20606426559142        0.27022141155947
H           -7.00015885430867       -0.93523671410053       -1.08259934920476
H            3.31944810480826        1.29399930730174        3.15466952294274

          :  Hamiltonian                  GFN1-xTB          :
         :: total energy             -82.976585387243 Eh    ::
         :: gradient norm              0.000287050793 Eh/a0 ::
         :: HOMO-LUMO gap              0.883479937518 eV    ::
         :: SCC energy               -83.758312177675 Eh    ::
         :: -> Gsolv                  -0.096097609142 Eh    ::
         :: repulsion energy           0.806476258598 Eh    ::

    * Orbital Energies and Occupations

         #    Occupation            Energy/Eh            Energy/eV
      -------------------------------------------------------------
         1        2.0000           -0.9305055             -25.3203
       ...           ...                  ...                  ...
        55        2.0000           -0.4967811             -13.5181
        56        2.0000           -0.4958824             -13.4936
        57        2.0000           -0.4884298             -13.2909
        58        2.0000           -0.4827170             -13.1354
        59        2.0000           -0.4812646             -13.0959
        60        2.0000           -0.4703357             -12.7985
        61        2.0000           -0.4560898             -12.4108
        62        2.0000           -0.4547581             -12.3746
        63        2.0000           -0.4474463             -12.1756
        64        2.0000           -0.4285205             -11.6606
        65        2.0000           -0.4112446             -11.1905
        66        2.0000           -0.3848490             -10.4723
        67        2.0000           -0.3799502             -10.3390 (HOMO)
        68                         -0.3474829              -9.4555 (LUMO)
        69                         -0.3382955              -9.2055
        70                         -0.2828440              -7.6966
        71                         -0.2371662              -6.4536
        72                         -0.2269701              -6.1762
        73                         -0.1973537              -5.3703
        74                         -0.1826677              -4.9706
        75                         -0.1704786              -4.6390
        76                         -0.1298343              -3.5330
        77                         -0.1181270              -3.2144
        78                         -0.1173361              -3.1929
       ...                                ...                  ...
       134                          0.7386525              20.0998
      -------------------------------------------------------------
                  HL-Gap            0.0324673 Eh            0.8835 eV

Wiberg/Mayer (AO) data.
largest (>0.10) Wiberg bond orders for each atom

     #   Z sym  total        # sym  WBO       # sym  WBO       # sym  WBO
 ---------------------------------------------------------------------------
     1   6 C    3.886 --    28 H    0.987    27 H    0.980    26 H    0.980
                             2 O    0.910
     2   8 O    2.185 --     3 C    1.087     1 C    0.910     4 O    0.125
     3   6 C    3.839 --     4 O    1.635     2 O    1.087     5 C    1.025
     4   8 O    1.896 --     3 C    1.635     2 O    0.125
     5   6 C    3.963 --    24 C    1.485     6 N    1.194     3 C    1.025
     6   7 N    2.999 --     7 C    1.484     5 C    1.194
     7   6 C    3.959 --     6 N    1.484    21 N    1.350     8 C    0.968
     8   6 C    3.915 --    10 C    0.986     9 C    0.981     7 C    0.968
                            11 N    0.909
     9   6 C    3.992 --    30 H    0.986    29 H    0.984    31 H    0.984
                             8 C    0.981
    10   6 C    3.992 --     8 C    0.986    34 H    0.986    33 H    0.984
                            32 H    0.982
    11   7 N    3.418 --    12 C    1.336     8 C    0.909    35 H    0.855
                            13 O    0.209
    12   6 C    3.931 --    13 O    1.579    11 N    1.336    14 C    0.944
    13   8 O    1.911 --    12 C    1.579    11 N    0.209
    14   6 C    3.830 --    15 N    1.611    20 O    1.062    12 C    0.944
    15   7 N    2.984 --    14 C    1.611    16 N    1.143
    16   7 N    3.632 --    18 C    1.429    15 N    1.143    17 C    0.913
    17   6 C    3.889 --    36 H    0.981    37 H    0.970    38 H    0.965
                            16 N    0.913
    18   6 C    3.846 --    16 N    1.429    20 O    1.154    19 C    1.038
    19   6 C    3.963 --    18 C    1.038    41 H    0.973    40 H    0.950
                            39 H    0.945
    20   8 O    2.384 --    18 C    1.154    14 C    1.062
    21   7 N    3.024 --     7 C    1.350    22 C    1.243    23 O    0.126
    22   6 C    3.928 --    23 O    1.479    21 N    1.243    24 C    1.070
    23   8 O    1.813 --    22 C    1.479    21 N    0.126
    24   6 C    3.907 --     5 C    1.485    25 O    1.076    22 C    1.070
    25   8 O    2.052 --    24 C    1.076    42 H    0.813
    26   1 H    1.010 --     1 C    0.980
    27   1 H    1.011 --     1 C    0.980
    28   1 H    1.013 --     1 C    0.987
    29   1 H    1.009 --     9 C    0.984
    30   1 H    1.004 --     9 C    0.986
    31   1 H    1.007 --     9 C    0.984
    32   1 H    1.015 --    10 C    0.982
    33   1 H    1.009 --    10 C    0.984
    34   1 H    1.004 --    10 C    0.986
    35   1 H    0.972 --    11 N    0.855
    36   1 H    0.990 --    17 C    0.981
    37   1 H    0.991 --    17 C    0.970
    38   1 H    0.990 --    17 C    0.965
    39   1 H    0.987 --    19 C    0.945
    40   1 H    0.987 --    19 C    0.950
    41   1 H    0.987 --    19 C    0.973
    42   1 H    0.873 --    25 O    0.813
 ---------------------------------------------------------------------------

           -------------------------------------------------
          | TOTAL ENERGY              -82.976585387243 Eh   |
          | GRADIENT NORM               0.000287050793 Eh/α |
          | HOMO-LUMO GAP               0.883479937518 eV   |
           -------------------------------------------------

 * finished run on 2023/06/20 at 18:15:20.524
