   * xtb version 6.5.1 (579679a) compiled by 'ehlert@majestix' on 2022-07-11
          program call               : /lustre/hpc/kemi/ree/PhD/git/ReactivityQM/dep/xtb-6.5.1/bin/xtb --gfn 1 /lustre/hpc/kemi/ree/PhD/git/ReactivityQM/calculations/R03/reac01prodE04/conf05/R03_reac01prodE04_conf05_gfn1.xyz --opt --vfukui --chrg -1 --uhf 0 --alpb DMSO

   ID    Z sym.   atoms
    1    6 C      1, 2, 4-7, 9, 10
    2    9 F      3
    3    7 N      8
    4    1 H      11-21

      * Solvation model:               ALPB
        Solvent                        DMSO
        Solvent mass                       7.8130E+01 g/mol
          :  Hamiltonian                  GFN1-xTB          :
 * total energy  :   -31.4694280 Eh     change       -0.1928058E-10 Eh
 * total energy  :   -31.4755020 Eh     change       -0.6073971E-02 Eh
 * total energy  :   -31.4786056 Eh     change       -0.3103565E-02 Eh
 * total energy  :   -31.4805273 Eh     change       -0.1921743E-02 Eh
 * total energy  :   -31.4830552 Eh     change       -0.2527858E-02 Eh
 * total energy  :   -31.4885840 Eh     change       -0.5528870E-02 Eh
 * total energy  :   -31.4951524 Eh     change       -0.6568335E-02 Eh
 * total energy  :   -31.4982481 Eh     change       -0.3095706E-02 Eh
 * total energy  :   -31.5012248 Eh     change       -0.2976683E-02 Eh
 * total energy  :   -31.5033466 Eh     change       -0.2121867E-02 Eh
 * total energy  :   -31.5129536 Eh     change       -0.1413243E-04 Eh
 * total energy  :   -31.5129797 Eh     change       -0.2612723E-04 Eh
 * total energy  :   -31.5129940 Eh     change       -0.1434800E-04 Eh
 * total energy  :   -31.5130095 Eh     change       -0.1550365E-04 Eh
 * total energy  :   -31.5130319 Eh     change       -0.2236335E-04 Eh
 * total energy  :   -31.5130447 Eh     change       -0.1279667E-04 Eh
 * total energy  :   -31.5130554 Eh     change       -0.1075163E-04 Eh
 * total energy  :   -31.5130642 Eh     change       -0.8709404E-05 Eh
 * total energy  :   -31.5130681 Eh     change       -0.3977136E-05 Eh
   *** GEOMETRY OPTIMIZATION CONVERGED AFTER 70 ITERATIONS ***

 final structure:
================
21
 xtb: 6.5.1 (579679a)
C           -3.09433074744790       -0.17036056767381        0.30196264243850
C           -1.62082857334530       -0.16937797513013        0.02111047375025
F           -3.70508685218661        1.87527043758284        2.49681659608700
C           -0.73435196881102       -0.82584753592903        0.87667634981138
C            0.62972412370849       -0.80649164611097        0.63462378915596
C            1.14734430112953       -0.13112735116861       -0.46957122869356
C            2.63525008016570       -0.14108212791929       -0.73237200725641
N            3.38367260262594        0.06423504143295        0.51282212593951
C            0.26751916839179        0.52378388025329       -1.32502318978733
C           -1.09982613403551        0.50451119470731       -1.08160542699343
H           -3.42159748980924       -1.15010603916761        0.65231712588338
H           -3.66224390053612        0.09308884729041       -0.59050292252124
H           -3.32382740078866        0.56592610704680        1.08874024578024
H           -1.11555761456437       -1.36560554772012        1.73870018925494
H            1.31054013766299       -1.31677964008236        1.30925382805047
H            2.92052593513083       -1.12079641242542       -1.13419404824228
H            2.89728759629622        0.61763287580649       -1.48409831156785
H            4.35147257135654       -0.16288027830476        0.34008277291175
H            3.35189047770697        1.04669901823379        0.75522124817846
H            0.64990815747243        1.05140699097650       -2.19243382623313
H           -1.76748447025482        1.01790072819189       -1.76649742593829

          :  Hamiltonian                  GFN1-xTB          :
         :: total energy             -31.513068127303 Eh    ::
         :: gradient norm              0.000634718326 Eh/a0 ::
         :: HOMO-LUMO gap              2.439445074678 eV    ::
         :: SCC energy               -31.916227339814 Eh    ::
         :: -> Gsolv                  -0.130334379252 Eh    ::
         :: repulsion energy           0.412733410907 Eh    ::

    * Orbital Energies and Occupations

         #    Occupation            Energy/Eh            Energy/eV
      -------------------------------------------------------------
         1        2.0000           -0.7375227             -20.0690
       ...           ...                  ...                  ...
        16        2.0000           -0.5070023             -13.7962
        17        2.0000           -0.4982005             -13.5567
        18        2.0000           -0.4845987             -13.1866
        19        2.0000           -0.4777900             -13.0013
        20        2.0000           -0.4686433             -12.7524
        21        2.0000           -0.4481938             -12.1960
        22        2.0000           -0.4464408             -12.1483
        23        2.0000           -0.4204782             -11.4418
        24        2.0000           -0.4048794             -11.0173
        25        2.0000           -0.3963695             -10.7858
        26        2.0000           -0.3323155              -9.0428
        27        2.0000           -0.3323129              -9.0427
        28        2.0000           -0.3318690              -9.0306 (HOMO)
        29                         -0.2422210              -6.5912 (LUMO)
        30                         -0.2381192              -6.4796
        31                         -0.1185375              -3.2256
        32                         -0.1057013              -2.8763
        33                         -0.0984522              -2.6790
        34                         -0.0893746              -2.4320
        35                         -0.0852273              -2.3192
        36                         -0.0783855              -2.1330
        37                         -0.0742191              -2.0196
        38                         -0.0560315              -1.5247
        39                         -0.0453002              -1.2327
       ...                                ...                  ...
        62                          0.6646825              18.0869
      -------------------------------------------------------------
                  HL-Gap            0.0896480 Eh            2.4394 eV

Wiberg/Mayer (AO) data.
largest (>0.10) Wiberg bond orders for each atom

     #   Z sym  total        # sym  WBO       # sym  WBO       # sym  WBO
 ---------------------------------------------------------------------------
     1   6 C    3.989 --     2 C    1.030    12 H    0.986    11 H    0.981
                            13 H    0.932
     2   6 C    3.987 --    10 C    1.413     4 C    1.400     1 C    1.030
                             6 C    0.106
     3   9 F    0.096
     4   6 C    3.996 --     5 C    1.460     2 C    1.400    14 H    0.974
                             9 C    0.108
     5   6 C    3.996 --     4 C    1.460     6 C    1.406    15 H    0.973
                            10 C    0.108
     6   6 C    3.988 --     9 C    1.420     5 C    1.406     7 C    1.004
                             2 C    0.106
     7   6 C    3.979 --     6 C    1.004     8 N    0.990    17 H    0.975
                            16 H    0.970
     8   7 N    2.945 --     7 C    0.990    19 H    0.952    18 H    0.949
     9   6 C    3.995 --    10 C    1.444     6 C    1.420    20 H    0.973
                             4 C    0.108
    10   6 C    3.995 --     9 C    1.444     2 C    1.413    21 H    0.973
                             5 C    0.108
    11   1 H    1.007 --     1 C    0.981
    12   1 H    1.006 --     1 C    0.986
    13   1 H    1.039 --     1 C    0.932
    14   1 H    1.003 --     4 C    0.974
    15   1 H    1.014 --     5 C    0.973
    16   1 H    1.013 --     7 C    0.970
    17   1 H    1.005 --     7 C    0.975
    18   1 H    0.962 --     8 N    0.949
    19   1 H    0.965 --     8 N    0.952
    20   1 H    1.003 --     9 C    0.973
    21   1 H    1.004 --    10 C    0.973
 ---------------------------------------------------------------------------

           -------------------------------------------------
          | TOTAL ENERGY              -31.513068127303 Eh   |
          | GRADIENT NORM               0.000634718326 Eh/α |
          | HOMO-LUMO GAP               2.439445074678 eV   |
           -------------------------------------------------

 * finished run on 2023/06/20 at 15:13:48.644
