   * xtb version 6.5.1 (579679a) compiled by 'ehlert@majestix' on 2022-07-11
          program call               : /lustre/hpc/kemi/ree/PhD/git/ReactivityQM/dep/xtb-6.5.1/bin/xtb --gfn 1 /lustre/hpc/kemi/ree/PhD/git/ReactivityQM/calculations/R02deprot/reac01prodE01/conf03/R02deprot_reac01prodE01_conf03_gfn1.xyz --opt --vfukui --chrg -2 --uhf 0 --alpb DMSO

   ID    Z sym.   atoms
    1    6 C      1, 3, 5, 7-10, 12, 13, 15, 18, 19, 22, 24
    2    8 O      2, 4, 14, 20, 23, 25
    3    7 N      6, 11, 16, 17, 21
    4    1 H      26-42

      * Solvation model:               ALPB
        Solvent                        DMSO
        Solvent mass                       7.8130E+01 g/mol
          :  Hamiltonian                  GFN1-xTB          :
 * total energy  :   -83.6111585 Eh     change       -0.5536549E-10 Eh
 * total energy  :   -83.6244461 Eh     change       -0.1328752E-01 Eh
 * total energy  :   -83.6286059 Eh     change       -0.4159887E-02 Eh
 * total energy  :   -83.6293647 Eh     change       -0.7587973E-03 Eh
 * total energy  :   -83.6297779 Eh     change       -0.4131960E-03 Eh
 * total energy  :   -83.6299686 Eh     change       -0.1906210E-03 Eh
 * total energy  :   -83.6300775 Eh     change       -0.1089050E-03 Eh
 * total energy  :   -83.6301194 Eh     change       -0.4196402E-04 Eh
 * total energy  :   -83.6301397 Eh     change       -0.2030263E-04 Eh
 * total energy  :   -83.6301561 Eh     change       -0.1635904E-04 Eh
 * total energy  :   -83.6302449 Eh     change       -0.3821332E-04 Eh
 * total energy  :   -83.6302775 Eh     change       -0.3251078E-04 Eh
 * total energy  :   -83.6302982 Eh     change       -0.2076099E-04 Eh
 * total energy  :   -83.6303246 Eh     change       -0.2637086E-04 Eh
 * total energy  :   -83.6303602 Eh     change       -0.3561661E-04 Eh
 * total energy  :   -83.6303786 Eh     change       -0.1836948E-04 Eh
 * total energy  :   -83.6303921 Eh     change       -0.1354425E-04 Eh
 * total energy  :   -83.6304087 Eh     change       -0.1658972E-04 Eh
 * total energy  :   -83.6304136 Eh     change       -0.4882555E-05 Eh
   *** GEOMETRY OPTIMIZATION CONVERGED AFTER 22 ITERATIONS ***

 final structure:
================
42
 xtb: 6.5.1 (579679a)
C           -4.81994198230622        2.77928102557955        0.58407120389164
O           -3.90257166951458        1.70798950508751        0.39323268133710
C           -4.25464335161170        0.78444479649745       -0.51671941371611
O           -5.30754569828971        0.87386990514233       -1.13758056615206
C           -3.27492453651423       -0.29434936046638       -0.69009142856573
N           -2.16911888149493       -0.27319948896893        0.10912536637035
C           -1.28291074835667       -1.23721379193923       -0.06706702093002
C           -0.02585212600775       -1.19930451122879        0.81171519832886
C            0.36316210051809       -2.64317679373749        1.17566773081178
C           -0.35488143180090       -0.40769037050260        2.08811468370924
N            0.96943893705332       -0.47951477069625       -0.00381153116631
C            2.46237308271162       -0.68248902964078        0.28592852766683
C            2.81512173637777        0.03946629363369        1.62520354077880
O            2.90036902734628       -1.90560760410152        0.18803587719489
C            3.06980244566473        0.22080414628548       -0.85691226673026
N            2.73861556709088        0.20460352041903       -2.11026871147913
N            3.60676550263557        1.05262310455839       -2.77291101754668
C            4.40702143014399        1.51876616187776       -1.87609744638396
C            5.52096224472484        2.47944803026881       -2.06787689163653
O            4.13095200141016        1.03806871987041       -0.64706189380157
N           -1.35540482660659       -2.21943034647005       -0.96148936135798
C           -2.42628172653960       -2.32318021013949       -1.79134379978830
O           -2.52801328356968       -3.23626387210583       -2.63415834553028
C           -3.45512390813228       -1.28470024644391       -1.63278222723147
O           -4.53867410951603       -1.35656873670970       -2.44792736258396
H           -5.79309834656913        2.39644961326548        0.90239992523570
H           -4.94779804901134        3.34313239281312       -0.34409135440264
H           -4.40229352271126        3.42311622553731        1.35597491981654
H           -0.48499095614603       -3.12908136561684        1.66187598258360
H            0.62292661866944       -3.20446151507946        0.27760991988691
H            1.21261293899023       -2.66139239745734        1.85652403299971
H            0.42272144262983       -0.51720671581703        2.84149044657952
H           -0.46971356522731        0.64959230255889        1.84843230071465
H           -1.29242364387980       -0.76832782197244        2.51314437016929
H            0.85805690348487       -0.82184219274841       -0.96519649332624
H            2.32834159057006        1.01105575910800        1.69470915902008
H            3.89468224380962        0.17403053699195        1.67248228614947
H            2.51834845349207       -0.58651071110475        2.46381622456387
H            5.57727743147026        2.76808157130093       -3.11440069787995
H            6.46633927945355        2.02921220810789       -1.76683755842523
H            5.36190561530661        3.36759377510673       -1.45712642686989
H           -5.16159022974403       -0.63011674106616       -2.25032256229621

          :  Hamiltonian                  GFN1-xTB          :
         :: total energy             -83.630413593046 Eh    ::
         :: gradient norm              0.000350115742 Eh/a0 ::
         :: HOMO-LUMO gap              1.648297449107 eV    ::
         :: SCC energy               -84.355467012916 Eh    ::
         :: -> Gsolv                  -0.280521543554 Eh    ::
         :: repulsion energy           0.750814399479 Eh    ::

    * Orbital Energies and Occupations

         #    Occupation            Energy/Eh            Energy/eV
      -------------------------------------------------------------
         1        2.0000           -0.8148201             -22.1724
       ...           ...                  ...                  ...
        56        2.0000           -0.4367190             -11.8837
        57        2.0000           -0.4314199             -11.7395
        58        2.0000           -0.4300679             -11.7027
        59        2.0000           -0.4134808             -11.2514
        60        2.0000           -0.4085594             -11.1175
        61        2.0000           -0.4055250             -11.0349
        62        2.0000           -0.4011678             -10.9163
        63        2.0000           -0.3832276             -10.4282
        64        2.0000           -0.3604161              -9.8074
        65        2.0000           -0.3543717              -9.6429
        66        2.0000           -0.3532302              -9.6119
        67        2.0000           -0.3357718              -9.1368
        68        2.0000           -0.3312839              -9.0147 (HOMO)
        69                         -0.2707101              -7.3664 (LUMO)
        70                         -0.2221711              -6.0456
        71                         -0.2093393              -5.6964
        72                         -0.2040344              -5.5521
        73                         -0.1789701              -4.8700
        74                         -0.1283849              -3.4935
        75                         -0.1255974              -3.4177
        76                         -0.0958534              -2.6083
        77                         -0.0906543              -2.4668
        78                         -0.0752373              -2.0473
        79                         -0.0725385              -1.9739
       ...                                ...                  ...
       134                          0.7315907              19.9076
      -------------------------------------------------------------
                  HL-Gap            0.0605738 Eh            1.6483 eV

Wiberg/Mayer (AO) data.
largest (>0.10) Wiberg bond orders for each atom

     #   Z sym  total        # sym  WBO       # sym  WBO       # sym  WBO
 ---------------------------------------------------------------------------
     1   6 C    3.888 --    28 H    0.987    27 H    0.980    26 H    0.980
                             2 O    0.914
     2   8 O    2.187 --     3 C    1.088     1 C    0.914     4 O    0.115
     3   6 C    3.831 --     4 O    1.581     2 O    1.088     5 C    1.055
     4   8 O    1.910 --     3 C    1.581     2 O    0.115
     5   6 C    3.964 --    24 C    1.447     6 N    1.214     3 C    1.055
     6   7 N    2.987 --     7 C    1.443     5 C    1.214
     7   6 C    3.947 --     6 N    1.443    21 N    1.374     8 C    0.966
     8   6 C    3.968 --    10 C    0.995     9 C    0.987     7 C    0.966
                            11 N    0.964
     9   6 C    3.996 --     8 C    0.987    29 H    0.987    31 H    0.983
                            30 H    0.982
    10   6 C    3.996 --     8 C    0.995    34 H    0.986    33 H    0.985
                            32 H    0.983
    11   7 N    2.969 --     8 C    0.964    35 H    0.947    12 C    0.858
    12   6 C    3.937 --    14 O    1.208    13 C    0.945    15 C    0.871
                            11 N    0.858
    13   6 C    3.991 --    36 H    0.990    37 H    0.985    38 H    0.981
                            12 C    0.945
    14   8 O    1.535 --    12 C    1.208
    15   6 C    3.794 --    16 N    1.654    20 O    1.042    12 C    0.871
    16   7 N    2.970 --    15 C    1.654    17 N    1.147
    17   7 N    2.976 --    18 C    1.658    16 N    1.147
    18   6 C    3.888 --    17 N    1.658    20 O    1.061    19 C    1.023
    19   6 C    3.993 --    18 C    1.023    39 H    0.985    41 H    0.971
                            40 H    0.970
    20   8 O    2.290 --    18 C    1.061    15 C    1.042
    21   7 N    2.982 --     7 C    1.374    22 C    1.243    23 O    0.126
    22   6 C    3.932 --    23 O    1.478    21 N    1.243    24 C    1.077
    23   8 O    1.767 --    22 C    1.478    21 N    0.126
    24   6 C    3.900 --     5 C    1.447    22 C    1.077    25 O    1.062
    25   8 O    2.040 --    24 C    1.062    42 H    0.812
    26   1 H    1.011 --     1 C    0.980
    27   1 H    1.011 --     1 C    0.980
    28   1 H    1.014 --     1 C    0.987
    29   1 H    1.011 --     9 C    0.987
    30   1 H    1.038 --     9 C    0.982
    31   1 H    1.030 --     9 C    0.983
    32   1 H    1.013 --    10 C    0.983
    33   1 H    1.028 --    10 C    0.985
    34   1 H    1.017 --    10 C    0.986
    35   1 H    1.002 --    11 N    0.947
    36   1 H    1.014 --    13 C    0.990
    37   1 H    1.019 --    13 C    0.985
    38   1 H    1.019 --    13 C    0.981
    39   1 H    1.003 --    19 C    0.985
    40   1 H    1.002 --    19 C    0.970
    41   1 H    1.002 --    19 C    0.971
    42   1 H    0.881 --    25 O    0.812
 ---------------------------------------------------------------------------

           -------------------------------------------------
          | TOTAL ENERGY              -83.630413593046 Eh   |
          | GRADIENT NORM               0.000350115742 Eh/α |
          | HOMO-LUMO GAP               1.648297449107 eV   |
           -------------------------------------------------

 * finished run on 2023/06/20 at 17:32:28.479
