   * xtb version 6.5.1 (579679a) compiled by 'ehlert@majestix' on 2022-07-11
          program call               : /lustre/hpc/kemi/ree/PhD/git/ReactivityQM/dep/xtb-6.5.1/bin/xtb --gfn 1 /lustre/hpc/kemi/ree/PhD/git/ReactivityQM/calculations/R02/reac01prodE09/conf10/R02_reac01prodE09_conf10_gfn1.xyz --opt --vfukui --chrg -1 --uhf 0 --alpb DMSO

   ID    Z sym.   atoms
    1    6 C      1, 3, 5, 7-10, 12, 14, 16, 17, 20, 22, 24
    2    8 O      2, 4, 13, 15, 23, 25
    3    7 N      6, 11, 18, 19, 21
    4    1 H      26-43

      * Solvation model:               ALPB
        Solvent                        DMSO
        Solvent mass                       7.8130E+01 g/mol
          :  Hamiltonian                  GFN1-xTB          :
 * total energy  :   -83.8375356 Eh     change       -0.8238032E-10 Eh
 * total energy  :   -83.8477716 Eh     change       -0.1023601E-01 Eh
 * total energy  :   -83.8512823 Eh     change       -0.3510701E-02 Eh
 * total energy  :   -83.8520606 Eh     change       -0.7783542E-03 Eh
 * total energy  :   -83.8529399 Eh     change       -0.8792108E-03 Eh
 * total energy  :   -83.8537020 Eh     change       -0.7621521E-03 Eh
 * total energy  :   -83.8548608 Eh     change       -0.1158807E-02 Eh
 * total energy  :   -83.8558743 Eh     change       -0.1013479E-02 Eh
 * total energy  :   -83.8568083 Eh     change       -0.9340287E-03 Eh
 * total energy  :   -83.8575383 Eh     change       -0.7299391E-03 Eh
 * total energy  :   -83.8600324 Eh     change       -0.1221429E-04 Eh
 * total energy  :   -83.8600404 Eh     change       -0.7959065E-05 Eh
 * total energy  :   -83.8600465 Eh     change       -0.6115862E-05 Eh
 * total energy  :   -83.8600518 Eh     change       -0.5319173E-05 Eh
 * total energy  :   -83.8600582 Eh     change       -0.6329802E-05 Eh
 * total energy  :   -83.8600659 Eh     change       -0.7705754E-05 Eh
 * total energy  :   -83.8600743 Eh     change       -0.8390221E-05 Eh
 * total energy  :   -83.8600821 Eh     change       -0.7827630E-05 Eh
 * total energy  :   -83.8600869 Eh     change       -0.4820367E-05 Eh
   *** GEOMETRY OPTIMIZATION CONVERGED AFTER 42 ITERATIONS ***

 final structure:
================
43
 xtb: 6.5.1 (579679a)
C            5.52582601916498        2.92293062772166        0.19290634422762
O            4.43108584274816        2.04271334184567       -0.04603277706934
C            4.28394406516293        1.61551439606997       -1.31454882439299
O            5.05533123022190        1.96673622530306       -2.20869517090560
C            3.15438230680172        0.72061265262560       -1.51965279665276
N            2.37862678042334        0.40925933547098       -0.42396948005649
C            1.37103218398177       -0.38081443422369       -0.58006303890770
C            0.52964916980907       -0.80525339986146        0.60852571463460
C            0.58975634942676        0.27223907785081        1.70047244707628
C            1.12583347526392       -2.13091851417870        1.11416569050383
N           -0.83216522268364       -1.00668004829381        0.11061426227754
C           -1.86274546543426       -1.31300773069216        1.07444733798128
O           -1.60322375734928       -1.91743451603866        2.15250875295552
C           -3.11266019200318       -0.87343619255516        0.70557773918634
O           -3.41730708509915       -0.25221673511070       -0.51883613650377
C           -4.75764948023305       -0.15458676519645       -0.52555779613505
C           -5.41566339725793        0.49315362279094       -1.69087823641253
N           -5.36339235923137       -0.63830219008062        0.49111997871016
N           -4.36564971295114       -1.20596502909022        1.33230553057938
C           -4.52297404357347       -0.72622405073230        2.71010199719176
N            1.05538201822402       -0.93263890607055       -1.78798215464469
C            1.75468202331558       -0.69626226348472       -2.96654526610175
O            1.39810794304925       -1.23154478507863       -4.01564673025719
C            2.87567970033132        0.19599933128447       -2.77841116213722
O            3.61911140122798        0.48127926469592       -3.86919693205729
H            5.42957738676799        3.82553477104307       -0.41683642981793
H            6.47161424508272        2.42961018821926       -0.04788218609993
H            5.49783161119011        3.18151151828651        1.25009873097565
H            1.62790778225963        0.46115029658920        1.97188105781756
H            0.14941547321823        1.19910192256943        1.33425414386449
H            0.04418721417743       -0.05960019661184        2.58239534931402
H            2.18612898584135       -1.99496555611567        1.32586695865327
H            0.62267702117708       -2.45446847729939        2.02313339256378
H            1.01162724271291       -2.90091001886726        0.35185018647773
H           -1.12206208041485       -0.21294835871933       -0.45167416475745
H           -6.49308554763479        0.50514792088354       -1.54557682362587
H           -5.17767112319492       -0.05079748655163       -2.60509958217744
H           -5.05210330381814        1.51427426627227       -1.80161293961526
H           -5.51186938727248       -1.01229335289602        3.06447890069218
H           -3.75709358910758       -1.20850092328833        3.31670966443247
H           -4.41174889717440        0.36059007259672        2.76569202769779
H            0.24373451079884       -1.53382409910517       -1.84702534537983
H            4.34593166205631        1.09623419802322       -3.61323323410478

          :  Hamiltonian                  GFN1-xTB          :
         :: total energy             -83.860086907209 Eh    ::
         :: gradient norm              0.000534734869 Eh/a0 ::
         :: HOMO-LUMO gap              0.086004031907 eV    ::
         :: SCC energy               -84.617999513636 Eh    ::
         :: -> Gsolv                  -0.104617063581 Eh    ::
         :: repulsion energy           0.783775103960 Eh    ::

    * Orbital Energies and Occupations

         #    Occupation            Energy/Eh            Energy/eV
      -------------------------------------------------------------
         1        2.0000           -0.8169856             -22.2313
       ...           ...                  ...                  ...
        56        2.0000           -0.4773122             -12.9883
        57        2.0000           -0.4686517             -12.7527
        58        2.0000           -0.4616755             -12.5628
        59        2.0000           -0.4566231             -12.4253
        60        2.0000           -0.4451362             -12.1128
        61        2.0000           -0.4361615             -11.8686
        62        2.0000           -0.4314895             -11.7414
        63        2.0000           -0.4204735             -11.4417
        64        2.0000           -0.4084589             -11.1147
        65        2.0000           -0.4036457             -10.9838
        66        2.0000           -0.4009868             -10.9114
        67        2.0000           -0.3854834             -10.4895
        68        1.6814           -0.3071804              -8.3588 (HOMO)
        69        0.3186           -0.3040198              -8.2728 (LUMO)
        70                         -0.2535163              -6.8985
        71                         -0.2264402              -6.1618
        72                         -0.2150326              -5.8513
        73                         -0.1515904              -4.1250
        74                         -0.1305716              -3.5530
        75                         -0.1288255              -3.5055
        76                         -0.1277399              -3.4760
        77                         -0.1044838              -2.8431
        78                         -0.1025082              -2.7894
        79                         -0.1007247              -2.7409
       ...                                ...                  ...
       136                          0.7127717              19.3955
      -------------------------------------------------------------
                  HL-Gap            0.0031606 Eh            0.0860 eV

Wiberg/Mayer (AO) data.
largest (>0.10) Wiberg bond orders for each atom

     #   Z sym  total        # sym  WBO       # sym  WBO       # sym  WBO
 ---------------------------------------------------------------------------
     1   6 C    3.884 --    28 H    0.987    27 H    0.980    26 H    0.980
                             2 O    0.911
     2   8 O    2.157 --     3 C    1.075     1 C    0.911     4 O    0.110
     3   6 C    3.769 --     4 O    1.537     5 C    1.088     2 O    1.075
     4   8 O    1.854 --     3 C    1.537     2 O    0.110
     5   6 C    3.883 --    24 C    1.391     6 N    1.160     3 C    1.088
     6   7 N    3.005 --     7 C    1.590     5 C    1.160
     7   6 C    3.910 --     6 N    1.590    21 N    1.164     8 C    0.978
     8   6 C    3.959 --     9 C    0.988     7 C    0.978    10 C    0.976
                            11 N    0.961
     9   6 C    3.993 --     8 C    0.988    30 H    0.986    29 H    0.985
                            31 H    0.983
    10   6 C    3.991 --    32 H    0.988    34 H    0.986     8 C    0.976
                            33 H    0.976
    11   7 N    3.082 --    12 C    0.978     8 C    0.961    35 H    0.931
    12   6 C    3.872 --    14 C    1.411    13 O    1.373    11 N    0.978
    13   8 O    1.683 --    12 C    1.373    14 C    0.122
    14   6 C    3.556 --    12 C    1.411    19 N    0.984    15 O    0.915
                            13 O    0.122
    15   8 O    2.181 --    16 C    1.067    14 C    0.915    18 N    0.112
    16   6 C    3.895 --    18 N    1.707    15 O    1.067    17 C    1.020
    17   6 C    3.993 --    16 C    1.020    36 H    0.986    37 H    0.970
                            38 H    0.970
    18   7 N    2.932 --    16 C    1.707    19 N    1.006    15 O    0.112
    19   7 N    3.078 --    18 N    1.006    14 C    0.984    20 C    0.950
    20   6 C    3.953 --    39 H    0.989    40 H    0.984    41 H    0.983
                            19 N    0.950
    21   7 N    3.396 --     7 C    1.164    22 C    1.088    42 H    0.886
                            23 O    0.118
    22   6 C    3.862 --    23 O    1.537    24 C    1.122    21 N    1.088
    23   8 O    1.809 --    22 C    1.537    21 N    0.118
    24   6 C    3.806 --     5 C    1.391    22 C    1.122    25 O    1.083
    25   8 O    2.028 --    24 C    1.083    43 H    0.786
    26   1 H    1.009 --     1 C    0.980
    27   1 H    1.009 --     1 C    0.980
    28   1 H    1.013 --     1 C    0.987
    29   1 H    1.015 --     9 C    0.985
    30   1 H    1.006 --     9 C    0.986
    31   1 H    1.014 --     9 C    0.983
    32   1 H    1.007 --    10 C    0.988
    33   1 H    1.026 --    10 C    0.976
    34   1 H    1.009 --    10 C    0.986
    35   1 H    0.970 --    11 N    0.931
    36   1 H    1.003 --    17 C    0.986
    37   1 H    1.001 --    17 C    0.970
    38   1 H    1.001 --    17 C    0.970
    39   1 H    1.018 --    20 C    0.989
    40   1 H    1.029 --    20 C    0.984
    41   1 H    1.009 --    20 C    0.983
    42   1 H    0.951 --    21 N    0.886
    43   1 H    0.867 --    25 O    0.786
 ---------------------------------------------------------------------------

           -------------------------------------------------
          | TOTAL ENERGY              -83.860086907209 Eh   |
          | GRADIENT NORM               0.000534734869 Eh/α |
          | HOMO-LUMO GAP               0.086004031907 eV   |
           -------------------------------------------------

 * finished run on 2023/06/20 at 15:09:42.097
