   * xtb version 6.5.1 (579679a) compiled by 'ehlert@majestix' on 2022-07-11
          program call               : /lustre/hpc/kemi/ree/PhD/git/ReactivityQM/dep/xtb-6.5.1/bin/xtb --gfn 1 /lustre/hpc/kemi/ree/PhD/git/ReactivityQM/calculations/R01/reac02prodE06/conf05/R01_reac02prodE06_conf05_gfn1.xyz --opt --vfukui --chrg -1 --uhf 0 --alpb DMSO

   ID    Z sym.   atoms
    1    6 C      1, 3, 5, 6, 8, 9, 12-15
    2    8 O      2, 4, 7, 10
    3    7 N      11, 16, 17
    4    1 H      18-33

      * Solvation model:               ALPB
        Solvent                        DMSO
        Solvent mass                       7.8130E+01 g/mol
          :  Hamiltonian                  GFN1-xTB          :
 * total energy  :   -58.5300989 Eh     change       -0.1243450E-10 Eh
 * total energy  :   -58.5390914 Eh     change       -0.8992467E-02 Eh
 * total energy  :   -58.5427444 Eh     change       -0.3653026E-02 Eh
 * total energy  :   -58.5434587 Eh     change       -0.7142649E-03 Eh
 * total energy  :   -58.5438556 Eh     change       -0.3969375E-03 Eh
 * total energy  :   -58.5440286 Eh     change       -0.1729641E-03 Eh
 * total energy  :   -58.5441895 Eh     change       -0.1608679E-03 Eh
 * total energy  :   -58.5443093 Eh     change       -0.1198129E-03 Eh
 * total energy  :   -58.5444032 Eh     change       -0.9397589E-04 Eh
 * total energy  :   -58.5444723 Eh     change       -0.6903463E-04 Eh
 * total energy  :   -58.5445130 Eh     change       -0.4068207E-04 Eh
 * total energy  :   -58.5445310 Eh     change       -0.1802580E-04 Eh
 * total energy  :   -58.5445493 Eh     change       -0.1829691E-04 Eh
 * total energy  :   -58.5445617 Eh     change       -0.1241770E-04 Eh
 * total energy  :   -58.5445795 Eh     change       -0.1778210E-04 Eh
 * total energy  :   -58.5445884 Eh     change       -0.8887388E-05 Eh
 * total energy  :   -58.5445978 Eh     change       -0.9470274E-05 Eh
 * total energy  :   -58.5446025 Eh     change       -0.4629966E-05 Eh
   *** GEOMETRY OPTIMIZATION CONVERGED AFTER 18 ITERATIONS ***

 final structure:
================
33
 xtb: 6.5.1 (579679a)
C            4.41359223206527       -1.20272890960980       -1.97965856303786
O            3.47233459280800       -0.45085231059083       -1.21526522828360
C            2.22080443999227       -0.99172821936275       -1.12949633577103
O            1.96906901785624       -2.04691108983289       -1.68590139732932
C            1.27412840088231       -0.20187414358395       -0.34347582049455
C            1.51959714299723        0.98734097511063        0.27433366083877
O            2.70254510887706        1.63551055690477        0.26325853743230
C            0.47341517081620        1.68318271494659        1.20897672734406
C            0.42241435646305        3.19925154321823        0.81136085255346
O            0.66807237174621        1.44488281621740        2.46610609992692
N           -0.87904619857326        1.12680152539287        0.70516621602168
C           -0.96294895871385       -0.14812772818168        0.26309910742958
C           -2.35486315799644       -0.76954012952224        0.27860080025657
C           -3.13579998033917       -0.20885946647111       -0.91825264658108
C           -2.26096686662364       -2.29785889147558        0.18426846803312
N           -3.04168288716341       -0.35744886770686        1.50511187895429
N            0.00166081065282       -0.81158783803367       -0.27607120185176
H            5.35614448602892       -0.66040542062680       -1.94732119905619
H            4.54197210035401       -2.20117745461442       -1.55184332898985
H            4.07352941763663       -1.29820029570033       -3.01468325055263
H            3.39098241183783        1.16580804633232       -0.23525760354079
H            0.20878581332508        3.31682906221845       -0.24982487142550
H            1.38072669729266        3.65934607802862        1.04587568521090
H           -0.35595458784660        3.68720172482139        1.39504300005204
H           -1.65206123884885        1.40688781055800        1.29971567486233
H           -2.62122671861388       -0.44899234463054       -1.84883664797323
H           -3.22038821324704        0.87444779979365       -0.83107232917672
H           -4.13705341230929       -0.63695466917993       -0.95130359960513
H           -1.74957215120004       -2.58128695182158       -0.73632970493905
H           -3.25742544435482       -2.73637073885703        0.18925304483990
H           -1.69763604730257       -2.69306963734110        1.02954405687856
H           -2.73022854127118       -0.92997689684989        2.27989238979968
H           -4.03292216722800       -0.51353864954967        1.40128952817388

          :  Hamiltonian                  GFN1-xTB          :
         :: total energy             -58.544602475526 Eh    ::
         :: gradient norm              0.000925496511 Eh/a0 ::
         :: HOMO-LUMO gap              2.265139191417 eV    ::
         :: SCC energy               -59.084311790830 Eh    ::
         :: -> Gsolv                  -0.116681324463 Eh    ::
         :: repulsion energy           0.558325722005 Eh    ::

    * Orbital Energies and Occupations

         #    Occupation            Energy/Eh            Energy/eV
      -------------------------------------------------------------
         1        2.0000           -0.8098185             -22.0363
       ...           ...                  ...                  ...
        36        2.0000           -0.4748138             -12.9203
        37        2.0000           -0.4724377             -12.8557
        38        2.0000           -0.4684990             -12.7485
        39        2.0000           -0.4632515             -12.6057
        40        2.0000           -0.4503351             -12.2542
        41        2.0000           -0.4469459             -12.1620
        42        2.0000           -0.4373931             -11.9021
        43        2.0000           -0.4158546             -11.3160
        44        2.0000           -0.3964591             -10.7882
        45        2.0000           -0.3826106             -10.4114
        46        2.0000           -0.3609058              -9.8207
        47        2.0000           -0.3472219              -9.4484
        48        2.0000           -0.3446724              -9.3790 (HOMO)
        49                         -0.2614300              -7.1139 (LUMO)
        50                         -0.2113698              -5.7517
        51                         -0.1310900              -3.5671
        52                         -0.1254565              -3.4138
        53                         -0.1090909              -2.9685
        54                         -0.1040433              -2.8312
        55                         -0.0883081              -2.4030
        56                         -0.0845025              -2.2994
        57                         -0.0741423              -2.0175
        58                         -0.0618162              -1.6821
        59                         -0.0612338              -1.6663
       ...                                ...                  ...
       100                          0.7251632              19.7327
      -------------------------------------------------------------
                  HL-Gap            0.0832423 Eh            2.2651 eV

Wiberg/Mayer (AO) data.
largest (>0.10) Wiberg bond orders for each atom

     #   Z sym  total        # sym  WBO       # sym  WBO       # sym  WBO
 ---------------------------------------------------------------------------
     1   6 C    3.887 --    18 H    0.987    20 H    0.981    19 H    0.981
                             2 O    0.909
     2   8 O    2.163 --     3 C    1.025     1 C    0.909     4 O    0.109
     3   6 C    3.835 --     4 O    1.614     5 C    1.082     2 O    1.025
     4   8 O    1.884 --     3 C    1.614     2 O    0.109
     5   6 C    3.947 --     6 C    1.567     3 C    1.082    17 N    1.065
     6   6 C    3.860 --     5 C    1.567     7 O    1.082     8 C    0.894
     7   8 O    2.070 --     6 C    1.082    21 H    0.818
     8   6 C    3.926 --    10 O    1.236     9 C    0.935     6 C    0.894
                            11 N    0.792
     9   6 C    3.991 --    22 H    0.992    24 H    0.987    23 H    0.986
                             8 C    0.935
    10   8 O    1.533 --     8 C    1.236
    11   7 N    3.267 --    12 C    1.230    25 H    0.913     8 C    0.792
                            17 N    0.157
    12   6 C    3.948 --    17 N    1.596    11 N    1.230    13 C    0.967
    13   6 C    3.965 --    15 C    0.992    14 C    0.987    16 N    0.978
                            12 C    0.967
    14   6 C    3.996 --    13 C    0.987    26 H    0.987    27 H    0.986
                            28 H    0.985
    15   6 C    3.997 --    13 C    0.992    30 H    0.988    31 H    0.985
                            29 H    0.983
    16   7 N    2.976 --    13 C    0.978    33 H    0.948    32 H    0.947
    17   7 N    2.968 --    12 C    1.596     5 C    1.065    11 N    0.157
    18   1 H    1.013 --     1 C    0.987
    19   1 H    1.013 --     1 C    0.981
    20   1 H    1.013 --     1 C    0.981
    21   1 H    0.877 --     7 O    0.818
    22   1 H    1.015 --     9 C    0.992
    23   1 H    1.018 --     9 C    0.986
    24   1 H    1.014 --     9 C    0.987
    25   1 H    0.985 --    11 N    0.913
    26   1 H    1.007 --    14 C    0.987
    27   1 H    1.009 --    14 C    0.986
    28   1 H    1.003 --    14 C    0.985
    29   1 H    1.020 --    15 C    0.983
    30   1 H    1.006 --    15 C    0.988
    31   1 H    1.010 --    15 C    0.985
    32   1 H    0.964 --    16 N    0.947
    33   1 H    0.963 --    16 N    0.948
 ---------------------------------------------------------------------------

           -------------------------------------------------
          | TOTAL ENERGY              -58.544602475526 Eh   |
          | GRADIENT NORM               0.000925496511 Eh/α |
          | HOMO-LUMO GAP               2.265139191417 eV   |
           -------------------------------------------------

 * finished run on 2023/06/20 at 15:00:26.974
