   * xtb version 6.5.1 (579679a) compiled by 'ehlert@majestix' on 2022-07-11
          program call               : /lustre/hpc/kemi/ree/PhD/git/ReactivityQM/dep/xtb-6.5.1/bin/xtb --gfn 1 /lustre/hpc/kemi/ree/PhD/git/ReactivityQM/calculations/RaltegravirCLI/reac01prodE06/conf02/RaltegravirCLI_reac01prodE06_conf02_gfn1.xyz --opt --vfukui --chrg -1 --uhf 0 --alpb DMSO

   ID    Z sym.   atoms
    1    6 C      1, 3, 5, 8, 9
    2    8 O      2, 10
    3   17 Cl     4
    4    7 N      6, 7
    5    1 H      11-16

      * Solvation model:               ALPB
        Solvent                        DMSO
        Solvent mass                       7.8130E+01 g/mol
          :  Hamiltonian                  GFN1-xTB          :
 * total energy  :   -34.1180951 Eh     change       -0.5329071E-12 Eh
 * total energy  :   -34.1234741 Eh     change       -0.5379050E-02 Eh
 * total energy  :   -34.1257730 Eh     change       -0.2298835E-02 Eh
 * total energy  :   -34.1264390 Eh     change       -0.6660682E-03 Eh
 * total energy  :   -34.1272834 Eh     change       -0.8443738E-03 Eh
 * total energy  :   -34.1278825 Eh     change       -0.5991204E-03 Eh
 * total energy  :   -34.1284519 Eh     change       -0.5693240E-03 Eh
 * total energy  :   -34.1291525 Eh     change       -0.7006868E-03 Eh
 * total energy  :   -34.1294406 Eh     change       -0.2880049E-03 Eh
 * total energy  :   -34.1296438 Eh     change       -0.2032380E-03 Eh
 * total energy  :   -34.1303958 Eh     change       -0.6842018E-05 Eh
 * total energy  :   -34.1304184 Eh     change       -0.2265974E-04 Eh
 * total energy  :   -34.1304279 Eh     change       -0.9433930E-05 Eh
 * total energy  :   -34.1304267 Eh     change        0.1174970E-05 Eh
 * total energy  :   -34.1304553 Eh     change       -0.2858415E-04 Eh
 * total energy  :   -34.1304610 Eh     change       -0.5682397E-05 Eh
 * total energy  :   -34.1304702 Eh     change       -0.9224726E-05 Eh
 * total energy  :   -34.1304761 Eh     change       -0.5875903E-05 Eh
 * total energy  :   -34.1304800 Eh     change       -0.3973678E-05 Eh
   *** GEOMETRY OPTIMIZATION CONVERGED AFTER 32 ITERATIONS ***

 final structure:
================
16
 xtb: 6.5.1 (579679a)
C           -2.63012625859053        0.70271656439606        0.25803018132648
O           -2.28504315042465       -0.56014802144900        0.82836580754510
C           -1.43933947772942       -1.37873323403169        0.11469295953026
Cl          -2.29035402573859       -2.18341361594810       -1.30043555373351
C           -0.14845503411890       -0.93916857234586       -0.22206766639577
N            0.70846016898521       -1.49305246945732       -1.07794547187792
N            1.94169232431958       -0.91553961207249       -0.82466667701811
C            1.78365147666310       -0.08043452388638        0.13877443658862
C            2.81711170471724        0.77987422500684        0.77255916022717
O            0.49610392753638       -0.02591174657804        0.58633406153130
H           -3.08920845262610        0.57501428323004       -0.73006464068373
H           -1.74851428749164        1.34854852059339        0.16216317750420
H           -3.34932278036005        1.17549924925835        0.92913856349253
H            2.60143713601749        1.83454167725063        0.59408095882451
H            3.79272419175168        0.54142990997652        0.35367503716441
H            2.83918353708922        0.61878036605684        1.85099566597399

          :  Hamiltonian                  GFN1-xTB          :
         :: total energy             -34.130480039293 Eh    ::
         :: gradient norm              0.000717312955 Eh/a0 ::
         :: HOMO-LUMO gap              2.977419532147 eV    ::
         :: SCC energy               -34.378980804600 Eh    ::
         :: -> Gsolv                  -0.094060012698 Eh    ::
         :: repulsion energy           0.255641613153 Eh    ::

    * Orbital Energies and Occupations

         #    Occupation            Energy/Eh            Energy/eV
      -------------------------------------------------------------
         1        2.0000           -0.8470853             -23.0504
       ...           ...                  ...                  ...
        16        2.0000           -0.5138456             -13.9825
        17        2.0000           -0.5085058             -13.8371
        18        2.0000           -0.4880248             -13.2798
        19        2.0000           -0.4845579             -13.1855
        20        2.0000           -0.4669396             -12.7061
        21        2.0000           -0.4474904             -12.1768
        22        2.0000           -0.4341438             -11.8137
        23        2.0000           -0.4323809             -11.7657
        24        2.0000           -0.4239628             -11.5366
        25        2.0000           -0.4093544             -11.1391
        26        2.0000           -0.3964996             -10.7893
        27        2.0000           -0.3841601             -10.4535
        28        2.0000           -0.3090991              -8.4110 (HOMO)
        29                         -0.1996809              -5.4336 (LUMO)
        30                         -0.1806542              -4.9158
        31                         -0.1345653              -3.6617
        32                         -0.1200377              -3.2664
        33                         -0.1082348              -2.9452
        34                         -0.0539114              -1.4670
        35                         -0.0530149              -1.4426
        36                         -0.0471576              -1.2832
        37                         -0.0428666              -1.1665
        38                          0.0164317               0.4471
        39                          0.0209745               0.5707
       ...                                ...                  ...
        57                          0.6358530              17.3024
      -------------------------------------------------------------
                  HL-Gap            0.1094182 Eh            2.9774 eV

Wiberg/Mayer (AO) data.
largest (>0.10) Wiberg bond orders for each atom

     #   Z sym  total        # sym  WBO       # sym  WBO       # sym  WBO
 ---------------------------------------------------------------------------
     1   6 C    3.932 --    13 H    0.987    12 H    0.982    11 H    0.982
                             2 O    0.933
     2   8 O    2.057 --     3 C    1.006     1 C    0.933
     3   6 C    3.428 --     5 C    1.337     2 O    1.006     4 Cl   0.803
                             6 N    0.145
     4  17 Cl   0.911 --     3 C    0.803
     5   6 C    3.855 --     6 N    1.407     3 C    1.337    10 O    0.982
     6   7 N    2.864 --     5 C    1.407     7 N    1.141     3 C    0.145
     7   7 N    2.983 --     8 C    1.678     6 N    1.141
     8   6 C    3.890 --     7 N    1.678    10 O    1.020     9 C    1.020
     9   6 C    3.995 --     8 C    1.020    15 H    0.986    16 H    0.975
                            14 H    0.973
    10   8 O    2.221 --     8 C    1.020     5 C    0.982
    11   1 H    1.019 --     1 C    0.982
    12   1 H    1.019 --     1 C    0.982
    13   1 H    1.021 --     1 C    0.987
    14   1 H    1.005 --     9 C    0.973
    15   1 H    1.006 --     9 C    0.986
    16   1 H    1.005 --     9 C    0.975
 ---------------------------------------------------------------------------

           -------------------------------------------------
          | TOTAL ENERGY              -34.130480039293 Eh   |
          | GRADIENT NORM               0.000717312955 Eh/α |
          | HOMO-LUMO GAP               2.977419532147 eV   |
           -------------------------------------------------

 * finished run on 2023/06/20 at 14:54:04.135
