   * xtb version 6.5.1 (579679a) compiled by 'ehlert@majestix' on 2022-07-11
          program call               : /lustre/hpc/kemi/ree/PhD/git/ReactivityQM/dep/xtb-6.5.1/bin/xtb --gfn 1 /lustre/hpc/kemi/ree/PhD/git/ReactivityQM/calculations/R02/reac01prodE02/conf18/R02_reac01prodE02_conf18_gfn1.xyz --opt --vfukui --chrg -1 --uhf 0 --alpb DMSO

   ID    Z sym.   atoms
    1    6 C      1, 3, 4, 6, 8-11, 13, 15, 18, 19, 22, 24
    2    8 O      2, 5, 14, 20, 23, 25
    3    7 N      7, 12, 16, 17, 21
    4    1 H      26-43

      * Solvation model:               ALPB
        Solvent                        DMSO
        Solvent mass                       7.8130E+01 g/mol
          :  Hamiltonian                  GFN1-xTB          :
 * total energy  :   -83.8499947 Eh     change       -0.5920242E-10 Eh
 * total energy  :   -83.8631385 Eh     change       -0.1314375E-01 Eh
 * total energy  :   -83.8702137 Eh     change       -0.7075272E-02 Eh
 * total energy  :   -83.8739237 Eh     change       -0.3709990E-02 Eh
 * total energy  :   -83.8767046 Eh     change       -0.2780904E-02 Eh
 * total energy  :   -83.8790837 Eh     change       -0.2379114E-02 Eh
 * total energy  :   -83.8822899 Eh     change       -0.3206119E-02 Eh
 * total energy  :   -83.8849112 Eh     change       -0.2621329E-02 Eh
 * total energy  :   -83.8865751 Eh     change       -0.1663898E-02 Eh
 * total energy  :   -83.8874826 Eh     change       -0.9074913E-03 Eh
 * total energy  :   -83.8912614 Eh     change       -0.9264043E-05 Eh
 * total energy  :   -83.8912764 Eh     change       -0.1499262E-04 Eh
 * total energy  :   -83.8912924 Eh     change       -0.1599344E-04 Eh
 * total energy  :   -83.8913134 Eh     change       -0.2100368E-04 Eh
 * total energy  :   -83.8913403 Eh     change       -0.2687400E-04 Eh
 * total energy  :   -83.8913593 Eh     change       -0.1904430E-04 Eh
 * total energy  :   -83.8913692 Eh     change       -0.9853237E-05 Eh
 * total energy  :   -83.8913798 Eh     change       -0.1058512E-04 Eh
 * total energy  :   -83.8913836 Eh     change       -0.3873650E-05 Eh
   *** GEOMETRY OPTIMIZATION CONVERGED AFTER 44 ITERATIONS ***

 final structure:
================
43
 xtb: 6.5.1 (579679a)
C           -3.21335300421397       -2.00121025320628        1.42157332916046
O           -4.01061791217981       -1.95013471790426        0.26193175512771
C           -4.09407874459222       -0.68727103142513       -0.45657733495137
C           -4.59463439167879        0.42492070956279        0.48514987820350
O           -5.03762974989494       -0.86758268112001       -1.45724896067761
C           -2.72873964568964       -0.33169222350931       -1.05530621741647
N           -1.85735881107625        0.30546137852481       -0.21559563877343
C           -0.68210922789290        0.63924750919930       -0.63894652733490
C            0.27701763975410        1.36636108878139        0.28824094647267
C            0.56785431383850        2.78075053950333       -0.22977273750976
C           -0.33606227112535        1.44679526525165        1.68782986980508
N            1.52955514989059        0.59902374099330        0.42877819791040
C            2.54980033473195        0.56554667728697       -0.44403859175572
O            2.57839347390455        1.08897003011133       -1.54735439464048
C            3.68347708378156       -0.23315371416836        0.09667573473923
N            3.69824306457491       -0.88466414551962        1.22067561987572
N            4.92346053960440       -1.47502246166179        1.31705683498334
C            5.57763129628329       -1.14411068861157        0.24543668625741
C            6.95781452072737       -1.52878172226224       -0.12339618273087
O            4.84788938364371       -0.36395337897036       -0.56515969390535
N           -0.28627097092003        0.37617760773776       -1.92392828308561
C           -1.06936932164225       -0.26649702672339       -2.85839401706877
O           -0.61997887737572       -0.46304991766090       -3.99114093478561
C           -2.41888199590437       -0.66564435014244       -2.37511390179837
O           -3.21747479600395       -1.27074550076066       -3.16766271537189
H           -2.23585456754906       -1.52237449579565        1.27613673882627
H           -3.70717049963904       -1.52678495276037        2.28114593655473
H           -3.05233218211439       -3.05719818734329        1.65668561038535
H           -3.84024135407504        0.67480765619740        1.22714544991207
H           -5.50631663261353        0.09911962154455        0.98302092784627
H           -4.81015060737746        1.30928367397201       -0.11178979897882
H            0.93965132594160        2.76159719648189       -1.25191090950353
H           -0.35323787466608        3.36133419952412       -0.20416850366747
H            1.30735516378298        3.26408974200957        0.40623876448950
H           -0.53946060522336        0.44692873710541        2.06932445133960
H           -1.27565995682582        1.99524889055148        1.64431768936049
H            0.34428830612624        1.95800611178856        2.36618500326030
H            1.66601644517933        0.12796634943876        1.31058411096439
H            7.40922165853801       -2.09099197188893        0.69001029087349
H            6.94790473504532       -2.14045158364760       -1.02575706210764
H            7.55072596725225       -0.63770504184945       -0.32632426625409
H            0.63725663395072        0.66288811488250       -2.22301843347786
H           -4.50657403627625       -1.14550079351801       -2.28407172055346

          :  Hamiltonian                  GFN1-xTB          :
         :: total energy             -83.891383645911 Eh    ::
         :: gradient norm              0.000401300447 Eh/a0 ::
         :: HOMO-LUMO gap              1.250362433568 eV    ::
         :: SCC energy               -84.642199710865 Eh    ::
         :: -> Gsolv                  -0.120939473633 Eh    ::
         :: repulsion energy           0.778132200338 Eh    ::

    * Orbital Energies and Occupations

         #    Occupation            Energy/Eh            Energy/eV
      -------------------------------------------------------------
         1        2.0000           -0.8595976             -23.3908
       ...           ...                  ...                  ...
        56        2.0000           -0.4742649             -12.9054
        57        2.0000           -0.4704792             -12.8024
        58        2.0000           -0.4591614             -12.4944
        59        2.0000           -0.4554599             -12.3937
        60        2.0000           -0.4473109             -12.1719
        61        2.0000           -0.4434758             -12.0676
        62        2.0000           -0.4407572             -11.9936
        63        2.0000           -0.4335986             -11.7988
        64        2.0000           -0.4294727             -11.6865
        65        2.0000           -0.4219795             -11.4826
        66        2.0000           -0.4090552             -11.1310
        67        2.0000           -0.3648273              -9.9275
        68        2.0000           -0.3506210              -9.5409 (HOMO)
        69                         -0.3046710              -8.2905 (LUMO)
        70                         -0.2533783              -6.8948
        71                         -0.2435229              -6.6266
        72                         -0.2304868              -6.2719
        73                         -0.1932457              -5.2585
        74                         -0.1404076              -3.8207
        75                         -0.1257874              -3.4228
        76                         -0.1191088              -3.2411
        77                         -0.1141429              -3.1060
        78                         -0.1122383              -3.0542
        79                         -0.1022942              -2.7836
       ...                                ...                  ...
       136                          0.7329180              19.9437
      -------------------------------------------------------------
                  HL-Gap            0.0459500 Eh            1.2504 eV

Wiberg/Mayer (AO) data.
largest (>0.10) Wiberg bond orders for each atom

     #   Z sym  total        # sym  WBO       # sym  WBO       # sym  WBO
 ---------------------------------------------------------------------------
     1   6 C    3.925 --    28 H    0.983    27 H    0.981    26 H    0.975
                             2 O    0.960
     2   8 O    1.980 --     1 C    0.960     3 C    0.873
     3   6 C    3.859 --     5 O    1.002     4 C    0.977     6 C    0.960
                             2 O    0.873
     4   6 C    3.996 --    30 H    0.986    31 H    0.986    29 H    0.985
                             3 C    0.977
     5   8 O    1.874 --     3 C    1.002    43 H    0.731
     6   6 C    3.932 --    24 C    1.383     7 N    1.214     3 C    0.960
                            25 O    0.137
     7   7 N    3.045 --     8 C    1.556     6 C    1.214
     8   6 C    3.933 --     7 N    1.556    21 N    1.136     9 C    0.969
     9   6 C    3.929 --    11 C    1.002    10 C    0.987     8 C    0.969
                            12 N    0.906
    10   6 C    3.990 --     9 C    0.987    33 H    0.985    34 H    0.985
                            32 H    0.979
    11   6 C    3.994 --     9 C    1.002    37 H    0.986    35 H    0.983
                            36 H    0.982
    12   7 N    3.359 --    13 C    1.279     9 C    0.906    38 H    0.897
                            14 O    0.182
    13   6 C    3.919 --    14 O    1.570    12 N    1.279    15 C    0.986
    14   8 O    1.910 --    13 C    1.570    12 N    0.182
    15   6 C    3.873 --    16 N    1.613    20 O    1.064    13 C    0.986
    16   7 N    3.014 --    15 C    1.613    17 N    1.196
    17   7 N    2.980 --    18 C    1.608    16 N    1.196
    18   6 C    3.872 --    17 N    1.608    20 O    1.083    19 C    1.031
    19   6 C    3.987 --    18 C    1.031    39 H    0.983    41 H    0.966
                            40 H    0.962
    20   8 O    2.330 --    18 C    1.083    15 C    1.064
    21   7 N    3.441 --    22 C    1.142     8 C    1.136    42 H    0.883
                            23 O    0.130
    22   6 C    3.889 --    23 O    1.540    21 N    1.142    24 C    1.024
    23   8 O    1.832 --    22 C    1.540    21 N    0.130
    24   6 C    3.955 --     6 C    1.383    25 O    1.358    22 C    1.024
    25   8 O    1.825 --    24 C    1.358    43 H    0.143     6 C    0.137
    26   1 H    1.026 --     1 C    0.975
    27   1 H    1.015 --     1 C    0.981
    28   1 H    1.020 --     1 C    0.983
    29   1 H    1.018 --     4 C    0.985
    30   1 H    1.007 --     4 C    0.986
    31   1 H    1.013 --     4 C    0.986
    32   1 H    1.012 --    10 C    0.979
    33   1 H    1.004 --    10 C    0.985
    34   1 H    1.001 --    10 C    0.985
    35   1 H    1.009 --    11 C    0.983
    36   1 H    1.013 --    11 C    0.982
    37   1 H    1.001 --    11 C    0.986
    38   1 H    0.954 --    12 N    0.897
    39   1 H    0.999 --    19 C    0.983
    40   1 H    0.997 --    19 C    0.962
    41   1 H    0.997 --    19 C    0.966
    42   1 H    0.954 --    21 N    0.883
    43   1 H    0.889 --     5 O    0.731    25 O    0.143
 ---------------------------------------------------------------------------

           -------------------------------------------------
          | TOTAL ENERGY              -83.891383645911 Eh   |
          | GRADIENT NORM               0.000401300447 Eh/α |
          | HOMO-LUMO GAP               1.250362433568 eV   |
           -------------------------------------------------

 * finished run on 2023/06/20 at 14:54:24.291
