   * xtb version 6.5.1 (579679a) compiled by 'ehlert@majestix' on 2022-07-11
          program call               : /lustre/hpc/kemi/ree/PhD/git/ReactivityQM/dep/xtb-6.5.1/bin/xtb --gfn 1 /lustre/hpc/kemi/ree/PhD/git/ReactivityQM/calculations/R02deprot/reac01prodN19/conf18/R02deprot_reac01prodN19_conf18_gfn1.xyz --opt --vfukui --chrg 0 --uhf 0 --alpb DMSO

   ID    Z sym.   atoms
    1    6 C      1, 3, 5, 7-10, 12, 14, 17, 18, 21, 23, 24
    2    8 O      2, 4, 13, 19, 22, 25
    3    7 N      6, 11, 15, 16, 20
    4    1 H      26-42

      * Solvation model:               ALPB
        Solvent                        DMSO
        Solvent mass                       7.8130E+01 g/mol
          :  Hamiltonian                  GFN1-xTB          :
 * total energy  :   -82.9927116 Eh     change       -0.9492851E-11 Eh
 * total energy  :   -83.0048408 Eh     change       -0.1212922E-01 Eh
 * total energy  :   -83.0094029 Eh     change       -0.4562014E-02 Eh
 * total energy  :   -83.0100678 Eh     change       -0.6649747E-03 Eh
 * total energy  :   -83.0106064 Eh     change       -0.5386048E-03 Eh
 * total energy  :   -83.0109063 Eh     change       -0.2998931E-03 Eh
 * total energy  :   -83.0112188 Eh     change       -0.3125047E-03 Eh
 * total energy  :   -83.0115269 Eh     change       -0.3080267E-03 Eh
 * total energy  :   -83.0117027 Eh     change       -0.1758427E-03 Eh
 * total energy  :   -83.0118040 Eh     change       -0.1012663E-03 Eh
 * total energy  :   -83.0130370 Eh     change       -0.9853473E-05 Eh
 * total energy  :   -83.0130461 Eh     change       -0.9088014E-05 Eh
 * total energy  :   -83.0130558 Eh     change       -0.9749687E-05 Eh
 * total energy  :   -83.0130633 Eh     change       -0.7470612E-05 Eh
 * total energy  :   -83.0130704 Eh     change       -0.7110834E-05 Eh
 * total energy  :   -83.0130784 Eh     change       -0.7976889E-05 Eh
 * total energy  :   -83.0130858 Eh     change       -0.7449827E-05 Eh
 * total energy  :   -83.0130914 Eh     change       -0.5536683E-05 Eh
 * total energy  :   -83.0130950 Eh     change       -0.3604428E-05 Eh
   *** GEOMETRY OPTIMIZATION CONVERGED AFTER 43 ITERATIONS ***

 final structure:
================
42
 xtb: 6.5.1 (579679a)
C           -3.26002768247741        3.87293107475022       -1.35249911774044
O           -3.13757147607086        2.47459868071472       -1.07566807299723
C           -1.95437596038463        2.05849325741684       -0.63399588886620
O           -1.00996194658608        2.79597836163558       -0.46958729656770
C           -1.90325072920612        0.58911730272635       -0.35612344594706
N           -0.69874173198389        0.14906557235681        0.06784788193629
C           -0.53924963730382       -1.11983886757117        0.35631787679490
C            0.79878827132592       -1.59804747401312        0.88006595904353
C            0.63376841547039       -1.93930163380809        2.36965576062024
C            1.26073077130809       -2.82595108726538        0.08462763404117
N            1.75133036216932       -0.50472383321971        0.71384192193980
C            3.03865088022060       -0.57283268169879        1.08561580143247
O            3.57214472846671       -1.52828583530820        1.63121949177995
C            3.80119464114972        0.66155756185388        0.75639174399138
N            5.04677524382024        0.91227010716497        1.01704716414518
N            5.31485610741969        2.14847091597849        0.50714165268775
C            4.21654842511798        2.57449346040516       -0.03455435827773
C            3.99177533659293        3.86103167151131       -0.72910790190705
O            3.21996172780034        1.68277892542788        0.08982487556616
N           -1.50261080041350       -2.05382665421217        0.26061033775742
C           -2.68418860354378       -1.65746583284941       -0.15596198954444
O           -3.69138396677793       -2.52572324367463       -0.28954578012711
C           -3.41897189142460       -3.89497603645281        0.01285410806612
C           -2.95641790738557       -0.30172844570783       -0.48336850521728
O           -4.18378039089612        0.05747456964967       -0.89120465110367
H           -2.53674901715564        4.16950087212731       -2.11589727038226
H           -3.08322596790580        4.45131707059535       -0.44254033683018
H           -4.27520580560371        4.03167454392520       -1.71036711598708
H            1.56634359103164       -2.32858766858819        2.77430342664527
H            0.34430475686340       -1.04824771899478        2.92503230065051
H           -0.14470467783808       -2.69266199954696        2.47653461028522
H            2.17760218669870       -3.22916995128014        0.51116469298968
H            0.48322760728346       -3.58678916665943        0.12219219635519
H            1.43908182095996       -2.55149079815014       -0.95407022380305
H            1.39278971040168        0.33800401047267        0.28047095927032
H            3.61695941895713        3.67924284108005       -1.73576700824361
H            4.92538880787734        4.41549550074331       -0.78072236173521
H            3.24782619861999        4.45034360469537       -0.19328004484865
H           -3.10963187695173       -3.99646264115805        1.05624935113262
H           -2.62588318380229       -4.27272462730309       -0.63788019916250
H           -4.34501687117930       -4.43900065052130       -0.16281196811426
H           -4.77909788464653       -0.70600405728171       -0.91092520973151

          :  Hamiltonian                  GFN1-xTB          :
         :: total energy             -83.013094982987 Eh    ::
         :: gradient norm              0.000317000174 Eh/a0 ::
         :: HOMO-LUMO gap              2.977139721722 eV    ::
         :: SCC energy               -83.790697582551 Eh    ::
         :: -> Gsolv                  -0.053891096073 Eh    ::
         :: repulsion energy           0.802624806556 Eh    ::

    * Orbital Energies and Occupations

         #    Occupation            Energy/Eh            Energy/eV
      -------------------------------------------------------------
         1        2.0000           -0.8624310             -23.4679
       ...           ...                  ...                  ...
        55        2.0000           -0.5000340             -13.6066
        56        2.0000           -0.4967477             -13.5172
        57        2.0000           -0.4955741             -13.4853
        58        2.0000           -0.4784670             -13.0197
        59        2.0000           -0.4773333             -12.9889
        60        2.0000           -0.4743073             -12.9066
        61        2.0000           -0.4688588             -12.7583
        62        2.0000           -0.4592384             -12.4965
        63        2.0000           -0.4564074             -12.4195
        64        2.0000           -0.4480118             -12.1910
        65        2.0000           -0.4437494             -12.0750
        66        2.0000           -0.4341862             -11.8148
        67        2.0000           -0.4310725             -11.7301 (HOMO)
        68                         -0.3216647              -8.7529 (LUMO)
        69                         -0.3056038              -8.3159
        70                         -0.2824479              -7.6858
        71                         -0.2545803              -6.9275
        72                         -0.2369852              -6.4487
        73                         -0.1938708              -5.2755
        74                         -0.1546188              -4.2074
        75                         -0.1417691              -3.8577
        76                         -0.1401352              -3.8133
        77                         -0.1365959              -3.7170
        78                         -0.1190076              -3.2384
       ...                                ...                  ...
       134                          0.7273207              19.7914
      -------------------------------------------------------------
                  HL-Gap            0.1094079 Eh            2.9771 eV

Wiberg/Mayer (AO) data.
largest (>0.10) Wiberg bond orders for each atom

     #   Z sym  total        # sym  WBO       # sym  WBO       # sym  WBO
 ---------------------------------------------------------------------------
     1   6 C    3.871 --    28 H    0.986    27 H    0.979    26 H    0.979
                             2 O    0.896
     2   8 O    2.208 --     3 C    1.120     1 C    0.896     4 O    0.136
     3   6 C    3.849 --     4 O    1.662     2 O    1.120     5 C    0.990
     4   8 O    1.925 --     3 C    1.662     2 O    0.136
     5   6 C    3.967 --    24 C    1.408     6 N    1.283     3 C    0.990
     6   7 N    3.051 --     7 C    1.475     5 C    1.283
     7   6 C    3.944 --     6 N    1.475    20 N    1.300     8 C    0.985
     8   6 C    3.937 --     7 C    0.985    10 C    0.983     9 C    0.975
                            11 N    0.931
     9   6 C    3.989 --    30 H    0.986    31 H    0.985    29 H    0.980
                             8 C    0.975
    10   6 C    3.990 --    34 H    0.986    33 H    0.984     8 C    0.983
                            32 H    0.982
    11   7 N    3.370 --    12 C    1.282     8 C    0.931    35 H    0.879
                            13 O    0.182
    12   6 C    3.921 --    13 O    1.570    11 N    1.282    14 C    0.988
    13   8 O    1.889 --    12 C    1.570    11 N    0.182
    14   6 C    3.871 --    15 N    1.625    19 O    1.049    12 C    0.988
    15   7 N    2.997 --    14 C    1.625    16 N    1.195
    16   7 N    2.980 --    17 C    1.613    15 N    1.195
    17   6 C    3.870 --    16 N    1.613    19 O    1.074    18 C    1.031
    18   6 C    3.987 --    17 C    1.031    37 H    0.983    36 H    0.965
                            38 H    0.962
    19   8 O    2.317 --    17 C    1.074    14 C    1.049
    20   7 N    3.027 --    21 C    1.419     7 C    1.300
    21   6 C    3.908 --    20 N    1.419    24 C    1.203    22 O    1.083
    22   8 O    2.184 --    21 C    1.083    23 C    0.896
    23   6 C    3.869 --    41 H    0.984    39 H    0.980    40 H    0.980
                            22 O    0.896
    24   6 C    3.924 --     5 C    1.408    21 C    1.203    25 O    1.089
    25   8 O    2.066 --    24 C    1.089    42 H    0.815
    26   1 H    1.007 --     1 C    0.979
    27   1 H    1.007 --     1 C    0.979
    28   1 H    1.011 --     1 C    0.986
    29   1 H    1.010 --     9 C    0.980
    30   1 H    1.003 --     9 C    0.986
    31   1 H    1.006 --     9 C    0.985
    32   1 H    1.009 --    10 C    0.982
    33   1 H    1.011 --    10 C    0.984
    34   1 H    1.003 --    10 C    0.986
    35   1 H    0.959 --    11 N    0.879
    36   1 H    0.997 --    18 C    0.965
    37   1 H    0.999 --    18 C    0.983
    38   1 H    0.997 --    18 C    0.962
    39   1 H    1.009 --    23 C    0.980
    40   1 H    1.009 --    23 C    0.980
    41   1 H    1.009 --    23 C    0.984
    42   1 H    0.844 --    25 O    0.815
 ---------------------------------------------------------------------------

           -------------------------------------------------
          | TOTAL ENERGY              -83.013094982987 Eh   |
          | GRADIENT NORM               0.000317000174 Eh/α |
          | HOMO-LUMO GAP               2.977139721722 eV   |
           -------------------------------------------------

 * finished run on 2023/06/20 at 18:31:10.117
