   * xtb version 6.5.1 (579679a) compiled by 'ehlert@majestix' on 2022-07-11
          program call               : /lustre/hpc/kemi/ree/PhD/git/ReactivityQM/dep/xtb-6.5.1/bin/xtb --gfn 1 /lustre/hpc/kemi/ree/PhD/git/ReactivityQM/calculations/R02oxygendeprot/reac02prodN01/conf02/R02oxygendeprot_reac02prodN01_conf02_gfn1.xyz --opt --vfukui --chrg 1 --uhf 0 --alpb DMSO

   ID    Z sym.   atoms
    1    6 C      1, 4
    2    8 O      2, 5
    3    5 B      3
    4    1 H      6-13

      * Solvation model:               ALPB
        Solvent                        DMSO
        Solvent mass                       7.8130E+01 g/mol
          :  Hamiltonian                  GFN1-xTB          :
 * total energy  :   -19.0493357 Eh     change       -0.4073186E-10 Eh
 * total energy  :   -19.0591939 Eh     change       -0.9858172E-02 Eh
 * total energy  :   -19.0619215 Eh     change       -0.2727563E-02 Eh
 * total energy  :   -19.0626540 Eh     change       -0.7324868E-03 Eh
 * total energy  :   -19.0636063 Eh     change       -0.9522906E-03 Eh
 * total energy  :   -19.0638355 Eh     change       -0.2292041E-03 Eh
 * total energy  :   -19.0639458 Eh     change       -0.1103297E-03 Eh
 * total energy  :   -19.0639909 Eh     change       -0.4513108E-04 Eh
 * total energy  :   -19.0640191 Eh     change       -0.2816713E-04 Eh
 * total energy  :   -19.0640285 Eh     change       -0.9379355E-05 Eh
 * total energy  :   -19.0640421 Eh     change       -0.7805063E-05 Eh
 * total energy  :   -19.0640499 Eh     change       -0.7868571E-05 Eh
 * total energy  :   -19.0640835 Eh     change       -0.3356303E-04 Eh
 * total energy  :   -19.0641039 Eh     change       -0.2045197E-04 Eh
 * total energy  :   -19.0641215 Eh     change       -0.1752492E-04 Eh
 * total energy  :   -19.0641334 Eh     change       -0.1190739E-04 Eh
 * total energy  :   -19.0641450 Eh     change       -0.1158381E-04 Eh
 * total energy  :   -19.0641486 Eh     change       -0.3654485E-05 Eh
 * total energy  :   -19.0641526 Eh     change       -0.4027219E-05 Eh
   *** GEOMETRY OPTIMIZATION CONVERGED AFTER 20 ITERATIONS ***

 final structure:
================
13
 xtb: 6.5.1 (579679a)
C            1.96276077382177        0.03028587528724       -0.01404429158699
O            0.57884656522245        0.08699065677303       -0.46645990644972
B           -0.66748263493099       -0.09312708523376        0.33197758291326
C           -1.98764048000826        0.07959048493849       -0.45714126760499
O           -0.54901261236452       -0.38928268662313        1.60757705443091
H            1.97857999601521       -0.56702665970989        0.89206756464299
H            2.55001511155172       -0.44755866151413       -0.79467484741246
H            2.31023208883919        1.04356656344253        0.18140855470433
H            0.50217576626835        0.38679358390155       -1.38303822344261
H           -2.85061406727349        0.00446061852006        0.20267686995233
H           -2.02049125459945        1.04321430715049       -0.96403401437722
H           -2.07811090319848       -0.68696803828687       -1.22661515974842
H            0.27074165065648       -0.49093995864548        2.09030008397855

          :  Hamiltonian                  GFN1-xTB          :
         :: total energy             -19.064152637793 Eh    ::
         :: gradient norm              0.000693193964 Eh/a0 ::
         :: HOMO-LUMO gap              7.748377664216 eV    ::
         :: SCC energy               -19.257141164872 Eh    ::
         :: -> Gsolv                  -0.098802849178 Eh    ::
         :: repulsion energy           0.196487963844 Eh    ::

    * Orbital Energies and Occupations

         #    Occupation            Energy/Eh            Energy/eV
      -------------------------------------------------------------
         1        2.0000           -0.9096886             -24.7539
       ...           ...                  ...                  ...
         3        2.0000           -0.7671155             -20.8743
         4        2.0000           -0.7506292             -20.4257
         5        2.0000           -0.7003503             -19.0575
         6        2.0000           -0.6871230             -18.6976
         7        2.0000           -0.6612952             -17.9948
         8        2.0000           -0.6505508             -17.7024
         9        2.0000           -0.6084573             -16.5570
        10        2.0000           -0.6018799             -16.3780
        11        2.0000           -0.5712862             -15.5455
        12        2.0000           -0.5551421             -15.1062
        13        2.0000           -0.5445443             -14.8178
        14        2.0000           -0.5428470             -14.7716
        15        2.0000           -0.5332695             -14.5110 (HOMO)
        16                         -0.2485219              -6.7626 (LUMO)
        17                         -0.1919152              -5.2223
        18                         -0.1821948              -4.9578
        19                         -0.1512200              -4.1149
        20                         -0.1387077              -3.7744
        21                         -0.1085373              -2.9534
        22                         -0.0852874              -2.3208
        23                         -0.0809539              -2.2029
        24                         -0.0741108              -2.0167
        25                         -0.0514912              -1.4011
        26                          0.0843583               2.2955
       ...                                ...                  ...
        36                          0.6291195              17.1192
      -------------------------------------------------------------
                  HL-Gap            0.2847476 Eh            7.7484 eV

Wiberg/Mayer (AO) data.
largest (>0.10) Wiberg bond orders for each atom

     #   Z sym  total        # sym  WBO       # sym  WBO       # sym  WBO
 ---------------------------------------------------------------------------
     1   6 C    3.789 --     6 H    0.981     8 H    0.980     7 H    0.979
                             2 O    0.813
     2   8 O    2.369 --     1 C    0.813     9 H    0.759     3 B    0.734
     3   5 B    3.142 --     5 O    1.292     4 C    1.039     2 O    0.734
     4   6 C    3.988 --     3 B    1.039    10 H    0.974    11 H    0.962
                            12 H    0.957
     5   8 O    2.162 --     3 B    1.292    13 H    0.795
     6   1 H    0.994 --     1 C    0.981
     7   1 H    0.993 --     1 C    0.979
     8   1 H    0.994 --     1 C    0.980
     9   1 H    0.787 --     2 O    0.759
    10   1 H    0.992 --     4 C    0.974
    11   1 H    0.993 --     4 C    0.962
    12   1 H    0.992 --     4 C    0.957
    13   1 H    0.821 --     5 O    0.795
 ---------------------------------------------------------------------------

           -------------------------------------------------
          | TOTAL ENERGY              -19.064152637793 Eh   |
          | GRADIENT NORM               0.000693193964 Eh/α |
          | HOMO-LUMO GAP               7.748377664216 eV   |
           -------------------------------------------------

 * finished run on 2023/06/21 at 17:40:21.118
