   * xtb version 6.5.1 (579679a) compiled by 'ehlert@majestix' on 2022-07-11
          program call               : /lustre/hpc/kemi/ree/PhD/git/ReactivityQM/dep/xtb-6.5.1/bin/xtb --gfn 1 /lustre/hpc/kemi/ree/PhD/git/ReactivityQM/calculations/R03/reac02prodE03/conf06/R03_reac02prodE03_conf06_gfn1.xyz --opt --vfukui --chrg -1 --uhf 0 --alpb DMSO

   ID    Z sym.   atoms
    1    6 C      1, 3, 5, 6, 8-11, 13, 15, 18, 19, 22, 23, 25
    2    8 O      2, 4, 14, 20, 24, 26
    3    7 N      7, 12, 16, 17, 21
    4    1 H      27-46

      * Solvation model:               ALPB
        Solvent                        DMSO
        Solvent mass                       7.8130E+01 g/mol
          :  Hamiltonian                  GFN1-xTB          :
 * total energy  :   -86.9894706 Eh     change       -0.1512035E-10 Eh
 * total energy  :   -87.0050539 Eh     change       -0.1558329E-01 Eh
 * total energy  :   -87.0117478 Eh     change       -0.6693898E-02 Eh
 * total energy  :   -87.0134030 Eh     change       -0.1655185E-02 Eh
 * total energy  :   -87.0144009 Eh     change       -0.9978751E-03 Eh
 * total energy  :   -87.0149156 Eh     change       -0.5147030E-03 Eh
 * total energy  :   -87.0154378 Eh     change       -0.5221854E-03 Eh
 * total energy  :   -87.0159891 Eh     change       -0.5513352E-03 Eh
 * total energy  :   -87.0164831 Eh     change       -0.4940241E-03 Eh
 * total energy  :   -87.0168374 Eh     change       -0.3542783E-03 Eh
 * total energy  :   -87.0208340 Eh     change       -0.1972675E-04 Eh
 * total energy  :   -87.0208420 Eh     change       -0.8000363E-05 Eh
 * total energy  :   -87.0208497 Eh     change       -0.7660554E-05 Eh
 * total energy  :   -87.0208633 Eh     change       -0.1358614E-04 Eh
 * total energy  :   -87.0208757 Eh     change       -0.1244617E-04 Eh
 * total energy  :   -87.0208855 Eh     change       -0.9819533E-05 Eh
 * total energy  :   -87.0208946 Eh     change       -0.9088301E-05 Eh
 * total energy  :   -87.0208961 Eh     change       -0.1433443E-05 Eh
 * total energy  :   -87.0208993 Eh     change       -0.3249074E-05 Eh
   *** GEOMETRY OPTIMIZATION CONVERGED AFTER 75 ITERATIONS ***

 final structure:
================
46
 xtb: 6.5.1 (579679a)
C           -2.92199802442800        2.21398211950335        2.15939191780882
O           -3.61420122444180        0.99258457803250        1.91515531708526
C           -3.78482902501410        0.65518328738305        0.57531161958875
O           -4.98333753527279        1.10704844667753        0.01055500852695
C           -6.16535827348791        0.64080417528108        0.65300136135414
C           -2.81588539008239        0.02161989557186       -0.15325840553768
N           -1.62107896264407       -0.24608384624838        0.52698086738936
C           -0.62514133955535       -0.81162924997298       -0.06405215418346
C            0.59927031856836       -1.06320925675024        0.82352204353647
C            0.81743096923593       -2.56987529472987        1.01912903729091
C            0.38328241887107       -0.40420231828507        2.19430234221210
N            1.76263492846776       -0.42094430277666        0.19383823115560
C            3.02656824494777       -0.50613501337359        0.66909532115522
O            3.41119569856696       -1.25704135538915        1.55466257451701
C            3.91897927148838        0.42689543842426       -0.05561244933156
N            3.55784690450111        1.26476087608538       -0.98728692499844
N            4.68267366227998        1.93585337115671       -1.36967944313812
C            5.65531867558345        1.46927892591543       -0.64989907422845
C            7.07811953499171        1.87562642549362       -0.68411822673187
O            5.24207545984182        0.51506633980729        0.20030444437993
N           -0.64765278740910       -1.18117102528380       -1.37392632321001
C            0.43902441131765       -1.83667087636430       -2.09226434866039
C           -1.85234411662378       -1.02470228526200       -2.17206284888665
O           -1.81409792900856       -1.46113703885134       -3.34854675955078
C           -2.90263142775679       -0.39843567213566       -1.51921445602647
O           -4.09482799883314       -0.23346437676382       -2.24166998694819
H           -1.88805655959576        2.15269071469988        1.79664405080317
H           -2.91560847618883        2.37009489873936        3.23956598658162
H           -3.42293147014855        3.06039626430070        1.67445435518200
H           -7.00866552490958        1.14681951334185        0.18224896294291
H           -6.15078815230316        0.88365672459312        1.72120962423505
H           -6.27888469128237       -0.44383275208379        0.53272464422532
H           -0.12618632592857       -3.02482486209422        1.31937657532056
H            1.55361610053480       -2.74955605041329        1.80037207676980
H            1.16242916537074       -3.04867733158407        0.10607851797425
H           -0.49195490307609       -0.83549843899125        2.67722890539513
H            1.25663088528317       -0.56651648297868        2.82378863670237
H            0.22406226607347        0.66641094041236        2.07370514026360
H            1.56963265625965        0.35154231273185       -0.42905897539292
H            7.22219348019612        2.63714962127322       -1.44628755584697
H            7.37662335424293        2.27164341510110        0.28631626079973
H            7.70812597311041        1.01438510676286       -0.90453636005280
H            0.24322655742782       -2.90908917952971       -2.17711684611699
H            0.49385309974922       -1.41664494633788       -3.09967324247438
H            1.39213555162688       -1.67972399399588       -1.59815631331747
H           -4.65049145053330        0.41557255890737       -1.78184812853506

          :  Hamiltonian                  GFN1-xTB          :
         :: total energy             -87.020899299603 Eh    ::
         :: gradient norm              0.000382715737 Eh/a0 ::
         :: HOMO-LUMO gap              0.159060698040 eV    ::
         :: SCC energy               -87.813465671697 Eh    ::
         :: -> Gsolv                  -0.113552317404 Eh    ::
         :: repulsion energy           0.821618101862 Eh    ::

    * Orbital Energies and Occupations

         #    Occupation            Energy/Eh            Energy/eV
      -------------------------------------------------------------
         1        2.0000           -0.8521319             -23.1877
       ...           ...                  ...                  ...
        59        2.0000           -0.4712270             -12.8227
        60        2.0000           -0.4695392             -12.7768
        61        2.0000           -0.4516095             -12.2889
        62        2.0000           -0.4485666             -12.2061
        63        2.0000           -0.4428522             -12.0506
        64        2.0000           -0.4403118             -11.9815
        65        2.0000           -0.4363040             -11.8724
        66        2.0000           -0.4299536             -11.6996
        67        2.0000           -0.4196023             -11.4180
        68        2.0000           -0.3939974             -10.7212
        69        2.0000           -0.3885603             -10.5733
        70        2.0000           -0.3702243             -10.0743
        71        1.9118           -0.3055253              -8.3138 (HOMO)
        72        0.0882           -0.2996799              -8.1547 (LUMO)
        73                         -0.2478957              -6.7456
        74                         -0.2307695              -6.2796
        75                         -0.1943168              -5.2876
        76                         -0.1860719              -5.0633
        77                         -0.1387015              -3.7743
        78                         -0.1211533              -3.2967
        79                         -0.1189888              -3.2379
        80                         -0.1159040              -3.1539
        81                         -0.1086081              -2.9554
        82                         -0.1010251              -2.7490
       ...                                ...                  ...
       144                          0.7247607              19.7217
      -------------------------------------------------------------
                  HL-Gap            0.0058454 Eh            0.1591 eV

Wiberg/Mayer (AO) data.
largest (>0.10) Wiberg bond orders for each atom

     #   Z sym  total        # sym  WBO       # sym  WBO       # sym  WBO
 ---------------------------------------------------------------------------
     1   6 C    3.913 --    28 H    0.986    29 H    0.983    27 H    0.981
                             2 O    0.930
     2   8 O    2.014 --     3 C    0.948     1 C    0.930
     3   6 C    3.708 --     6 C    1.514     2 O    0.948     4 O    0.934
     4   8 O    2.047 --     3 C    0.934     5 C    0.930
     5   6 C    3.909 --    30 H    0.986    32 H    0.983    31 H    0.983
                             4 O    0.930
     6   6 C    3.952 --     3 C    1.514    25 C    1.171     7 N    1.080
     7   7 N    3.006 --     8 C    1.602     6 C    1.080    21 N    0.136
     8   6 C    3.947 --     7 N    1.602    21 N    1.196     9 C    0.966
     9   6 C    3.930 --    11 C    0.991    10 C    0.990     8 C    0.966
                            12 N    0.913
    10   6 C    3.992 --     9 C    0.990    33 H    0.986    35 H    0.981
                            34 H    0.980
    11   6 C    3.993 --     9 C    0.991    37 H    0.984    36 H    0.984
                            38 H    0.984
    12   7 N    3.331 --    13 C    1.238     9 C    0.913    39 H    0.901
                            14 O    0.169
    13   6 C    3.890 --    14 O    1.569    12 N    1.238    15 C    1.003
    14   8 O    1.872 --    13 C    1.569    12 N    0.169
    15   6 C    3.837 --    16 N    1.582    20 O    1.051    13 C    1.003
    16   7 N    2.971 --    15 C    1.582    17 N    1.193
    17   7 N    2.980 --    18 C    1.613    16 N    1.193
    18   6 C    3.864 --    17 N    1.613    20 O    1.077    19 C    1.030
    19   6 C    3.988 --    18 C    1.030    40 H    0.983    42 H    0.966
                            41 H    0.964
    20   8 O    2.306 --    18 C    1.077    15 C    1.051
    21   7 N    3.398 --     8 C    1.196    22 C    0.953    23 C    0.939
                             7 N    0.136
    22   6 C    3.954 --    43 H    0.980    45 H    0.979    44 H    0.978
                            21 N    0.953
    23   6 C    3.898 --    24 O    1.412    25 C    1.378    21 N    0.939
    24   8 O    1.734 --    23 C    1.412    25 C    0.129
    25   6 C    3.813 --    23 C    1.378     6 C    1.171    26 O    0.968
                            24 O    0.129
    26   8 O    1.930 --    25 C    0.968    46 H    0.847
    27   1 H    1.027 --     1 C    0.981
    28   1 H    1.019 --     1 C    0.986
    29   1 H    1.014 --     1 C    0.983
    30   1 H    1.018 --     5 C    0.986
    31   1 H    1.020 --     5 C    0.983
    32   1 H    1.014 --     5 C    0.983
    33   1 H    1.005 --    10 C    0.986
    34   1 H    1.015 --    10 C    0.980
    35   1 H    1.005 --    10 C    0.981
    36   1 H    1.018 --    11 C    0.984
    37   1 H    1.008 --    11 C    0.984
    38   1 H    1.017 --    11 C    0.984
    39   1 H    0.962 --    12 N    0.901
    40   1 H    1.000 --    19 C    0.983
    41   1 H    0.997 --    19 C    0.964
    42   1 H    0.997 --    19 C    0.966
    43   1 H    1.010 --    22 C    0.980
    44   1 H    1.021 --    22 C    0.978
    45   1 H    1.014 --    22 C    0.979
    46   1 H    0.898 --    26 O    0.847
 ---------------------------------------------------------------------------

           -------------------------------------------------
          | TOTAL ENERGY              -87.020899299603 Eh   |
          | GRADIENT NORM               0.000382715737 Eh/α |
          | HOMO-LUMO GAP               0.159060698040 eV   |
           -------------------------------------------------

 * finished run on 2023/06/20 at 15:17:35.794
