   * xtb version 6.5.1 (579679a) compiled by 'ehlert@majestix' on 2022-07-11
          program call               : /lustre/hpc/kemi/ree/PhD/git/ReactivityQM/dep/xtb-6.5.1/bin/xtb --gfn 1 /lustre/hpc/kemi/ree/PhD/git/ReactivityQM/calculations/R02methylcation/reac01prodN04/conf16/R02methylcation_reac01prodN04_conf16_gfn1.xyz --opt --vfukui --chrg 0 --uhf 0 --alpb DMSO

   ID    Z sym.   atoms
    1    6 C      1, 3, 5, 6, 8-11, 13, 15, 18, 19, 22, 24
    2    8 O      2, 4, 14, 20, 23, 25
    3    7 N      7, 12, 16, 17, 21
    4    1 H      26-42

      * Solvation model:               ALPB
        Solvent                        DMSO
        Solvent mass                       7.8130E+01 g/mol
          :  Hamiltonian                  GFN1-xTB          :
 * total energy  :   -82.9665570 Eh     change       -0.9478640E-11 Eh
 * total energy  :   -82.9834848 Eh     change       -0.1692786E-01 Eh
 * total energy  :   -82.9893225 Eh     change       -0.5837719E-02 Eh
 * total energy  :   -82.9906390 Eh     change       -0.1316476E-02 Eh
 * total energy  :   -82.9912192 Eh     change       -0.5802044E-03 Eh
 * total energy  :   -82.9914741 Eh     change       -0.2549257E-03 Eh
 * total energy  :   -82.9916985 Eh     change       -0.2243985E-03 Eh
 * total energy  :   -82.9918773 Eh     change       -0.1787213E-03 Eh
 * total energy  :   -82.9920226 Eh     change       -0.1453646E-03 Eh
 * total energy  :   -82.9921616 Eh     change       -0.1389375E-03 Eh
 * total energy  :   -82.9935502 Eh     change       -0.1724989E-04 Eh
 * total energy  :   -82.9935708 Eh     change       -0.2056722E-04 Eh
 * total energy  :   -82.9935876 Eh     change       -0.1685064E-04 Eh
 * total energy  :   -82.9935997 Eh     change       -0.1209546E-04 Eh
 * total energy  :   -82.9936102 Eh     change       -0.1048431E-04 Eh
 * total energy  :   -82.9936224 Eh     change       -0.1216530E-04 Eh
 * total energy  :   -82.9936294 Eh     change       -0.7011571E-05 Eh
 * total energy  :   -82.9936363 Eh     change       -0.6912345E-05 Eh
 * total energy  :   -82.9936407 Eh     change       -0.4413477E-05 Eh
   *** GEOMETRY OPTIMIZATION CONVERGED AFTER 39 ITERATIONS ***

 final structure:
================
42
 xtb: 6.5.1 (579679a)
C           -3.60002350683049       -0.62971398540237       -1.82671307801147
O           -4.34949938726927        0.37993297852760       -1.15369833435516
C           -3.93851825117501        1.07595362633790       -0.10825673721469
O           -4.82170700598662        1.95480803877334        0.31583752364202
C           -6.07779028730619        2.07094951393236       -0.35571651792609
C           -2.71487195605932        0.97027560659582        0.56136934493700
N           -1.80669225058713        0.02370407144689        0.09295035950663
C           -0.67605067164678       -0.13262202060737        0.66922043291576
C            0.30737245173127       -1.18487646878444        0.20099668913690
C           -0.03767364746309       -1.67192061624650       -1.20771722250439
C            0.28187651683880       -2.34759231193747        1.20467315111123
N            1.63224332440506       -0.55256936719667        0.19196912241343
C            2.77050608428781       -1.21788321113447       -0.11010363257127
O            2.86996778149401       -2.41806858959961       -0.28425117154036
C            3.92037838159659       -0.27970332840705       -0.18205080694067
N            3.87215252651885        1.00807027579262       -0.01700125013140
N            5.14452765865317        1.47136470762020       -0.16870562354761
C            5.88767655932641        0.43565488902058       -0.41757144011648
C            7.34686881629093        0.40561892731457       -0.66009894135756
O            5.17235912720195       -0.69857527530064       -0.43975779142934
N           -0.29374450404141        0.60000276860360        1.77178933080024
C           -1.05843981780986        1.58071192305901        2.34639178779693
O           -0.65674165523325        2.20216605480925        3.31257241127255
C           -2.41309559515157        1.81391564237895        1.69496671420865
O           -3.15145096734385        2.67636890975584        2.15673716600705
H           -3.36592225396861       -1.45180370719560       -1.14859459065612
H           -4.24183542956055       -0.98231525539044       -2.63482489612438
H           -2.67617111039710       -0.21625794033642       -2.23446758975419
H           -6.61705620904180        1.12226716432666       -0.31742556897327
H           -5.92430260844830        2.36101412391622       -1.39706054932439
H           -6.63314387702635        2.84300500678038        0.17425356887013
H           -0.04571017205210       -0.83395176976004       -1.90290462168259
H           -1.02139801573083       -2.13714470026003       -1.19982610231738
H            0.69756226786904       -2.40422192951775       -1.53643587175006
H            0.61012145789694       -2.00500272285839        2.18437023443502
H           -0.73536626319556       -2.72795320838001        1.28369348373554
H            0.93502661167016       -3.15096784572807        0.87030851643112
H            1.67180099612468        0.45608796033132        0.17497126803358
H            7.54911685235480        0.02892117147605       -1.66329517028203
H            7.75656288304670        1.40814659822440       -0.55834450787313
H            7.82833280042027       -0.26276725414042        0.05444029979849
H            0.60274934559372        0.41697154915921        2.19652161133548

          :  Hamiltonian                  GFN1-xTB          :
         :: total energy             -82.993640696390 Eh    ::
         :: gradient norm              0.000991535054 Eh/a0 ::
         :: HOMO-LUMO gap              2.392470290034 eV    ::
         :: SCC energy               -83.772891917004 Eh    ::
         :: -> Gsolv                  -0.060712708197 Eh    ::
         :: repulsion energy           0.805075995009 Eh    ::

    * Orbital Energies and Occupations

         #    Occupation            Energy/Eh            Energy/eV
      -------------------------------------------------------------
         1        2.0000           -0.8634396             -23.4954
       ...           ...                  ...                  ...
        55        2.0000           -0.5056759             -13.7601
        56        2.0000           -0.5047029             -13.7337
        57        2.0000           -0.5007462             -13.6260
        58        2.0000           -0.4958456             -13.4926
        59        2.0000           -0.4825037             -13.1296
        60        2.0000           -0.4789996             -13.0342
        61        2.0000           -0.4658907             -12.6775
        62        2.0000           -0.4611390             -12.5482
        63        2.0000           -0.4538137             -12.3489
        64        2.0000           -0.4508124             -12.2672
        65        2.0000           -0.4474224             -12.1750
        66        2.0000           -0.4210363             -11.4570
        67        2.0000           -0.4151626             -11.2972 (HOMO)
        68                         -0.3272410              -8.9047 (LUMO)
        69                         -0.3111557              -8.4670
        70                         -0.2748910              -7.4802
        71                         -0.2567091              -6.9854
        72                         -0.2482315              -6.7547
        73                         -0.1991476              -5.4191
        74                         -0.1559618              -4.2439
        75                         -0.1522802              -4.1438
        76                         -0.1431448              -3.8952
        77                         -0.1417423              -3.8570
        78                         -0.1253856              -3.4119
       ...                                ...                  ...
       134                          0.7553338              20.5537
      -------------------------------------------------------------
                  HL-Gap            0.0879217 Eh            2.3925 eV

Wiberg/Mayer (AO) data.
largest (>0.10) Wiberg bond orders for each atom

     #   Z sym  total        # sym  WBO       # sym  WBO       # sym  WBO
 ---------------------------------------------------------------------------
     1   6 C    3.853 --    27 H    0.981    28 H    0.976    26 H    0.975
                             2 O    0.882
     2   8 O    2.224 --     3 C    1.133     1 C    0.882
     3   6 C    3.833 --     6 C    1.333     4 O    1.154     2 O    1.133
     4   8 O    2.240 --     3 C    1.154     5 C    0.888
     5   6 C    3.861 --    31 H    0.984    29 H    0.978    30 H    0.978
                             4 O    0.888
     6   6 C    3.922 --     3 C    1.333    24 C    1.164     7 N    1.107
     7   7 N    3.044 --     8 C    1.656     6 C    1.107
     8   6 C    3.932 --     7 N    1.656    21 N    1.104     9 C    0.979
     9   6 C    3.934 --    10 C    0.992     8 C    0.979    11 C    0.979
                            12 N    0.920
    10   6 C    3.990 --     9 C    0.992    32 H    0.984    33 H    0.982
                            34 H    0.981
    11   6 C    3.986 --    36 H    0.985    35 H    0.984     9 C    0.979
                            37 H    0.978
    12   7 N    3.332 --    13 C    1.241     9 C    0.920    38 H    0.894
                            14 O    0.174
    13   6 C    3.916 --    14 O    1.602    12 N    1.241    15 C    0.989
    14   8 O    1.918 --    13 C    1.602    12 N    0.174
    15   6 C    3.875 --    16 N    1.610    20 O    1.065    13 C    0.989
    16   7 N    3.017 --    15 C    1.610    17 N    1.200
    17   7 N    2.981 --    18 C    1.605    16 N    1.200
    18   6 C    3.871 --    17 N    1.605    20 O    1.083    19 C    1.031
    19   6 C    3.986 --    18 C    1.031    40 H    0.983    41 H    0.964
                            39 H    0.962
    20   8 O    2.331 --    18 C    1.083    15 C    1.065
    21   7 N    3.435 --    22 C    1.159     8 C    1.104    42 H    0.886
                            23 O    0.138
    22   6 C    3.882 --    23 O    1.637    21 N    1.159    24 C    0.940
    23   8 O    1.915 --    22 C    1.637    21 N    0.138
    24   6 C    3.920 --    25 O    1.633     6 C    1.164    22 C    0.940
    25   8 O    1.919 --    24 C    1.633
    26   1 H    1.019 --     1 C    0.975
    27   1 H    1.008 --     1 C    0.981
    28   1 H    1.019 --     1 C    0.976
    29   1 H    1.005 --     5 C    0.978
    30   1 H    1.005 --     5 C    0.978
    31   1 H    1.008 --     5 C    0.984
    32   1 H    1.004 --    10 C    0.984
    33   1 H    1.007 --    10 C    0.982
    34   1 H    1.006 --    10 C    0.981
    35   1 H    1.001 --    11 C    0.984
    36   1 H    1.002 --    11 C    0.985
    37   1 H    1.010 --    11 C    0.978
    38   1 H    0.952 --    12 N    0.894
    39   1 H    0.997 --    19 C    0.962
    40   1 H    0.998 --    19 C    0.983
    41   1 H    0.997 --    19 C    0.964
    42   1 H    0.934 --    21 N    0.886
 ---------------------------------------------------------------------------

           -------------------------------------------------
          | TOTAL ENERGY              -82.993640696390 Eh   |
          | GRADIENT NORM               0.000991535054 Eh/α |
          | HOMO-LUMO GAP               2.392470290034 eV   |
           -------------------------------------------------

 * finished run on 2023/06/21 at 17:34:18.124
