   * xtb version 6.5.1 (579679a) compiled by 'ehlert@majestix' on 2022-07-11
          program call               : /lustre/hpc/kemi/ree/PhD/git/ReactivityQM/dep/xtb-6.5.1/bin/xtb --gfn 1 /lustre/hpc/kemi/ree/PhD/git/ReactivityQM/calculations/R02methylcation/reac01prodN08/conf20/R02methylcation_reac01prodN08_conf20_gfn1.xyz --opt --vfukui --chrg 0 --uhf 0 --alpb DMSO

   ID    Z sym.   atoms
    1    6 C      1, 3, 5, 7-10, 12, 14, 17, 18, 21, 23, 25
    2    8 O      2, 4, 13, 19, 22, 24
    3    7 N      6, 11, 15, 16, 20
    4    1 H      26-42

      * Solvation model:               ALPB
        Solvent                        DMSO
        Solvent mass                       7.8130E+01 g/mol
          :  Hamiltonian                  GFN1-xTB          :
 * total energy  :   -82.9982169 Eh     change       -0.1489298E-10 Eh
 * total energy  :   -83.0130698 Eh     change       -0.1485298E-01 Eh
 * total energy  :   -83.0175286 Eh     change       -0.4458761E-02 Eh
 * total energy  :   -83.0182858 Eh     change       -0.7571764E-03 Eh
 * total energy  :   -83.0187825 Eh     change       -0.4966804E-03 Eh
 * total energy  :   -83.0191118 Eh     change       -0.3293332E-03 Eh
 * total energy  :   -83.0194087 Eh     change       -0.2968796E-03 Eh
 * total energy  :   -83.0196469 Eh     change       -0.2382118E-03 Eh
 * total energy  :   -83.0197880 Eh     change       -0.1411062E-03 Eh
 * total energy  :   -83.0198694 Eh     change       -0.8144129E-04 Eh
 * total energy  :   -83.0206182 Eh     change       -0.1062560E-04 Eh
 * total energy  :   -83.0206311 Eh     change       -0.1285702E-04 Eh
 * total energy  :   -83.0206450 Eh     change       -0.1386752E-04 Eh
 * total energy  :   -83.0206561 Eh     change       -0.1111110E-04 Eh
 * total energy  :   -83.0206638 Eh     change       -0.7724790E-05 Eh
 * total energy  :   -83.0206704 Eh     change       -0.6643316E-05 Eh
 * total energy  :   -83.0206769 Eh     change       -0.6420318E-05 Eh
 * total energy  :   -83.0206828 Eh     change       -0.5881277E-05 Eh
 * total energy  :   -83.0206874 Eh     change       -0.4624528E-05 Eh
   *** GEOMETRY OPTIMIZATION CONVERGED AFTER 33 ITERATIONS ***

 final structure:
================
42
 xtb: 6.5.1 (579679a)
C           -2.33372128326397        4.03146082254681       -1.42653374775876
O           -2.54162291533485        2.66662222564540       -1.05055729549423
C           -1.46242864585226        1.98906737316439       -0.66918182664573
O           -0.35552672709149        2.47793947322690       -0.62952892813766
C           -1.72872420408751        0.56747861298465       -0.28917399437633
N           -0.58351361040060       -0.08444878907550        0.08789083565148
C           -0.63372380159383       -1.31720899086162        0.45705374167296
C            0.62644102360364       -2.04486997093442        0.87688659432975
C            0.53176257228317       -2.42188174032740        2.36308341941924
C            0.83541645129881       -3.28833416134857        0.00066558767869
N            1.72706459507532       -1.10854710093053        0.67207450024738
C            3.01197480236743       -1.39417860457277        0.94283924215233
O            3.42399787560191       -2.45236772765080        1.39404814777504
C            3.93069550282546       -0.26788530557068        0.63260317323702
N            5.21883881640159       -0.24056658381534        0.78191300711631
N            5.63730076858934        0.98830273905839        0.36666805537903
C            4.57838642252178        1.63539487500145       -0.01061126264462
C            4.50673645943006        3.01466532051326       -0.53990619401129
O            3.46550947867317        0.89719704691421        0.13174261026823
N           -1.81125628305338       -1.99957772096289        0.49016317821952
C           -3.03191812060554       -1.46644541864260        0.12784756647717
O           -4.03615819705155       -2.16062910064925        0.18557812974464
C           -2.95271778557141       -0.06477502508606       -0.29526308778612
O           -4.04272407214899        0.61097636790206       -0.68056176054130
C           -5.34341699105542        0.02457417337943       -0.74292084316524
H           -3.30826926601428        4.43151991734008       -1.69848051371209
H           -1.91307089600333        4.59184800525837       -0.58830512395945
H           -1.64982007960254        4.08592191153401       -2.27678291895093
H           -0.33373002686610       -3.06013947248249        2.52741256411431
H            1.42841757596612       -2.96029876650831        2.66526194502833
H            0.43141649150509       -1.52259698462898        2.96868879330959
H            1.75250748050496       -3.79562181088856        0.29519594313144
H            0.00148783621003       -3.97550171736565        0.12444737431391
H            0.90587710974748       -2.99784377152735       -1.04621902215753
H            1.47596679154625       -0.19987861364368        0.29793175533845
H            3.86725800817715        3.62536746978867        0.09701675153876
H            5.50492086440505        3.44427411774755       -0.57256337382144
H            4.07870045869227        3.00913234770860       -1.54204959519895
H           -1.84010169162043       -2.96310077831695        0.78885715565687
H           -5.99988002863979        0.81506775135073       -1.10888150325826
H           -5.36174877348902       -0.81875946671894       -1.43672931646723
H           -5.67660298607973       -0.30135292855967        0.24489523628590

          :  Hamiltonian                  GFN1-xTB          :
         :: total energy             -83.020687375224 Eh    ::
         :: gradient norm              0.000343512731 Eh/a0 ::
         :: HOMO-LUMO gap              2.768668382622 eV    ::
         :: SCC energy               -83.804140175527 Eh    ::
         :: -> Gsolv                  -0.052025792688 Eh    ::
         :: repulsion energy           0.808679612204 Eh    ::

    * Orbital Energies and Occupations

         #    Occupation            Energy/Eh            Energy/eV
      -------------------------------------------------------------
         1        2.0000           -0.8640760             -23.5127
       ...           ...                  ...                  ...
        55        2.0000           -0.5035895             -13.7034
        56        2.0000           -0.5029688             -13.6865
        57        2.0000           -0.4954271             -13.4813
        58        2.0000           -0.4865288             -13.2391
        59        2.0000           -0.4811488             -13.0927
        60        2.0000           -0.4789769             -13.0336
        61        2.0000           -0.4648953             -12.6504
        62        2.0000           -0.4592012             -12.4955
        63        2.0000           -0.4589756             -12.4894
        64        2.0000           -0.4516604             -12.2903
        65        2.0000           -0.4502345             -12.2515
        66        2.0000           -0.4469365             -12.1618
        67        2.0000           -0.4279528             -11.6452 (HOMO)
        68                         -0.3262061              -8.8765 (LUMO)
        69                         -0.3085877              -8.3971
        70                         -0.2857976              -7.7769
        71                         -0.2560400              -6.9672
        72                         -0.2412589              -6.5650
        73                         -0.1965545              -5.3485
        74                         -0.1623118              -4.4167
        75                         -0.1423664              -3.8740
        76                         -0.1411436              -3.8407
        77                         -0.1364806              -3.7138
        78                         -0.1314060              -3.5757
       ...                                ...                  ...
       134                          0.7249719              19.7275
      -------------------------------------------------------------
                  HL-Gap            0.1017467 Eh            2.7687 eV

Wiberg/Mayer (AO) data.
largest (>0.10) Wiberg bond orders for each atom

     #   Z sym  total        # sym  WBO       # sym  WBO       # sym  WBO
 ---------------------------------------------------------------------------
     1   6 C    3.871 --    26 H    0.986    27 H    0.979    28 H    0.979
                             2 O    0.896
     2   8 O    2.206 --     3 C    1.118     1 C    0.896     4 O    0.135
     3   6 C    3.853 --     4 O    1.655     2 O    1.118     5 C    0.999
     4   8 O    1.918 --     3 C    1.655     2 O    0.135
     5   6 C    3.961 --    23 C    1.484     6 N    1.182     3 C    0.999
     6   7 N    3.052 --     7 C    1.582     5 C    1.182
     7   6 C    3.930 --     6 N    1.582    20 N    1.172     8 C    0.983
     8   6 C    3.940 --     7 C    0.983    10 C    0.979     9 C    0.976
                            11 N    0.937
     9   6 C    3.987 --    31 H    0.985    29 H    0.984    30 H    0.978
                             8 C    0.976
    10   6 C    3.987 --    34 H    0.985    33 H    0.983     8 C    0.979
                            32 H    0.978
    11   7 N    3.362 --    12 C    1.272     8 C    0.937    35 H    0.874
                            13 O    0.180
    12   6 C    3.919 --    13 O    1.574    11 N    1.272    14 C    0.991
    13   8 O    1.895 --    12 C    1.574    11 N    0.180
    14   6 C    3.872 --    15 N    1.623    19 O    1.049    12 C    0.991
    15   7 N    2.998 --    14 C    1.623    16 N    1.198
    16   7 N    2.981 --    17 C    1.611    15 N    1.198
    17   6 C    3.870 --    16 N    1.611    19 O    1.074    18 C    1.031
    18   6 C    3.987 --    17 C    1.031    37 H    0.983    36 H    0.963
                            38 H    0.963
    19   8 O    2.319 --    17 C    1.074    14 C    1.049
    20   7 N    3.465 --     7 C    1.172    21 C    1.127    39 H    0.883
                            22 O    0.132
    21   6 C    3.909 --    22 O    1.578    20 N    1.127    23 C    1.066
    22   8 O    1.906 --    21 C    1.578    20 N    0.132
    23   6 C    3.919 --     5 C    1.484    24 O    1.099    21 C    1.066
    24   8 O    2.195 --    23 C    1.099    25 C    0.895
    25   6 C    3.870 --    40 H    0.984    41 H    0.979    42 H    0.978
                            24 O    0.895
    26   1 H    1.011 --     1 C    0.986
    27   1 H    1.007 --     1 C    0.979
    28   1 H    1.007 --     1 C    0.979
    29   1 H    0.999 --     9 C    0.984
    30   1 H    1.008 --     9 C    0.978
    31   1 H    1.001 --     9 C    0.985
    32   1 H    1.007 --    10 C    0.978
    33   1 H    0.999 --    10 C    0.983
    34   1 H    1.001 --    10 C    0.985
    35   1 H    0.957 --    11 N    0.874
    36   1 H    0.997 --    18 C    0.963
    37   1 H    0.999 --    18 C    0.983
    38   1 H    0.997 --    18 C    0.963
    39   1 H    0.931 --    20 N    0.883
    40   1 H    1.012 --    25 C    0.984
    41   1 H    1.014 --    25 C    0.979
    42   1 H    1.014 --    25 C    0.978
 ---------------------------------------------------------------------------

           -------------------------------------------------
          | TOTAL ENERGY              -83.020687375224 Eh   |
          | GRADIENT NORM               0.000343512731 Eh/α |
          | HOMO-LUMO GAP               2.768668382622 eV   |
           -------------------------------------------------

 * finished run on 2023/06/21 at 17:39:06.215
