   * xtb version 6.5.1 (579679a) compiled by 'ehlert@majestix' on 2022-07-11
          program call               : /lustre/hpc/kemi/ree/PhD/git/ReactivityQM/dep/xtb-6.5.1/bin/xtb --gfn 1 /lustre/hpc/kemi/ree/PhD/git/ReactivityQM/calculations/R03/reac01prodE01/conf05/R03_reac01prodE01_conf05_gfn1.xyz --opt --vfukui --chrg -1 --uhf 0 --alpb DMSO

   ID    Z sym.   atoms
    1    6 C      1-3, 5-7, 9, 10
    2    7 N      4
    3    9 F      8
    4    1 H      11-21

      * Solvation model:               ALPB
        Solvent                        DMSO
        Solvent mass                       7.8130E+01 g/mol
          :  Hamiltonian                  GFN1-xTB          :
 * total energy  :   -31.4535027 Eh     change       -0.1524114E-11 Eh
 * total energy  :   -31.4552627 Eh     change       -0.1760040E-02 Eh
 * total energy  :   -31.4555955 Eh     change       -0.3327151E-03 Eh
 * total energy  :   -31.4556788 Eh     change       -0.8334888E-04 Eh
 * total energy  :   -31.4557594 Eh     change       -0.8063434E-04 Eh
 * total energy  :   -31.4558255 Eh     change       -0.6601489E-04 Eh
 * total energy  :   -31.4558962 Eh     change       -0.7074202E-04 Eh
 * total energy  :   -31.4559233 Eh     change       -0.2706174E-04 Eh
 * total energy  :   -31.4559258 Eh     change       -0.2544749E-05 Eh
 * total energy  :   -31.4559382 Eh     change       -0.1242055E-04 Eh
 * total energy  :   -31.4559456 Eh     change       -0.7417470E-05 Eh
 * total energy  :   -31.4559529 Eh     change       -0.7221319E-05 Eh
 * total energy  :   -31.4559607 Eh     change       -0.7880543E-05 Eh
 * total energy  :   -31.4559642 Eh     change       -0.3462076E-05 Eh
   *** GEOMETRY OPTIMIZATION CONVERGED AFTER 14 ITERATIONS ***

 final structure:
================
21
 xtb: 6.5.1 (579679a)
C           -0.64680280527697        0.24726613819408        1.75906990510917
C           -0.21935695203765       -0.09454762071905        0.29861389570493
C           -1.49885629827567       -0.57524720780430       -0.45772370081887
N           -2.58662423043965        0.41304155706873       -0.39768269289539
C            0.78642129326374       -1.23501698910409        0.31100292889966
C            2.05553942467577       -1.12185004784300       -0.18902318816865
C            2.49040268836456        0.07295311874658       -0.76198848270170
F            3.78863828779593        0.15578914884660       -1.26631285024023
C            1.65054205427263        1.18430669510387       -0.85215111362971
C            0.37153653755738        1.13558602853725       -0.37007793680529
H           -1.43727107759328        1.00059434561219        1.76075376815088
H            0.21195455050650        0.63660255079895        2.30719385428523
H           -1.01266980117034       -0.64476631365792        2.27232342069001
H           -1.86127014548554       -1.50334283788377        0.00283773711860
H           -1.22796952531139       -0.79941814165445       -1.50233045612456
H           -2.37423862262822        1.17911826942625       -1.02738634818358
H           -3.43420699477539       -0.01665310875300       -0.73835417306441
H            0.45430375030047       -2.16965358468791        0.75606602741217
H            2.73588441194633       -1.96983474426282       -0.14659022229195
H            2.02352712127437        2.09498698811874       -1.31620374980048
H           -0.26948366696357        2.01008775591709       -0.44203662264584

          :  Hamiltonian                  GFN1-xTB          :
         :: total energy             -31.455964207498 Eh    ::
         :: gradient norm              0.000439608981 Eh/a0 ::
         :: HOMO-LUMO gap              2.352380309038 eV    ::
         :: SCC energy               -31.825592032995 Eh    ::
         :: -> Gsolv                  -0.081462570422 Eh    ::
         :: repulsion energy           0.380126668272 Eh    ::

    * Orbital Energies and Occupations

         #    Occupation            Energy/Eh            Energy/eV
      -------------------------------------------------------------
         1        2.0000           -0.7741742             -21.0664
       ...           ...                  ...                  ...
        16        2.0000           -0.4842613             -13.1774
        17        2.0000           -0.4753011             -12.9336
        18        2.0000           -0.4669387             -12.7060
        19        2.0000           -0.4625649             -12.5870
        20        2.0000           -0.4533164             -12.3354
        21        2.0000           -0.4457316             -12.1290
        22        2.0000           -0.4332032             -11.7881
        23        2.0000           -0.4139765             -11.2649
        24        2.0000           -0.4051860             -11.0257
        25        2.0000           -0.3924291             -10.6785
        26        2.0000           -0.3738412             -10.1727
        27        2.0000           -0.3702223             -10.0743
        28        2.0000           -0.2715112              -7.3882 (HOMO)
        29                         -0.1850629              -5.0358 (LUMO)
        30                         -0.1054046              -2.8682
        31                         -0.0817566              -2.2247
        32                         -0.0752779              -2.0484
        33                         -0.0719065              -1.9567
        34                         -0.0511733              -1.3925
        35                         -0.0467208              -1.2713
        36                         -0.0419501              -1.1415
        37                         -0.0345145              -0.9392
        38                         -0.0248328              -0.6757
        39                         -0.0183255              -0.4987
       ...                                ...                  ...
        62                          0.6497553              17.6807
      -------------------------------------------------------------
                  HL-Gap            0.0864484 Eh            2.3524 eV

Wiberg/Mayer (AO) data.
largest (>0.10) Wiberg bond orders for each atom

     #   Z sym  total        # sym  WBO       # sym  WBO       # sym  WBO
 ---------------------------------------------------------------------------
     1   6 C    3.991 --    12 H    0.989    13 H    0.986    11 H    0.985
                             2 C    0.968
     2   6 C    3.984 --    10 C    1.006     5 C    1.005     1 C    0.968
                             3 C    0.957
     3   6 C    3.964 --     4 N    0.984    14 H    0.982    15 H    0.977
                             2 C    0.957
     4   7 N    2.951 --     3 C    0.984    16 H    0.957    17 H    0.955
     5   6 C    3.924 --     6 C    1.588     2 C    1.005    18 H    0.975
                             7 C    0.108    10 C    0.108
     6   6 C    3.992 --     5 C    1.588     7 C    1.320    19 H    0.972
     7   6 C    3.742 --     6 C    1.320     9 C    1.313     8 F    0.830
                             5 C    0.108    10 C    0.105
     8   9 F    0.921 --     7 C    0.830
     9   6 C    3.992 --    10 C    1.596     7 C    1.313    20 H    0.972
    10   6 C    3.929 --     9 C    1.596     2 C    1.006    21 H    0.974
                             5 C    0.108     7 C    0.105
    11   1 H    1.024 --     1 C    0.985
    12   1 H    1.029 --     1 C    0.989
    13   1 H    1.012 --     1 C    0.986
    14   1 H    1.018 --     3 C    0.982
    15   1 H    1.027 --     3 C    0.977
    16   1 H    0.976 --     4 N    0.957
    17   1 H    0.971 --     4 N    0.955
    18   1 H    1.003 --     5 C    0.975
    19   1 H    1.008 --     6 C    0.972
    20   1 H    1.008 --     9 C    0.972
    21   1 H    1.004 --    10 C    0.974
 ---------------------------------------------------------------------------

           -------------------------------------------------
          | TOTAL ENERGY              -31.455964207498 Eh   |
          | GRADIENT NORM               0.000439608981 Eh/α |
          | HOMO-LUMO GAP               2.352380309038 eV   |
           -------------------------------------------------

 * finished run on 2023/06/20 at 15:12:34.977
