   * xtb version 6.5.1 (579679a) compiled by 'ehlert@majestix' on 2022-07-11
          program call               : /lustre/hpc/kemi/ree/PhD/git/ReactivityQM/dep/xtb-6.5.1/bin/xtb --gfn 1 /lustre/hpc/kemi/ree/PhD/git/ReactivityQM/calculations/R02oxygendeprot/reac01prodN10/conf17/R02oxygendeprot_reac01prodN10_conf17_gfn1.xyz --opt --vfukui --chrg 0 --uhf 0 --alpb DMSO

   ID    Z sym.   atoms
    1    6 C      1, 3, 5, 6, 8, 11-15, 17, 19, 22, 23
    2    8 O      2, 4, 7, 9, 18, 24
    3    7 N      10, 16, 20, 21, 25
    4    1 H      26-42

      * Solvation model:               ALPB
        Solvent                        DMSO
        Solvent mass                       7.8130E+01 g/mol
          :  Hamiltonian                  GFN1-xTB          :
 * total energy  :   -82.9632968 Eh     change       -0.9379164E-11 Eh
 * total energy  :   -82.9753889 Eh     change       -0.1209215E-01 Eh
 * total energy  :   -82.9802653 Eh     change       -0.4876403E-02 Eh
 * total energy  :   -82.9811727 Eh     change       -0.9073471E-03 Eh
 * total energy  :   -82.9816444 Eh     change       -0.4716986E-03 Eh
 * total energy  :   -82.9818544 Eh     change       -0.2099602E-03 Eh
 * total energy  :   -82.9819755 Eh     change       -0.1211334E-03 Eh
 * total energy  :   -82.9820459 Eh     change       -0.7042566E-04 Eh
 * total energy  :   -82.9820964 Eh     change       -0.5052952E-04 Eh
 * total energy  :   -82.9821367 Eh     change       -0.4028513E-04 Eh
 * total energy  :   -82.9823160 Eh     change       -0.1397362E-04 Eh
 * total energy  :   -82.9823239 Eh     change       -0.7924186E-05 Eh
 * total energy  :   -82.9823368 Eh     change       -0.1289639E-04 Eh
 * total energy  :   -82.9823456 Eh     change       -0.8770394E-05 Eh
 * total energy  :   -82.9823511 Eh     change       -0.5470450E-05 Eh
 * total energy  :   -82.9823570 Eh     change       -0.5874770E-05 Eh
 * total energy  :   -82.9823562 Eh     change        0.7635941E-06 Eh
 * total energy  :   -82.9823613 Eh     change       -0.5140194E-05 Eh
 * total energy  :   -82.9823638 Eh     change       -0.2476158E-05 Eh
   *** GEOMETRY OPTIMIZATION CONVERGED AFTER 29 ITERATIONS ***

 final structure:
================
42
 xtb: 6.5.1 (579679a)
C           -5.66933786690399        2.24782931235446        0.31547325684532
O           -4.44280019091749        1.50598263721857        0.26739572768784
C           -4.51902035794860        0.21237646400220        0.53537838481599
O           -5.53278025140138       -0.37091943122764        0.81809667329093
C           -3.15975270872392       -0.45258517234251        0.43038245300787
C           -2.86864540833970       -1.64680924500267        1.27542215358126
O           -3.47838525061205       -1.92217754300790        2.27618946692850
C           -1.69736556912655       -2.49091414743733        0.76912737072262
O           -1.53843678385199       -3.65381040917389        1.07985392664173
N           -0.86133367828045       -1.83113043767542       -0.05954757622986
C           -1.00969458846723       -0.47991471809165       -0.56904938674795
C           -0.75639174334868       -0.52039396610161       -2.08163030111441
C           -0.02899255805844        0.49052973361975        0.18409340338574
C           -0.31497099959892        0.47054209767005        1.68856738524492
C           -0.16088814574791        1.91009988244194       -0.37464346923143
N            1.32367592656494       -0.01708492639300       -0.04912453841537
C            2.43711074516063        0.60922797132522        0.39770993636534
O            2.46548374401355        1.67297710398252        0.98776671731568
C            3.64820684388904       -0.18132538460318        0.06442408330687
N            3.66703400012910       -1.33778613232968       -0.52853818455657
N            4.97327243706792       -1.70862844128276       -0.62425570595400
C            5.66979686401558       -0.75395351374847       -0.08378295917696
C            7.14037803423506       -0.67737723780233        0.05737773583549
O            4.88910738514218        0.23770899891531        0.36978279391139
N           -2.31768713566492        0.05302011436711       -0.38180854734226
H           -6.11720876010006        2.16265738301652        1.30788618448731
H           -5.41221371408024        3.28229826201077        0.10071074465146
H           -6.36431847023882        1.86267217518994       -0.43351157431070
H           -0.10166910497007       -2.37351625440725       -0.43789064058413
H           -1.38094163803260       -1.29461379625306       -2.52285340643909
H            0.28679279178604       -0.74281010247697       -2.29107225239739
H           -1.01922022014328        0.43721381026338       -2.52443378745218
H           -0.22783020202890       -0.54207741904043        2.07943265760561
H            0.40651896788052        1.10642726995907        2.19884467066140
H           -1.31551913174320        0.85065601351442        1.88726457773822
H            0.24252294498889        1.96398688769066       -1.38364850761370
H            0.38829519288995        2.60784441102219        0.25529487689379
H           -1.21035013886960        2.19935169164304       -0.39166528686335
H            1.44388788764492       -0.92986322910811       -0.45866168036709
H            7.58509311760611       -1.62859429230425       -0.22468435450858
H            7.53509921284652        0.10930030334083       -0.58606922728677
H            7.40347452133957       -0.43641872373828        1.08668620566721

          :  Hamiltonian                  GFN1-xTB          :
         :: total energy             -82.982363813361 Eh    ::
         :: gradient norm              0.000302775252 Eh/a0 ::
         :: HOMO-LUMO gap              1.754840633389 eV    ::
         :: SCC energy               -83.763930794553 Eh    ::
         :: -> Gsolv                  -0.056840770494 Eh    ::
         :: repulsion energy           0.809184897070 Eh    ::

    * Orbital Energies and Occupations

         #    Occupation            Energy/Eh            Energy/eV
      -------------------------------------------------------------
         1        2.0000           -0.8655134             -23.5518
       ...           ...                  ...                  ...
        55        2.0000           -0.5080792             -13.8255
        56        2.0000           -0.5077097             -13.8155
        57        2.0000           -0.5063801             -13.7793
        58        2.0000           -0.5036272             -13.7044
        59        2.0000           -0.4981584             -13.5556
        60        2.0000           -0.4849158             -13.1952
        61        2.0000           -0.4813499             -13.0982
        62        2.0000           -0.4726581             -12.8617
        63        2.0000           -0.4648640             -12.6496
        64        2.0000           -0.4621630             -12.5761
        65        2.0000           -0.4543051             -12.3623
        66        2.0000           -0.4505371             -12.2597
        67        2.0000           -0.4389271             -11.9438 (HOMO)
        68                         -0.3744379             -10.1890 (LUMO)
        69                         -0.3185279              -8.6676
        70                         -0.3139735              -8.5437
        71                         -0.2583913              -7.0312
        72                         -0.2542253              -6.9178
        73                         -0.2056816              -5.5969
        74                         -0.2017895              -5.4910
        75                         -0.1459646              -3.9719
        76                         -0.1436164              -3.9080
        77                         -0.1425665              -3.8794
        78                         -0.1344436              -3.6584
       ...                                ...                  ...
       134                          0.7657651              20.8375
      -------------------------------------------------------------
                  HL-Gap            0.0644892 Eh            1.7548 eV

Wiberg/Mayer (AO) data.
largest (>0.10) Wiberg bond orders for each atom

     #   Z sym  total        # sym  WBO       # sym  WBO       # sym  WBO
 ---------------------------------------------------------------------------
     1   6 C    3.859 --    27 H    0.985    28 H    0.979    26 H    0.979
                             2 O    0.885
     2   8 O    2.221 --     3 C    1.141     1 C    0.885     4 O    0.146
     3   6 C    3.853 --     4 O    1.692     2 O    1.141     5 C    0.944
     4   8 O    1.949 --     3 C    1.692     2 O    0.146
     5   6 C    3.953 --    25 N    1.788     6 C    0.992     3 C    0.944
     6   6 C    3.857 --     7 O    1.804     5 C    0.992     8 C    0.908
     7   8 O    2.011 --     6 C    1.804
     8   6 C    3.903 --     9 O    1.633    10 N    1.247     6 C    0.908
     9   8 O    1.926 --     8 C    1.633    10 N    0.185
    10   7 N    3.362 --     8 C    1.247    11 C    0.937    29 H    0.885
                             9 O    0.185
    11   6 C    3.914 --    25 N    1.010    12 C    0.968    10 N    0.937
                            13 C    0.901
    12   6 C    3.979 --    30 H    0.982    31 H    0.981    32 H    0.981
                            11 C    0.968
    13   6 C    3.927 --    15 C    0.996    14 C    0.995    16 N    0.930
                            11 C    0.901
    14   6 C    3.990 --    13 C    0.995    35 H    0.984    33 H    0.983
                            34 H    0.975
    15   6 C    3.988 --    13 C    0.996    36 H    0.983    38 H    0.983
                            37 H    0.976
    16   7 N    3.334 --    17 C    1.238    13 C    0.930    39 H    0.894
                            18 O    0.175
    17   6 C    3.914 --    18 O    1.601    16 N    1.238    19 C    0.991
    18   8 O    1.918 --    17 C    1.601    16 N    0.175
    19   6 C    3.876 --    20 N    1.607    24 O    1.065    17 C    0.991
    20   7 N    3.020 --    19 C    1.607    21 N    1.203
    21   7 N    2.981 --    22 C    1.602    20 N    1.203
    22   6 C    3.870 --    21 N    1.602    24 O    1.083    23 C    1.032
    23   6 C    3.986 --    22 C    1.032    40 H    0.982    42 H    0.967
                            41 H    0.960
    24   8 O    2.332 --    22 C    1.083    19 C    1.065
    25   7 N    3.052 --     5 C    1.788    11 C    1.010
    26   1 H    1.004 --     1 C    0.979
    27   1 H    1.009 --     1 C    0.985
    28   1 H    1.004 --     1 C    0.979
    29   1 H    0.924 --    10 N    0.885
    30   1 H    0.999 --    12 C    0.982
    31   1 H    0.997 --    12 C    0.981
    32   1 H    1.003 --    12 C    0.981
    33   1 H    1.003 --    14 C    0.983
    34   1 H    1.006 --    14 C    0.975
    35   1 H    1.001 --    14 C    0.984
    36   1 H    1.001 --    15 C    0.983
    37   1 H    1.009 --    15 C    0.976
    38   1 H    1.009 --    15 C    0.983
    39   1 H    0.954 --    16 N    0.894
    40   1 H    0.998 --    23 C    0.982
    41   1 H    0.996 --    23 C    0.960
    42   1 H    0.996 --    23 C    0.967
 ---------------------------------------------------------------------------

           -------------------------------------------------
          | TOTAL ENERGY              -82.982363813361 Eh   |
          | GRADIENT NORM               0.000302775252 Eh/α |
          | HOMO-LUMO GAP               1.754840633389 eV   |
           -------------------------------------------------

 * finished run on 2023/06/21 at 17:25:26.628
