   * xtb version 6.5.1 (579679a) compiled by 'ehlert@majestix' on 2022-07-11
          program call               : /lustre/hpc/kemi/ree/PhD/git/ReactivityQM/dep/xtb-6.5.1/bin/xtb --gfn 1 /lustre/hpc/kemi/ree/PhD/git/ReactivityQM/calculations/R02deprot/reac01prodN11/conf20/R02deprot_reac01prodN11_conf20_gfn1.xyz --opt --vfukui --chrg 0 --uhf 0 --alpb DMSO

   ID    Z sym.   atoms
    1    6 C      1, 3, 5, 6, 8, 11-15, 17, 19, 22, 23
    2    8 O      2, 4, 7, 9, 18, 24
    3    7 N      10, 16, 20, 21, 25
    4    1 H      26-42

      * Solvation model:               ALPB
        Solvent                        DMSO
        Solvent mass                       7.8130E+01 g/mol
          :  Hamiltonian                  GFN1-xTB          :
 * total energy  :   -82.9115005 Eh     change       -0.1016076E-10 Eh
 * total energy  :   -82.9268398 Eh     change       -0.1533932E-01 Eh
 * total energy  :   -82.9330291 Eh     change       -0.6189272E-02 Eh
 * total energy  :   -82.9343909 Eh     change       -0.1361831E-02 Eh
 * total energy  :   -82.9352635 Eh     change       -0.8725276E-03 Eh
 * total energy  :   -82.9357639 Eh     change       -0.5004778E-03 Eh
 * total energy  :   -82.9361507 Eh     change       -0.3867298E-03 Eh
 * total energy  :   -82.9364493 Eh     change       -0.2986313E-03 Eh
 * total energy  :   -82.9366729 Eh     change       -0.2236024E-03 Eh
 * total energy  :   -82.9368333 Eh     change       -0.1603411E-03 Eh
 * total energy  :   -82.9373328 Eh     change       -0.1739145E-04 Eh
 * total energy  :   -82.9373267 Eh     change        0.6066954E-05 Eh
 * total energy  :   -82.9373597 Eh     change       -0.3299799E-04 Eh
 * total energy  :   -82.9373708 Eh     change       -0.1110290E-04 Eh
 * total energy  :   -82.9373563 Eh     change        0.1447089E-04 Eh
 * total energy  :   -82.9373965 Eh     change       -0.4013103E-04 Eh
 * total energy  :   -82.9374039 Eh     change       -0.7448958E-05 Eh
 * total energy  :   -82.9374119 Eh     change       -0.7951393E-05 Eh
 * total energy  :   -82.9374154 Eh     change       -0.3501313E-05 Eh
   *** GEOMETRY OPTIMIZATION CONVERGED AFTER 37 ITERATIONS ***

 final structure:
================
42
 xtb: 6.5.1 (579679a)
C           -6.64293008364356        0.63881068221381        0.43315372684739
O           -5.35528367962106        0.01096597316941        0.58039641537775
C           -4.33594736590750        0.62152323476190       -0.02062580075645
O           -4.44055578177539        1.63481700144678       -0.65907142472396
C           -3.02393043915647       -0.09970578802547        0.17573828415577
C           -2.81747544721677       -1.15925646718492        1.10068793596948
O           -3.76592129412564       -1.80201701822672        1.70938761923087
C           -1.41599404411484       -1.59681343291766        1.41648514656311
O           -1.18109471512632       -2.31057153660622        2.38577958668818
N           -0.50975973444856       -1.20063824455485        0.51662814797476
C           -0.78238004871465       -0.27502341230769       -0.50551137735590
C           -0.66800007537215       -1.03352763624279       -1.85295842666331
C            0.31823748320441        0.85496318919142       -0.43374821181508
C            0.13036120391871        1.63269345914721        0.87356350831357
C            0.23190649793164        1.78612682634410       -1.63906341349160
N            1.58922069604924        0.14455972739852       -0.39110812145769
C            2.79527621069311        0.73171131261052       -0.55009873834747
O            2.99374697365586        1.87237069800591       -0.92572682659529
C            3.88645380210790       -0.22267256760449       -0.22068203487325
N            3.74000802483205       -1.43542678178070        0.22135555745176
N            4.99132283183577       -1.94213243672017        0.40084687494329
C            5.82279192492437       -1.00482816508294        0.05851307699863
C            7.30119561471988       -1.05786495087880        0.07567201069909
O            5.18588210983411        0.10526404903278       -0.34158069705429
N           -2.04080152402189        0.36559266240357       -0.53858736480453
H           -6.61400180462056        1.63763991248579        0.87215113569057
H           -6.89657504656029        0.70822024724826       -0.62595453299887
H           -7.35605696966231        0.00930522598943        0.95798829250806
H           -4.67211248731538       -1.54240413688177        1.45187109156160
H            0.35538098988207       -1.37965815892517       -1.97542885261889
H           -0.94802215081476       -0.38409898771365       -2.67741003221971
H           -1.34211652346685       -1.88635005938602       -1.82027365913944
H            0.17473138597968        0.95821051277365        1.72710205060819
H            0.92223823791989        2.37482273790433        0.96690070098744
H           -0.83362856143030        2.13819533290510        0.86485051466014
H           -0.80877677746388        2.05292582636825       -1.81685069427686
H            0.79634151484068        2.69682850547240       -1.44548255740199
H            0.63964824907157        1.31201362588086       -2.52942716858910
H            1.56264239220292       -0.75937239425417        0.07193296257188
H            7.69090420993942       -0.33687470164088        0.79522473628429
H            7.62851565547155       -2.05789026430959        0.35154598517974
H            7.69456054556456       -0.80043360150918       -0.90737742607961

          :  Hamiltonian                  GFN1-xTB          :
         :: total energy             -82.937415382102 Eh    ::
         :: gradient norm              0.000774709893 Eh/a0 ::
         :: HOMO-LUMO gap              0.940246459643 eV    ::
         :: SCC energy               -83.702675835855 Eh    ::
         :: -> Gsolv                  -0.059425831860 Eh    ::
         :: repulsion energy           0.792341908878 Eh    ::

    * Orbital Energies and Occupations

         #    Occupation            Energy/Eh            Energy/eV
      -------------------------------------------------------------
         1        2.0000           -0.8648113             -23.5327
       ...           ...                  ...                  ...
        55        2.0000           -0.5069912             -13.7959
        56        2.0000           -0.5024292             -13.6718
        57        2.0000           -0.5019705             -13.6593
        58        2.0000           -0.4954653             -13.4823
        59        2.0000           -0.4896478             -13.3240
        60        2.0000           -0.4835045             -13.1568
        61        2.0000           -0.4667404             -12.7007
        62        2.0000           -0.4616163             -12.5612
        63        2.0000           -0.4584292             -12.4745
        64        2.0000           -0.4533560             -12.3364
        65        2.0000           -0.4482444             -12.1974
        66        2.0000           -0.4297006             -11.6927
        67        2.0000           -0.4251807             -11.5698 (HOMO)
        68                         -0.3906273             -10.6295 (LUMO)
        69                         -0.3241354              -8.8202
        70                         -0.3119345              -8.4882
        71                         -0.2580141              -7.0209
        72                         -0.2382385              -6.4828
        73                         -0.2005123              -5.4562
        74                         -0.1914062              -5.2084
        75                         -0.1432813              -3.8989
        76                         -0.1428241              -3.8864
        77                         -0.1367064              -3.7200
        78                         -0.1238301              -3.3696
       ...                                ...                  ...
       134                          0.7311647              19.8960
      -------------------------------------------------------------
                  HL-Gap            0.0345534 Eh            0.9402 eV

Wiberg/Mayer (AO) data.
largest (>0.10) Wiberg bond orders for each atom

     #   Z sym  total        # sym  WBO       # sym  WBO       # sym  WBO
 ---------------------------------------------------------------------------
     1   6 C    3.848 --    28 H    0.985    27 H    0.979    26 H    0.979
                             2 O    0.872
     2   8 O    2.217 --     3 C    1.112     1 C    0.872     4 O    0.138
     3   6 C    3.849 --     4 O    1.699     2 O    1.112     5 C    0.958
     4   8 O    1.960 --     3 C    1.699     2 O    0.138
     5   6 C    3.965 --    25 N    1.569     6 C    1.209     3 C    0.958
     6   6 C    3.825 --     7 O    1.263     5 C    1.209     8 C    0.983
                            10 N    0.172
     7   8 O    2.216 --     6 C    1.263    29 H    0.773
     8   6 C    3.933 --     9 O    1.543    10 N    1.307     6 C    0.983
     9   8 O    1.845 --     8 C    1.543    10 N    0.168
    10   7 N    3.046 --     8 C    1.307    11 C    1.056     6 C    0.172
                             9 O    0.168    25 N    0.158
    11   6 C    3.941 --    10 N    1.056    25 N    1.037    12 C    0.888
                            13 C    0.863
    12   6 C    3.977 --    31 H    0.984    32 H    0.983    30 H    0.980
                            11 C    0.888
    13   6 C    3.919 --    15 C    1.004    14 C    0.986    16 N    0.939
                            11 C    0.863
    14   6 C    3.991 --    13 C    0.986    35 H    0.984    33 H    0.984
                            34 H    0.981
    15   6 C    3.989 --    13 C    1.004    38 H    0.983    36 H    0.982
                            37 H    0.972
    16   7 N    3.350 --    17 C    1.242    13 C    0.939    39 H    0.882
                            18 O    0.172
    17   6 C    3.915 --    18 O    1.600    16 N    1.242    19 C    0.988
    18   8 O    1.912 --    17 C    1.600    16 N    0.172
    19   6 C    3.874 --    20 N    1.611    24 O    1.063    17 C    0.988
    20   7 N    3.016 --    19 C    1.611    21 N    1.201
    21   7 N    2.980 --    22 C    1.604    20 N    1.201
    22   6 C    3.870 --    21 N    1.604    24 O    1.083    23 C    1.031
    23   6 C    3.986 --    22 C    1.031    41 H    0.982    42 H    0.965
                            40 H    0.961
    24   8 O    2.330 --    22 C    1.083    19 C    1.063
    25   7 N    3.033 --     5 C    1.569    11 C    1.037    10 N    0.158
    26   1 H    1.003 --     1 C    0.979
    27   1 H    1.004 --     1 C    0.979
    28   1 H    1.007 --     1 C    0.985
    29   1 H    0.833 --     7 O    0.773
    30   1 H    1.005 --    12 C    0.980
    31   1 H    1.003 --    12 C    0.984
    32   1 H    1.002 --    12 C    0.983
    33   1 H    1.004 --    14 C    0.984
    34   1 H    1.001 --    14 C    0.981
    35   1 H    1.003 --    14 C    0.984
    36   1 H    1.010 --    15 C    0.982
    37   1 H    1.011 --    15 C    0.972
    38   1 H    1.002 --    15 C    0.983
    39   1 H    0.971 --    16 N    0.882
    40   1 H    0.997 --    23 C    0.961
    41   1 H    0.998 --    23 C    0.982
    42   1 H    0.997 --    23 C    0.965
 ---------------------------------------------------------------------------

           -------------------------------------------------
          | TOTAL ENERGY              -82.937415382102 Eh   |
          | GRADIENT NORM               0.000774709893 Eh/α |
          | HOMO-LUMO GAP               0.940246459643 eV   |
           -------------------------------------------------

 * finished run on 2023/06/20 at 18:18:03.968
