   * xtb version 6.5.1 (579679a) compiled by 'ehlert@majestix' on 2022-07-11
          program call               : /lustre/hpc/kemi/ree/PhD/git/ReactivityQM/dep/xtb-6.5.1/bin/xtb --gfn 1 /lustre/hpc/kemi/ree/PhD/git/ReactivityQM/calculations/R02/reac01prodN17/conf02/R02_reac01prodN17_conf02_gfn1.xyz --opt --vfukui --chrg 1 --uhf 0 --alpb DMSO

   ID    Z sym.   atoms
    1    6 C      1, 3, 5, 7-10, 12, 13, 15, 18, 19, 22, 24
    2    8 O      2, 4, 14, 20, 23, 25
    3    7 N      6, 11, 16, 17, 21
    4    1 H      26-43

      * Solvation model:               ALPB
        Solvent                        DMSO
        Solvent mass                       7.8130E+01 g/mol
          :  Hamiltonian                  GFN1-xTB          :
 * total energy  :   -83.1234627 Eh     change       -0.2958700E-10 Eh
 * total energy  :   -83.1386434 Eh     change       -0.1518076E-01 Eh
 * total energy  :   -83.1445581 Eh     change       -0.5914660E-02 Eh
 * total energy  :   -83.1456976 Eh     change       -0.1139462E-02 Eh
 * total energy  :   -83.1461874 Eh     change       -0.4897958E-03 Eh
 * total energy  :   -83.1464082 Eh     change       -0.2208392E-03 Eh
 * total energy  :   -83.1465908 Eh     change       -0.1826401E-03 Eh
 * total energy  :   -83.1467750 Eh     change       -0.1842044E-03 Eh
 * total energy  :   -83.1469668 Eh     change       -0.1917607E-03 Eh
 * total energy  :   -83.1471323 Eh     change       -0.1654934E-03 Eh
 * total energy  :   -83.1482408 Eh     change       -0.1189442E-04 Eh
 * total energy  :   -83.1482548 Eh     change       -0.1395249E-04 Eh
 * total energy  :   -83.1482658 Eh     change       -0.1101843E-04 Eh
 * total energy  :   -83.1482729 Eh     change       -0.7116677E-05 Eh
 * total energy  :   -83.1482804 Eh     change       -0.7439198E-05 Eh
 * total energy  :   -83.1482862 Eh     change       -0.5855137E-05 Eh
 * total energy  :   -83.1482914 Eh     change       -0.5186232E-05 Eh
 * total energy  :   -83.1482965 Eh     change       -0.5061461E-05 Eh
 * total energy  :   -83.1482995 Eh     change       -0.2981555E-05 Eh
   *** GEOMETRY OPTIMIZATION CONVERGED AFTER 39 ITERATIONS ***

 final structure:
================
43
 xtb: 6.5.1 (579679a)
C           -6.70900621856657        0.33441819291959       -1.13228804034541
O           -5.51822537643420        0.55837392776339       -0.36756418358005
C           -4.40769765292896       -0.01564762279852       -0.81245737263216
O           -4.35821333797905       -0.70261052915117       -1.80595458303312
C           -3.21168152279764        0.27277471282311        0.03936846709418
N           -2.06307211922418       -0.33319269777732       -0.41555829716877
C           -0.95369732653654       -0.18288554998072        0.21422278078888
C            0.28916010580818       -0.88612048446989       -0.29341269533629
C            0.99537726468569       -1.63521324322257        0.83572936658243
C           -0.06381537270298       -1.82172747705781       -1.44255476943389
N            1.23647353255127        0.22526266546693       -0.76582061135590
C            0.71559930274982        1.01631842997029       -1.91387397730298
C            2.60330786200820       -0.31853453972861       -1.13358060897507
O            2.75199724208478       -0.91512677994636       -2.14982202372368
C            3.55195371263500        0.03684281492129       -0.11243378178785
N            3.27899278751130        0.74059418049636        0.96191106352370
N            4.41345044378209        0.84652097457642        1.65859962774910
C            5.33862434609039        0.20014651276056        0.98333305835402
C            6.75447302924054        0.01789601737855        1.34863659331242
O            4.84555395104068       -0.32330809685914       -0.13716347332496
N           -0.84899922191390        0.58468376372290        1.34257912222134
C           -1.92670725854605        1.24639419428667        1.89250708697003
O           -1.83276804531326        1.93218210633893        2.89389657346766
C           -3.18381342015956        1.04949994519389        1.16597880056402
O           -4.24384784521255        1.66984506606542        1.67932666376802
H           -6.57620844991459        0.71236848231459       -2.14868688334374
H           -7.50731626007100        0.87441791455328       -0.62703731333316
H           -6.93410803814374       -0.73405474182242       -1.16886704330695
H            1.80649541005788       -2.24209340812720        0.43687451353182
H            0.27845158520855       -2.28842825752715        1.33112219812685
H            1.40542152248482       -0.94181729021725        1.56737970605388
H           -0.63266519844531       -1.30006614316399       -2.20969587965378
H           -0.68358651606975       -2.62378930897492       -1.04314322308770
H            0.83243589352649       -2.25390672596993       -1.88032806184569
H            1.37716029776141        0.85690361470229        0.02921112652445
H            1.33882848071179        1.90153566125654       -2.00762181531045
H           -0.31318384600079        1.29056687253378       -1.69807694316621
H            0.77907663808741        0.41029746126224       -2.81364391380074
H            6.93459353475014       -1.03059311606194        1.59293768107528
H            6.99780079268268        0.63789763520359        2.20838248451976
H            7.39197848348741        0.27751360936742        0.50331820550991
H            0.02948623243175        0.69076889680616        1.82302137314068
H           -3.97808042441343        2.16509036016776        2.47635100196847

          :  Hamiltonian                  GFN1-xTB          :
         :: total energy             -83.148299457589 Eh    ::
         :: gradient norm              0.000612067216 Eh/a0 ::
         :: HOMO-LUMO gap              1.701878249739 eV    ::
         :: SCC energy               -83.945596627786 Eh    ::
         :: -> Gsolv                  -0.121976587750 Eh    ::
         :: repulsion energy           0.825475310878 Eh    ::

    * Orbital Energies and Occupations

         #    Occupation            Energy/Eh            Energy/eV
      -------------------------------------------------------------
         1        2.0000           -0.9074363             -24.6926
       ...           ...                  ...                  ...
        55        2.0000           -0.5421775             -14.7534
        56        2.0000           -0.5332960             -14.5117
        57        2.0000           -0.5250287             -14.2868
        58        2.0000           -0.5220067             -14.2045
        59        2.0000           -0.5202203             -14.1559
        60        2.0000           -0.5080206             -13.8239
        61        2.0000           -0.5025705             -13.6756
        62        2.0000           -0.4982110             -13.5570
        63        2.0000           -0.4960255             -13.4975
        64        2.0000           -0.4943081             -13.4508
        65        2.0000           -0.4803820             -13.0719
        66        2.0000           -0.4685386             -12.7496
        67        2.0000           -0.4513227             -12.2811 (HOMO)
        68                         -0.3887798             -10.5792 (LUMO)
        69                         -0.3403534              -9.2615
        70                         -0.3095840              -8.4242
        71                         -0.2955025              -8.0410
        72                         -0.2627631              -7.1501
        73                         -0.2539199              -6.9095
        74                         -0.1768869              -4.8133
        75                         -0.1747933              -4.7564
        76                         -0.1666580              -4.5350
        77                         -0.1572233              -4.2783
        78                         -0.1524350              -4.1480
       ...                                ...                  ...
       136                          0.7281606              19.8143
      -------------------------------------------------------------
                  HL-Gap            0.0625429 Eh            1.7019 eV

Wiberg/Mayer (AO) data.
largest (>0.10) Wiberg bond orders for each atom

     #   Z sym  total        # sym  WBO       # sym  WBO       # sym  WBO
 ---------------------------------------------------------------------------
     1   6 C    3.866 --    27 H    0.986    26 H    0.979    28 H    0.979
                             2 O    0.891
     2   8 O    2.211 --     3 C    1.126     1 C    0.891     4 O    0.138
     3   6 C    3.856 --     4 O    1.661     2 O    1.126     5 C    0.992
     4   8 O    1.924 --     3 C    1.661     2 O    0.138
     5   6 C    3.958 --    24 C    1.505     6 N    1.168     3 C    0.992
     6   7 N    3.038 --     7 C    1.610     5 C    1.168
     7   6 C    3.941 --     6 N    1.610    21 N    1.155     8 C    0.977
     8   6 C    3.882 --    10 C    1.005     9 C    0.995     7 C    0.977
                            11 N    0.831
     9   6 C    3.982 --     8 C    0.995    31 H    0.977    29 H    0.977
                            30 H    0.976
    10   6 C    3.979 --     8 C    1.005    34 H    0.978    32 H    0.978
                            33 H    0.975
    11   7 N    3.591 --    12 C    0.895    35 H    0.879    13 C    0.850
                             8 C    0.831
    12   6 C    3.879 --    36 H    0.980    38 H    0.979    37 H    0.979
                            11 N    0.895
    13   6 C    3.879 --    14 O    1.798    15 C    1.088    11 N    0.850
    14   8 O    2.078 --    13 C    1.798
    15   6 C    3.890 --    16 N    1.503    13 C    1.088    20 O    1.062
    16   7 N    3.057 --    15 C    1.503    17 N    1.293
    17   7 N    2.992 --    18 C    1.503    16 N    1.293
    18   6 C    3.848 --    17 N    1.503    20 O    1.116    19 C    1.043
    19   6 C    3.975 --    18 C    1.043    40 H    0.978    41 H    0.957
                            39 H    0.946
    20   8 O    2.362 --    18 C    1.116    15 C    1.062
    21   7 N    3.456 --     7 C    1.155    22 C    1.123    42 H    0.880
                            23 O    0.134
    22   6 C    3.906 --    23 O    1.601    21 N    1.123    24 C    1.052
    23   8 O    1.922 --    22 C    1.601    21 N    0.134
    24   6 C    3.920 --     5 C    1.505    25 O    1.127    22 C    1.052
    25   8 O    2.104 --    24 C    1.127    43 H    0.800
    26   1 H    1.006 --     1 C    0.979
    27   1 H    1.010 --     1 C    0.986
    28   1 H    1.006 --     1 C    0.979
    29   1 H    0.994 --     9 C    0.977
    30   1 H    0.993 --     9 C    0.976
    31   1 H    1.001 --     9 C    0.977
    32   1 H    1.006 --    10 C    0.978
    33   1 H    0.999 --    10 C    0.975
    34   1 H    1.000 --    10 C    0.978
    35   1 H    0.953 --    11 N    0.879
    36   1 H    0.988 --    12 C    0.980
    37   1 H    0.996 --    12 C    0.979
    38   1 H    0.995 --    12 C    0.979
    39   1 H    0.989 --    19 C    0.946
    40   1 H    0.993 --    19 C    0.978
    41   1 H    0.990 --    19 C    0.957
    42   1 H    0.922 --    21 N    0.880
    43   1 H    0.838 --    25 O    0.800
 ---------------------------------------------------------------------------

           -------------------------------------------------
          | TOTAL ENERGY              -83.148299457589 Eh   |
          | GRADIENT NORM               0.000612067216 Eh/α |
          | HOMO-LUMO GAP               1.701878249739 eV   |
           -------------------------------------------------

 * finished run on 2023/06/20 at 15:43:12.595
