   * xtb version 6.5.1 (579679a) compiled by 'ehlert@majestix' on 2022-07-11
          program call               : /lustre/hpc/kemi/ree/PhD/git/ReactivityQM/dep/xtb-6.5.1/bin/xtb --gfn 1 /lustre/hpc/kemi/ree/PhD/git/ReactivityQM/calculations/R02deprot/reac01prodN10/conf11/R02deprot_reac01prodN10_conf11_gfn1.xyz --opt --vfukui --chrg 0 --uhf 0 --alpb DMSO

   ID    Z sym.   atoms
    1    6 C      1, 3, 5, 6, 8-11, 13, 15, 18, 19, 22, 24
    2    8 O      2, 4, 14, 20, 23, 25
    3    7 N      7, 12, 16, 17, 21
    4    1 H      26-42

      * Solvation model:               ALPB
        Solvent                        DMSO
        Solvent mass                       7.8130E+01 g/mol
          :  Hamiltonian                  GFN1-xTB          :
 * total energy  :   -82.9305230 Eh     change       -0.4035883E-11 Eh
 * total energy  :   -82.9450054 Eh     change       -0.1448236E-01 Eh
 * total energy  :   -82.9508832 Eh     change       -0.5877867E-02 Eh
 * total energy  :   -82.9522793 Eh     change       -0.1396087E-02 Eh
 * total energy  :   -82.9531069 Eh     change       -0.8275322E-03 Eh
 * total energy  :   -82.9533872 Eh     change       -0.2803453E-03 Eh
 * total energy  :   -82.9535416 Eh     change       -0.1543880E-03 Eh
 * total energy  :   -82.9536490 Eh     change       -0.1073887E-03 Eh
 * total energy  :   -82.9537370 Eh     change       -0.8805748E-04 Eh
 * total energy  :   -82.9538386 Eh     change       -0.1015750E-03 Eh
 * total energy  :   -82.9549324 Eh     change       -0.6626052E-05 Eh
 * total energy  :   -82.9549405 Eh     change       -0.8039296E-05 Eh
 * total energy  :   -82.9549512 Eh     change       -0.1068614E-04 Eh
 * total energy  :   -82.9549633 Eh     change       -0.1216326E-04 Eh
 * total energy  :   -82.9549748 Eh     change       -0.1143057E-04 Eh
 * total energy  :   -82.9549876 Eh     change       -0.1279284E-04 Eh
 * total energy  :   -82.9550006 Eh     change       -0.1303039E-04 Eh
 * total energy  :   -82.9550095 Eh     change       -0.8896633E-05 Eh
 * total energy  :   -82.9550137 Eh     change       -0.4207130E-05 Eh
   *** GEOMETRY OPTIMIZATION CONVERGED AFTER 54 ITERATIONS ***

 final structure:
================
42
 xtb: 6.5.1 (579679a)
C           -5.37607513305657       -0.67425961619901       -1.90914810366467
O           -4.74409620095379       -0.53213058747941       -0.62123434244094
C           -3.44579347444056       -0.40748078709450       -0.60361433393767
O           -2.70863850055701       -0.38643410828069       -1.54129839250797
C           -2.92412810404186       -0.28497203943853        0.90766383855958
C           -3.90475380829413       -0.96417376581037        1.86224158218104
N           -1.65896921897743       -0.93101973072619        0.89585157786696
C           -0.59614955344477       -0.22884708931422        0.64024585403462
C            0.69327111266130       -1.02742688018912        0.51993270356940
C            0.52311834887142       -2.06331081410456       -0.60086045271002
C            0.98034622253359       -1.71302363791244        1.86343993026371
N            1.77095258309631       -0.10307048904523        0.18814800102460
C            3.04521470446662       -0.47222533329697       -0.01263161711849
O            3.47998537405331       -1.61093792164771        0.06313874534984
C            3.89331411751577        0.70231611523871       -0.35672434948323
N            3.49544559645162        1.93410738001256       -0.46127845208601
N            4.58854704887000        2.67302691744996       -0.80580207618264
C            5.58309459720489        1.84337370400554       -0.89012406616332
C            6.98881360001992        2.15021061788383       -1.23533945483372
O            5.20868698002464        0.58438559071148       -0.61765566029363
N           -0.49871502364531        1.11060131313313        0.48286850580516
C           -1.57016816152489        1.88122220942262        0.68389964304464
O           -1.63040690179742        3.11279471031949        0.66768454034570
C           -2.84287445141686        1.16847390374881        0.99181619400246
O           -3.86903753430738        1.91212263921197        1.20809614730119
H           -5.04200219038930       -1.59979481186337       -2.37952953324404
H           -5.11679060201387        0.17793788995137       -2.53868781260847
H           -6.44533210885010       -0.70373923599985       -1.71676908970281
H           -4.05689488908796       -1.99593673025016        1.55527243946420
H           -3.48134333546061       -0.94813523500425        2.86444347952839
H           -4.85550671894612       -0.43703605380108        1.86235893918873
H            1.40577472976111       -2.69651913120526       -0.66969474971608
H           -0.34611642253236       -2.68138061048238       -0.38253456482733
H            0.36796866982632       -1.55749319514517       -1.55323160723645
H            1.86076637565527       -2.34820834364561        1.78233558728517
H            0.12232164309971       -2.32231268882541        2.14203357118403
H            1.14961448159160       -0.96357272629327        2.63538804180113
H            1.51473945561567        0.87733092776081        0.11662041772524
H            7.64504938503302        1.86712635960935       -0.41261539960033
H            7.09285301047041        3.21389892402012       -1.43421734911242
H            7.28878817949977        1.58257404719138       -2.11588362290764
H           -3.58487288259241        2.86194131339611        1.12947929085246

          :  Hamiltonian                  GFN1-xTB          :
         :: total energy             -82.955013690078 Eh    ::
         :: gradient norm              0.000446568419 Eh/a0 ::
         :: HOMO-LUMO gap              1.281143980550 eV    ::
         :: SCC energy               -83.726796094895 Eh    ::
         :: -> Gsolv                  -0.054625294346 Eh    ::
         :: repulsion energy           0.798134587863 Eh    ::

    * Orbital Energies and Occupations

         #    Occupation            Energy/Eh            Energy/eV
      -------------------------------------------------------------
         1        2.0000           -0.8778239             -23.8868
       ...           ...                  ...                  ...
        55        2.0000           -0.5027513             -13.6806
        56        2.0000           -0.4991962             -13.5838
        57        2.0000           -0.4972574             -13.5311
        58        2.0000           -0.4889747             -13.3057
        59        2.0000           -0.4875584             -13.2671
        60        2.0000           -0.4794382             -13.0462
        61        2.0000           -0.4620089             -12.5719
        62        2.0000           -0.4564098             -12.4195
        63        2.0000           -0.4531141             -12.3299
        64        2.0000           -0.4471278             -12.1670
        65        2.0000           -0.4406864             -11.9917
        66        2.0000           -0.4325474             -11.7702
        67        2.0000           -0.4266283             -11.6091 (HOMO)
        68                         -0.3795472             -10.3280 (LUMO)
        69                         -0.3051488              -8.3035
        70                         -0.2965358              -8.0692
        71                         -0.2708401              -7.3699
        72                         -0.2545742              -6.9273
        73                         -0.1997600              -5.4357
        74                         -0.1932504              -5.2586
        75                         -0.1534982              -4.1769
        76                         -0.1418392              -3.8596
        77                         -0.1345937              -3.6625
        78                         -0.1211488              -3.2966
       ...                                ...                  ...
       134                          0.7333262              19.9548
      -------------------------------------------------------------
                  HL-Gap            0.0470812 Eh            1.2811 eV

Wiberg/Mayer (AO) data.
largest (>0.10) Wiberg bond orders for each atom

     #   Z sym  total        # sym  WBO       # sym  WBO       # sym  WBO
 ---------------------------------------------------------------------------
     1   6 C    3.838 --    28 H    0.983    27 H    0.979    26 H    0.979
                             2 O    0.858
     2   8 O    2.243 --     3 C    1.181     1 C    0.858     4 O    0.141
     3   6 C    3.852 --     4 O    1.728     2 O    1.181     5 C    0.754
     4   8 O    2.026 --     3 C    1.728     2 O    0.141
     5   6 C    3.967 --    24 C    1.059     7 N    1.029     6 C    0.963
                             3 C    0.754
     6   6 C    3.980 --    29 H    0.983    31 H    0.983    30 H    0.980
                             5 C    0.963
     7   7 N    2.999 --     8 C    1.580     5 C    1.029
     8   6 C    3.942 --     7 N    1.580    21 N    1.256     9 C    0.978
     9   6 C    3.937 --    10 C    0.979    11 C    0.979     8 C    0.978
                            12 N    0.932
    10   6 C    3.990 --    34 H    0.986    33 H    0.984    32 H    0.981
                             9 C    0.979
    11   6 C    3.991 --    37 H    0.986    36 H    0.985    35 H    0.981
                             9 C    0.979
    12   7 N    3.367 --    13 C    1.278     9 C    0.932    38 H    0.875
                            14 O    0.183
    13   6 C    3.921 --    14 O    1.577    12 N    1.278    15 C    0.985
    14   8 O    1.897 --    13 C    1.577    12 N    0.183
    15   6 C    3.873 --    16 N    1.615    20 O    1.062    13 C    0.985
    16   7 N    3.012 --    15 C    1.615    17 N    1.196
    17   7 N    2.980 --    18 C    1.609    16 N    1.196
    18   6 C    3.872 --    17 N    1.609    20 O    1.082    19 C    1.031
    19   6 C    3.987 --    18 C    1.031    40 H    0.983    41 H    0.964
                            39 H    0.964
    20   8 O    2.327 --    18 C    1.082    15 C    1.062
    21   7 N    3.034 --    22 C    1.302     8 C    1.256    23 O    0.161
                            24 C    0.108
    22   6 C    3.934 --    23 O    1.517    21 N    1.302    24 C    0.991
    23   8 O    1.883 --    22 C    1.517    21 N    0.161
    24   6 C    3.789 --    25 O    1.319     5 C    1.059    22 C    0.991
                            21 N    0.108
    25   8 O    2.247 --    24 C    1.319    42 H    0.750
    26   1 H    1.001 --     1 C    0.979
    27   1 H    1.001 --     1 C    0.979
    28   1 H    1.005 --     1 C    0.983
    29   1 H    1.001 --     6 C    0.983
    30   1 H    0.999 --     6 C    0.980
    31   1 H    1.003 --     6 C    0.983
    32   1 H    1.010 --    10 C    0.981
    33   1 H    1.012 --    10 C    0.984
    34   1 H    1.004 --    10 C    0.986
    35   1 H    1.010 --    11 C    0.981
    36   1 H    1.009 --    11 C    0.985
    37   1 H    1.003 --    11 C    0.986
    38   1 H    0.971 --    12 N    0.875
    39   1 H    0.997 --    19 C    0.964
    40   1 H    0.999 --    19 C    0.983
    41   1 H    0.997 --    19 C    0.964
    42   1 H    0.821 --    25 O    0.750
 ---------------------------------------------------------------------------

           -------------------------------------------------
          | TOTAL ENERGY              -82.955013690078 Eh   |
          | GRADIENT NORM               0.000446568419 Eh/α |
          | HOMO-LUMO GAP               1.281143980550 eV   |
           -------------------------------------------------

 * finished run on 2023/06/20 at 18:18:01.410
