   * xtb version 6.5.1 (579679a) compiled by 'ehlert@majestix' on 2022-07-11
          program call               : /lustre/hpc/kemi/ree/PhD/git/ReactivityQM/dep/xtb-6.5.1/bin/xtb --gfn 1 /lustre/hpc/kemi/ree/PhD/git/ReactivityQM/calculations/RaltegravirCLI/reac02prodN14/conf17/RaltegravirCLI_reac02prodN14_conf17_gfn1.xyz --opt --vfukui --chrg 1 --uhf 0 --alpb DMSO

   ID    Z sym.   atoms
    1    6 C      1-3, 5, 7, 8, 11-15, 17-19, 21, 24, 25
    2    7 N      4, 6, 10, 23
    3    8 O      9, 20, 22
    4    9 F      16
    5    1 H      26-47

      * Solvation model:               ALPB
        Solvent                        DMSO
        Solvent mass                       7.8130E+01 g/mol
          :  Hamiltonian                  GFN1-xTB          :
 * total energy  :   -79.4633506 Eh     change       -0.7997869E-10 Eh
 * total energy  :   -79.4758428 Eh     change       -0.1249215E-01 Eh
 * total energy  :   -79.4801893 Eh     change       -0.4346541E-02 Eh
 * total energy  :   -79.4810990 Eh     change       -0.9096479E-03 Eh
 * total energy  :   -79.4816133 Eh     change       -0.5143134E-03 Eh
 * total energy  :   -79.4818434 Eh     change       -0.2300996E-03 Eh
 * total energy  :   -79.4820042 Eh     change       -0.1608207E-03 Eh
 * total energy  :   -79.4820976 Eh     change       -0.9343051E-04 Eh
 * total energy  :   -79.4821424 Eh     change       -0.4472877E-04 Eh
 * total energy  :   -79.4821706 Eh     change       -0.2825121E-04 Eh
 * total energy  :   -79.4822832 Eh     change       -0.5636628E-05 Eh
 * total energy  :   -79.4822928 Eh     change       -0.9590524E-05 Eh
 * total energy  :   -79.4823027 Eh     change       -0.9947223E-05 Eh
 * total energy  :   -79.4823182 Eh     change       -0.1542441E-04 Eh
 * total energy  :   -79.4823348 Eh     change       -0.1662989E-04 Eh
 * total energy  :   -79.4823491 Eh     change       -0.1425841E-04 Eh
 * total energy  :   -79.4823559 Eh     change       -0.6888906E-05 Eh
 * total energy  :   -79.4823613 Eh     change       -0.5357213E-05 Eh
 * total energy  :   -79.4823645 Eh     change       -0.3238153E-05 Eh
   *** GEOMETRY OPTIMIZATION CONVERGED AFTER 24 ITERATIONS ***

 final structure:
================
47
 xtb: 6.5.1 (579679a)
C           -2.40324300642590        2.60652454504169       -0.38506840267301
C           -3.11725589522793        1.45540517263964        0.34474902568516
C           -3.43870657115445        1.88111329173242        1.78791779144896
N           -4.35419890326248        1.11912220369429       -0.34309322178656
C           -2.15634902066823        0.28189283845091        0.42161760812504
N           -0.93854432941491        0.52957609013188        0.64175571798851
C            0.06710605866718       -0.40242347950432        0.79770899554114
C            1.42398689138784        0.23550077522574        0.97537975817705
O            1.52612438839272        1.44819215417021        1.07490748194149
N            2.46594613289046       -0.60769312333142        1.01934339100449
C            3.83297604532609       -0.10433650491381        1.14244127932690
C            4.48247887616882        0.01514400809393       -0.21962690680151
C            5.51358194983278       -0.84572068840182       -0.58543711253003
C            6.11206346776453       -0.74069528746424       -1.83393967938831
C            5.65240423873936        0.23376392992899       -2.70070397668865
F            6.22349895862742        0.34203275954532       -3.90971008706234
C            4.62632333524725        1.10192070669336       -2.37095517632489
C            4.04268370975024        0.98606403537224       -1.11818278119701
C           -0.25046581788338       -1.72549612715800        0.81742621449933
O            0.64085622080721       -2.69981147012740        1.03845042609159
C           -1.61326065434316       -2.17720398540258        0.61206582712783
O           -1.96604622712852       -3.32129568164830        0.64604550090985
N           -2.63701569643169       -1.12883401778627        0.25975497563202
C           -2.91802058728743       -1.37051536289590       -1.19269299757107
C           -3.85490022513803       -1.41289221314446        1.07592138007562
H           -1.49675610572958        2.88977655939790        0.14875478537544
H           -3.07350006424328        3.46224003056083       -0.43752937267935
H           -2.13882913532890        2.29843582353384       -1.39512344216349
H           -4.01298235033916        1.10990318895802        2.29663214761873
H           -2.51731468277280        2.06155751744642        2.34016354593302
H           -4.02641568499771        2.79758214706798        1.76469650169116
H           -5.12097426310014        1.64878678034737        0.04831620637922
H           -4.28562963997950        1.36495379936710       -1.32188848978249
H            2.34858271529095       -1.59326247886778        0.86372015443539
H            4.38922033841688       -0.79910217163750        1.77561828209034
H            3.78551910382179        0.87369192865774        1.63167299097008
H            5.85514510879143       -1.60485610107688        0.10809536515140
H            6.91493828360290       -1.40326727168647       -2.12971889444290
H            4.29369893333857        1.84911570780987       -3.07974469048762
H            3.23839540093522        1.65533787294708       -0.83634234593919
H            0.22625390866075       -3.57900611996057        1.00798808852204
H           -3.76712424092785       -0.75754843014096       -1.47450018205629
H           -2.03367952760002       -1.10090417998295       -1.76432480946332
H           -3.15149327915842       -2.42573654773761       -1.31425921030678
H           -4.12122387355875       -2.45541525977338        0.91867322314102
H           -4.65057322556801       -0.75894647608814        0.73215999364324
H           -3.61728605878930       -1.23266888808349        2.12086212081700

          :  Hamiltonian                  GFN1-xTB          :
         :: total energy             -79.482364540024 Eh    ::
         :: gradient norm              0.000648062625 Eh/a0 ::
         :: HOMO-LUMO gap              1.283438173854 eV    ::
         :: SCC energy               -80.381704416935 Eh    ::
         :: -> Gsolv                  -0.113970219452 Eh    ::
         :: repulsion energy           0.930721941522 Eh    ::

    * Orbital Energies and Occupations

         #    Occupation            Energy/Eh            Energy/eV
      -------------------------------------------------------------
         1        2.0000           -0.8927467             -24.2929
       ...           ...                  ...                  ...
        55        2.0000           -0.5188735             -14.1193
        56        2.0000           -0.5152273             -14.0200
        57        2.0000           -0.5130342             -13.9604
        58        2.0000           -0.5080217             -13.8240
        59        2.0000           -0.5070424             -13.7973
        60        2.0000           -0.4872317             -13.2582
        61        2.0000           -0.4784312             -13.0188
        62        2.0000           -0.4757576             -12.9460
        63        2.0000           -0.4706854             -12.8080
        64        2.0000           -0.4566396             -12.4258
        65        2.0000           -0.4547128             -12.3734
        66        2.0000           -0.4422146             -12.0333
        67        2.0000           -0.4378768             -11.9152 (HOMO)
        68                         -0.3907113             -10.6318 (LUMO)
        69                         -0.3192949              -8.6885
        70                         -0.2792760              -7.5995
        71                         -0.2783215              -7.5735
        72                         -0.2717170              -7.3938
        73                         -0.2003978              -5.4531
        74                         -0.1634589              -4.4479
        75                         -0.1580928              -4.3019
        76                         -0.1512848              -4.1167
        77                         -0.1392066              -3.7880
        78                         -0.1341795              -3.6512
       ...                                ...                  ...
       144                          0.7104009              19.3310
      -------------------------------------------------------------
                  HL-Gap            0.0471655 Eh            1.2834 eV

Wiberg/Mayer (AO) data.
largest (>0.10) Wiberg bond orders for each atom

     #   Z sym  total        # sym  WBO       # sym  WBO       # sym  WBO
 ---------------------------------------------------------------------------
     1   6 C    3.988 --    28 H    0.985    27 H    0.983    26 H    0.981
                             2 C    0.975
     2   6 C    3.958 --     4 N    0.993     5 C    0.983     1 C    0.975
                             3 C    0.965
     3   6 C    3.986 --    30 H    0.984    29 H    0.983    31 H    0.978
                             2 C    0.965
     4   7 N    2.996 --     2 C    0.993    33 H    0.931    32 H    0.928
     5   6 C    3.888 --     6 N    1.777     2 C    0.983    23 N    0.868
     6   7 N    3.089 --     5 C    1.777     7 C    1.117
     7   6 C    3.953 --    19 C    1.532     6 N    1.117     8 C    0.976
     8   6 C    3.919 --     9 O    1.581    10 N    1.286     7 C    0.976
     9   8 O    1.897 --     8 C    1.581    10 N    0.187
    10   7 N    3.379 --     8 C    1.286    11 C    0.933    34 H    0.885
                             9 O    0.187
    11   6 C    3.937 --    12 C    0.992    35 H    0.975    36 H    0.967
                            10 N    0.933
    12   6 C    3.987 --    13 C    1.423    18 C    1.414    11 C    0.992
    13   6 C    3.993 --    14 C    1.439    12 C    1.423    37 H    0.970
                            17 C    0.109
    14   6 C    3.991 --    13 C    1.439    15 C    1.403    38 H    0.969
                            18 C    0.111
    15   6 C    3.861 --    14 C    1.403    17 C    1.397    16 F    0.928
    16   9 F    1.057 --    15 C    0.928
    17   6 C    3.992 --    18 C    1.449    15 C    1.397    39 H    0.969
                            13 C    0.109
    18   6 C    3.993 --    17 C    1.449    12 C    1.414    40 H    0.970
                            14 C    0.111
    19   6 C    3.924 --     7 C    1.532    20 O    1.096    21 C    1.075
    20   8 O    2.089 --    19 C    1.096    41 H    0.790
    21   6 C    3.870 --    22 O    1.754    19 C    1.075    23 N    0.861
    22   8 O    2.048 --    21 C    1.754
    23   7 N    3.622 --    25 C    0.880    24 C    0.869     5 C    0.868
                            21 C    0.861
    24   6 C    3.877 --    43 H    0.982    44 H    0.977    42 H    0.971
                            23 N    0.869
    25   6 C    3.876 --    47 H    0.982    45 H    0.976    46 H    0.969
                            23 N    0.880
    26   1 H    1.009 --     1 C    0.981
    27   1 H    1.000 --     1 C    0.983
    28   1 H    1.001 --     1 C    0.985
    29   1 H    1.000 --     3 C    0.983
    30   1 H    1.001 --     3 C    0.984
    31   1 H    0.996 --     3 C    0.978
    32   1 H    0.943 --     4 N    0.928
    33   1 H    0.949 --     4 N    0.931
    34   1 H    0.938 --    10 N    0.885
    35   1 H    1.001 --    11 C    0.975
    36   1 H    1.007 --    11 C    0.967
    37   1 H    0.999 --    13 C    0.970
    38   1 H    0.997 --    14 C    0.969
    39   1 H    0.998 --    17 C    0.969
    40   1 H    1.006 --    18 C    0.970
    41   1 H    0.818 --    20 O    0.790
    42   1 H    1.007 --    24 C    0.971
    43   1 H    0.992 --    24 C    0.982
    44   1 H    0.994 --    24 C    0.977
    45   1 H    0.997 --    25 C    0.976
    46   1 H    1.016 --    25 C    0.969
    47   1 H    0.995 --    25 C    0.982
 ---------------------------------------------------------------------------

           -------------------------------------------------
          | TOTAL ENERGY              -79.482364540024 Eh   |
          | GRADIENT NORM               0.000648062625 Eh/α |
          | HOMO-LUMO GAP               1.283438173854 eV   |
           -------------------------------------------------

 * finished run on 2023/06/20 at 15:35:58.897
