   * xtb version 6.5.1 (579679a) compiled by 'ehlert@majestix' on 2022-07-11
          program call               : /lustre/hpc/kemi/ree/PhD/git/ReactivityQM/dep/xtb-6.5.1/bin/xtb --gfn 1 /lustre/hpc/kemi/ree/PhD/git/ReactivityQM/calculations/RaltegravirCLI/reac02prodN08/conf06/RaltegravirCLI_reac02prodN08_conf06_gfn1.xyz --opt --vfukui --chrg 1 --uhf 0 --alpb DMSO

   ID    Z sym.   atoms
    1    6 C      1, 3-6, 9, 10, 13-18, 20-22, 24
    2    7 N      2, 7, 8, 12
    3    8 O      11, 23, 25
    4    9 F      19
    5    1 H      26-47

      * Solvation model:               ALPB
        Solvent                        DMSO
        Solvent mass                       7.8130E+01 g/mol
          :  Hamiltonian                  GFN1-xTB          :
 * total energy  :   -79.4695828 Eh     change       -0.6821210E-12 Eh
 * total energy  :   -79.4785564 Eh     change       -0.8973611E-02 Eh
 * total energy  :   -79.4812437 Eh     change       -0.2687229E-02 Eh
 * total energy  :   -79.4816980 Eh     change       -0.4543661E-03 Eh
 * total energy  :   -79.4823173 Eh     change       -0.6192659E-03 Eh
 * total energy  :   -79.4827040 Eh     change       -0.3866713E-03 Eh
 * total energy  :   -79.4831312 Eh     change       -0.4272277E-03 Eh
 * total energy  :   -79.4835427 Eh     change       -0.4114484E-03 Eh
 * total energy  :   -79.4838309 Eh     change       -0.2882868E-03 Eh
 * total energy  :   -79.4839935 Eh     change       -0.1625511E-03 Eh
 * total energy  :   -79.4844312 Eh     change       -0.1187049E-04 Eh
 * total energy  :   -79.4844454 Eh     change       -0.1422980E-04 Eh
 * total energy  :   -79.4844605 Eh     change       -0.1512619E-04 Eh
 * total energy  :   -79.4844761 Eh     change       -0.1560564E-04 Eh
 * total energy  :   -79.4844909 Eh     change       -0.1473740E-04 Eh
 * total energy  :   -79.4845021 Eh     change       -0.1124976E-04 Eh
 * total energy  :   -79.4845095 Eh     change       -0.7379219E-05 Eh
 * total energy  :   -79.4845160 Eh     change       -0.6479766E-05 Eh
 * total energy  :   -79.4845197 Eh     change       -0.3704303E-05 Eh
   *** GEOMETRY OPTIMIZATION CONVERGED AFTER 39 ITERATIONS ***

 final structure:
================
47
 xtb: 6.5.1 (579679a)
C           -4.11976298828868        1.69846393355325        1.74572986923002
N           -2.91839020406549        1.14581141089165        1.11084634501870
C           -2.91209778737776        0.07040639179782        0.25954422154038
C           -4.18731953003810       -0.66325857656421       -0.14092443344912
C           -3.81508069908428       -1.93490968448032       -0.92168632008789
C           -5.04452497752504        0.24506563207506       -1.03385444390023
N           -4.94863798339352       -1.02726697692655        1.05029847058310
N           -1.81509690626443       -0.35939774440435       -0.28505953865431
C           -0.61147903299577        0.23423685235664       -0.04453771625870
C            0.54987250506802       -0.41497545942834       -0.71111810453848
O            0.53466507572261       -1.55249515866654       -1.13920793787718
N            1.66441572438097        0.38437382701935       -0.82958838764020
C            2.88690890508675       -0.13797278032762       -1.30045136336251
C            3.82890741108829       -0.63464149944338       -0.05995233137596
C            3.03419521708334       -1.72224865869901        0.68867734807645
C            5.03255441597396       -1.17136045338022       -0.70581270583939
C            6.22877601106093       -0.51492744409019       -0.67863681454810
C            6.32624637245832        0.67402349727914        0.05480910065254
F            7.47460183706854        1.29960717747106        0.07722646844212
C            5.25742962917017        1.21352597838050        0.78101254102078
C            4.05841279322444        0.56385510025931        0.75529034214998
C           -0.54695530595655        1.30221088592429        0.80361358360720
O            0.59095735400449        1.94263412881861        1.13931252035149
C           -1.75295738176064        1.81630023902196        1.42562227996281
O           -1.72532325495609        2.78575406999559        2.17827627916025
H           -4.47864050448483        2.54415360810763        1.15872274562948
H           -3.84482540659268        2.04566994013509        2.74175149527967
H           -4.88540113243324        0.93119118326956        1.81906164343265
H           -4.72230161319377       -2.48307360995149       -1.17022186071658
H           -3.29072936598048       -1.67617874578335       -1.84061874106786
H           -3.17002781889963       -2.57086211584049       -0.31757931680501
H           -5.40758307703239        1.10867888570031       -0.48101526305911
H           -5.90291833255785       -0.31501633531096       -1.40259626560588
H           -4.45839034484818        0.59079970503677       -1.88453966201675
H           -4.44325712978839       -1.72125744275734        1.58380668670510
H           -5.83531191645541       -1.42396703975764        0.77210280532543
H            1.66263694230304        1.31570942098683       -0.44600414759419
H            2.70206019142910       -1.01831756498862       -1.91828153431346
H            3.44510067270835        0.62158192195301       -1.84293080796592
H            2.14769197575557       -1.28128606511757        1.13889498261905
H            2.73629048824597       -2.51097289485194        0.00024383836886
H            3.66131583894873       -2.14176217061167        1.47241829996672
H            4.93414129356371       -2.10418923509395       -1.24920516261340
H            7.10422717558805       -0.90007782570244       -1.18698612057373
H            5.40482502849843        2.11936692275891        1.35586443997568
H            3.21108742438359        0.95296528750816        1.30880776234025
H            0.35969641116821        2.67403148187686        1.74772091044219

          :  Hamiltonian                  GFN1-xTB          :
         :: total energy             -79.484519694808 Eh    ::
         :: gradient norm              0.000349940207 Eh/a0 ::
         :: HOMO-LUMO gap              0.223843379155 eV    ::
         :: SCC energy               -80.368491814468 Eh    ::
         :: -> Gsolv                  -0.103553162553 Eh    ::
         :: repulsion energy           0.915244095729 Eh    ::

    * Orbital Energies and Occupations

         #    Occupation            Energy/Eh            Energy/eV
      -------------------------------------------------------------
         1        2.0000           -0.9367168             -25.4894
       ...           ...                  ...                  ...
        55        2.0000           -0.5193091             -14.1311
        56        2.0000           -0.5162605             -14.0482
        57        2.0000           -0.5139003             -13.9839
        58        2.0000           -0.5065359             -13.7835
        59        2.0000           -0.5004669             -13.6184
        60        2.0000           -0.4927877             -13.4094
        61        2.0000           -0.4881479             -13.2832
        62        2.0000           -0.4786903             -13.0258
        63        2.0000           -0.4717687             -12.8375
        64        2.0000           -0.4624515             -12.5839
        65        2.0000           -0.4493848             -12.2284
        66        2.0000           -0.4341114             -11.8128
        67        1.9740           -0.4193116             -11.4100 (HOMO)
        68        0.0260           -0.4110855             -11.1862 (LUMO)
        69                         -0.3295674              -8.9680
        70                         -0.3278625              -8.9216
        71                         -0.2863271              -7.7914
        72                         -0.2518815              -6.8540
        73                         -0.2426931              -6.6040
        74                         -0.1661123              -4.5201
        75                         -0.1523619              -4.1460
        76                         -0.1470009              -4.0001
        77                         -0.1394283              -3.7940
        78                         -0.1368410              -3.7236
       ...                                ...                  ...
       144                          0.7061947              19.2165
      -------------------------------------------------------------
                  HL-Gap            0.0082261 Eh            0.2238 eV

Wiberg/Mayer (AO) data.
largest (>0.10) Wiberg bond orders for each atom

     #   Z sym  total        # sym  WBO       # sym  WBO       # sym  WBO
 ---------------------------------------------------------------------------
     1   6 C    3.912 --    27 H    0.976    26 H    0.975    28 H    0.967
                             2 N    0.923
     2   7 N    3.522 --     3 C    1.180    24 C    1.139     1 C    0.923
                            25 O    0.135
     3   6 C    3.916 --     8 N    1.555     2 N    1.180     4 C    0.975
     4   6 C    3.961 --     5 C    0.989     6 C    0.983     7 N    0.981
                             3 C    0.975
     5   6 C    3.990 --     4 C    0.989    29 H    0.985    31 H    0.984
                            30 H    0.983
     6   6 C    3.992 --    34 H    0.986     4 C    0.983    33 H    0.982
                            32 H    0.982
     7   7 N    2.983 --     4 C    0.981    35 H    0.937    36 H    0.935
     8   7 N    3.029 --     3 C    1.555     9 C    1.201
     9   6 C    3.965 --    22 C    1.493     8 N    1.201    10 C    1.008
    10   6 C    3.886 --    11 O    1.633    12 N    1.149     9 C    1.008
    11   8 O    1.922 --    10 C    1.633    12 N    0.132
    12   7 N    3.370 --    10 C    1.149    13 C    1.049    37 H    0.878
                            11 O    0.132
    13   6 C    3.928 --    12 N    1.049    39 H    0.976    38 H    0.963
                            14 C    0.756
    14   6 C    3.980 --    21 C    1.104    16 C    1.104    15 C    0.940
                            13 C    0.756
    15   6 C    3.970 --    42 H    0.981    41 H    0.980    40 H    0.980
                            14 C    0.940
    16   6 C    3.938 --    17 C    1.592    14 C    1.104    43 H    0.964
    17   6 C    3.983 --    16 C    1.592    18 C    1.298    44 H    0.957
    18   6 C    3.818 --    17 C    1.298    20 C    1.298    19 F    1.023
    19   9 F    1.175 --    18 C    1.023
    20   6 C    3.984 --    21 C    1.593    18 C    1.298    45 H    0.957
    21   6 C    3.941 --    20 C    1.593    14 C    1.104    46 H    0.962
    22   6 C    3.909 --     9 C    1.493    24 C    1.084    23 O    1.076
    23   8 O    2.069 --    22 C    1.076    47 H    0.792
    24   6 C    3.918 --    25 O    1.549     2 N    1.139    22 C    1.084
    25   8 O    1.893 --    24 C    1.549     2 N    0.135
    26   1 H    1.002 --     1 C    0.975
    27   1 H    1.006 --     1 C    0.976
    28   1 H    1.026 --     1 C    0.967
    29   1 H    1.003 --     5 C    0.985
    30   1 H    1.011 --     5 C    0.983
    31   1 H    1.009 --     5 C    0.984
    32   1 H    1.003 --     6 C    0.982
    33   1 H    0.999 --     6 C    0.982
    34   1 H    1.002 --     6 C    0.986
    35   1 H    0.952 --     7 N    0.937
    36   1 H    0.950 --     7 N    0.935
    37   1 H    0.935 --    12 N    0.878
    38   1 H    1.002 --    13 C    0.963
    39   1 H    0.999 --    13 C    0.976
    40   1 H    0.999 --    15 C    0.980
    41   1 H    1.001 --    15 C    0.980
    42   1 H    0.997 --    15 C    0.981
    43   1 H    0.990 --    16 C    0.964
    44   1 H    0.986 --    17 C    0.957
    45   1 H    0.986 --    20 C    0.957
    46   1 H    0.999 --    21 C    0.962
    47   1 H    0.837 --    23 O    0.792
 ---------------------------------------------------------------------------

           -------------------------------------------------
          | TOTAL ENERGY              -79.484519694808 Eh   |
          | GRADIENT NORM               0.000349940207 Eh/α |
          | HOMO-LUMO GAP               0.223843379155 eV   |
           -------------------------------------------------

 * finished run on 2023/06/20 at 15:27:10.116
