   * xtb version 6.5.1 (579679a) compiled by 'ehlert@majestix' on 2022-07-11
          program call               : /lustre/hpc/kemi/ree/PhD/git/ReactivityQM/dep/xtb-6.5.1/bin/xtb --gfn 1 /lustre/hpc/kemi/ree/PhD/git/ReactivityQM/calculations/R01/reac01prodN04/conf13/R01_reac01prodN04_conf13_gfn1.xyz --opt --vfukui --chrg 1 --uhf 0 --alpb DMSO

   ID    Z sym.   atoms
    1    6 C      1, 3, 5, 8-10
    2    8 O      2, 4, 11
    3    7 N      6, 7
    4    1 H      12-20

      * Solvation model:               ALPB
        Solvent                        DMSO
        Solvent mass                       7.8130E+01 g/mol
          :  Hamiltonian                  GFN1-xTB          :
 * total energy  :   -37.6285154 Eh     change       -0.7709389E-11 Eh
 * total energy  :   -37.6405800 Eh     change       -0.1206455E-01 Eh
 * total energy  :   -37.6440997 Eh     change       -0.3519764E-02 Eh
 * total energy  :   -37.6447448 Eh     change       -0.6451008E-03 Eh
 * total energy  :   -37.6452023 Eh     change       -0.4574257E-03 Eh
 * total energy  :   -37.6453622 Eh     change       -0.1599564E-03 Eh
 * total energy  :   -37.6455183 Eh     change       -0.1560670E-03 Eh
 * total energy  :   -37.6456519 Eh     change       -0.1335756E-03 Eh
 * total energy  :   -37.6457188 Eh     change       -0.6692702E-04 Eh
 * total energy  :   -37.6457547 Eh     change       -0.3590894E-04 Eh
 * total energy  :   -37.6457640 Eh     change       -0.9254091E-05 Eh
 * total energy  :   -37.6457633 Eh     change        0.6350471E-06 Eh
 * total energy  :   -37.6457679 Eh     change       -0.4543479E-05 Eh
   *** GEOMETRY OPTIMIZATION CONVERGED AFTER 13 ITERATIONS ***

 final structure:
================
20
 xtb: 6.5.1 (579679a)
C            4.03732189717957        0.81130565491630        0.01685570866646
O            2.60120356569253        0.72173205475142       -0.05331279242699
C            2.08608692419751       -0.45654462038321       -0.29868036163272
O            2.67985029045292       -1.48285316131237       -0.47776102317783
C            0.57991829770332       -0.39193958014704       -0.33516361192521
N           -0.23420474135648       -1.37792222158677       -0.55955484137367
N           -1.46063576135396       -0.83404679141490       -0.49609640067304
C           -2.63322334880268       -1.66292462600554       -0.68725318183182
C           -1.36959333808383        0.45557626655490       -0.23400286704131
C           -2.44281417898599        1.44854687965981       -0.07205665861588
O           -0.09280686371119        0.75539407343424       -0.13058138891264
H            4.26285190478958        1.85139776738946        0.23844229861721
H            4.40473184208781        0.15568034763752        0.80781879570269
H            4.46843117144474        0.51532063422107       -0.94061651076289
H           -3.40907151273944       -1.06503458906567       -1.15820109229062
H           -2.97406436347943       -2.01896542930770        0.28461467103017
H           -2.35333708944104       -2.50313194702307       -1.31839162985368
H           -2.00932376383551        2.41115084143578        0.19276775350959
H           -3.13642440681357        1.12481008900619        0.70498614514667
H           -3.00489852494517        1.54244935723950       -1.00300301215457

          :  Hamiltonian                  GFN1-xTB          :
         :: total energy             -37.645767866107 Eh    ::
         :: gradient norm              0.000481900410 Eh/a0 ::
         :: HOMO-LUMO gap              4.087368582349 eV    ::
         :: SCC energy               -38.000792022738 Eh    ::
         :: -> Gsolv                  -0.086275001187 Eh    ::
         :: repulsion energy           0.363055874617 Eh    ::

    * Orbital Energies and Occupations

         #    Occupation            Energy/Eh            Energy/eV
      -------------------------------------------------------------
         1        2.0000           -0.9450798             -25.7169
       ...           ...                  ...                  ...
        18        2.0000           -0.6257557             -17.0277
        19        2.0000           -0.6137807             -16.7018
        20        2.0000           -0.6010320             -16.3549
        21        2.0000           -0.5946728             -16.1819
        22        2.0000           -0.5929225             -16.1342
        23        2.0000           -0.5806064             -15.7991
        24        2.0000           -0.5756779             -15.6650
        25        2.0000           -0.5665697             -15.4171
        26        2.0000           -0.5528043             -15.0426
        27        2.0000           -0.5397287             -14.6868
        28        2.0000           -0.5292650             -14.4020
        29        2.0000           -0.5250874             -14.2884
        30        2.0000           -0.5227613             -14.2251 (HOMO)
        31                         -0.3725533             -10.1377 (LUMO)
        32                         -0.3504391              -9.5359
        33                         -0.2566894              -6.9849
        34                         -0.1875203              -5.1027
        35                         -0.1751661              -4.7665
        36                         -0.1533093              -4.1718
        37                         -0.1237582              -3.3676
        38                         -0.1154460              -3.1414
        39                         -0.1041426              -2.8339
        40                         -0.0950984              -2.5878
        41                         -0.0891599              -2.4262
       ...                                ...                  ...
        62                          0.7349690              19.9995
      -------------------------------------------------------------
                  HL-Gap            0.1502080 Eh            4.0874 eV

Wiberg/Mayer (AO) data.
largest (>0.10) Wiberg bond orders for each atom

     #   Z sym  total        # sym  WBO       # sym  WBO       # sym  WBO
 ---------------------------------------------------------------------------
     1   6 C    3.837 --    12 H    0.984    13 H    0.977    14 H    0.977
                             2 O    0.865
     2   8 O    2.245 --     3 C    1.175     1 C    0.865     4 O    0.158
     3   6 C    3.878 --     4 O    1.692     2 O    1.175     5 C    0.946
     4   8 O    1.970 --     3 C    1.692     2 O    0.158
     5   6 C    3.854 --     6 N    1.619    11 O    1.063     3 C    0.946
     6   7 N    2.992 --     5 C    1.619     7 N    1.161
     7   7 N    3.630 --     9 C    1.414     6 N    1.161     8 C    0.907
     8   6 C    3.881 --    15 H    0.976    17 H    0.975    16 H    0.962
                             7 N    0.907
     9   6 C    3.839 --     7 N    1.414    11 O    1.157    10 C    1.042
    10   6 C    3.958 --     9 C    1.042    18 H    0.972    19 H    0.946
                            20 H    0.940
    11   8 O    2.389 --     9 C    1.157     5 C    1.063
    12   1 H    1.005 --     1 C    0.984
    13   1 H    1.000 --     1 C    0.977
    14   1 H    1.000 --     1 C    0.977
    15   1 H    0.989 --     8 C    0.976
    16   1 H    0.988 --     8 C    0.962
    17   1 H    0.991 --     8 C    0.975
    18   1 H    0.985 --    10 C    0.972
    19   1 H    0.985 --    10 C    0.946
    20   1 H    0.984 --    10 C    0.940
 ---------------------------------------------------------------------------

           -------------------------------------------------
          | TOTAL ENERGY              -37.645767866107 Eh   |
          | GRADIENT NORM               0.000481900410 Eh/α |
          | HOMO-LUMO GAP               4.087368582349 eV   |
           -------------------------------------------------

 * finished run on 2023/06/20 at 14:55:34.622
