   * xtb version 6.5.1 (579679a) compiled by 'ehlert@majestix' on 2022-07-11
          program call               : /lustre/hpc/kemi/ree/PhD/git/ReactivityQM/dep/xtb-6.5.1/bin/xtb --gfn 1 /lustre/hpc/kemi/ree/PhD/git/ReactivityQM/calculations/R01/reac02prodN03/conf02/R01_reac02prodN03_conf02_gfn1.xyz --opt --vfukui --chrg 1 --uhf 0 --alpb DMSO

   ID    Z sym.   atoms
    1    6 C      1, 3, 5, 7-10, 13, 15, 17
    2    8 O      2, 4, 14, 16
    3    7 N      6, 11, 12
    4    1 H      18-33

      * Solvation model:               ALPB
        Solvent                        DMSO
        Solvent mass                       7.8130E+01 g/mol
          :  Hamiltonian                  GFN1-xTB          :
 * total energy  :   -57.8048398 Eh     change       -0.3154810E-11 Eh
 * total energy  :   -57.8183804 Eh     change       -0.1354064E-01 Eh
 * total energy  :   -57.8243623 Eh     change       -0.5981945E-02 Eh
 * total energy  :   -57.8265000 Eh     change       -0.2137672E-02 Eh
 * total energy  :   -57.8292400 Eh     change       -0.2740019E-02 Eh
 * total energy  :   -57.8306857 Eh     change       -0.1445675E-02 Eh
 * total energy  :   -57.8330371 Eh     change       -0.2351417E-02 Eh
 * total energy  :   -57.8369509 Eh     change       -0.3913755E-02 Eh
 * total energy  :   -57.8405086 Eh     change       -0.3557758E-02 Eh
 * total energy  :   -57.8405140 Eh     change       -0.5372384E-05 Eh
 * total energy  :   -57.8506173 Eh     change       -0.9888874E-05 Eh
 * total energy  :   -57.8506310 Eh     change       -0.1368222E-04 Eh
 * total energy  :   -57.8506517 Eh     change       -0.2066465E-04 Eh
 * total energy  :   -57.8506773 Eh     change       -0.2556957E-04 Eh
 * total energy  :   -57.8506903 Eh     change       -0.1307325E-04 Eh
 * total energy  :   -57.8506976 Eh     change       -0.7271895E-05 Eh
 * total energy  :   -57.8507058 Eh     change       -0.8228360E-05 Eh
 * total energy  :   -57.8507131 Eh     change       -0.7242280E-05 Eh
 * total energy  :   -57.8507178 Eh     change       -0.4676078E-05 Eh
   *** GEOMETRY OPTIMIZATION CONVERGED AFTER 43 ITERATIONS ***

 final structure:
================
33
 xtb: 6.5.1 (579679a)
C           -2.31051266187728        3.49849819407374        1.20718007903695
O           -1.45238960395841        2.41681277500825        0.79804099628755
C           -1.95548488606987        1.26693002096649        0.53925363166764
O           -3.23406122841425        1.12677032877251        0.65312195180716
C           -1.05880542678916        0.20802161034419        0.13627266059820
N            0.26019855762381        0.57616525279420        0.06128318546644
C            1.13700335896578       -0.30042256119708       -0.30483904782244
C            2.60902303233852        0.06736709638187       -0.36306353393781
C            2.75160756694206        1.58083779631550       -0.55564377017921
C            3.25715096971791       -0.37670169721449        0.95639693724348
N            3.27455948217118       -0.61314989610714       -1.46188705902989
N            0.78024841534914       -1.57760910515901       -0.61842161466445
C           -0.49821641443241       -2.08179447386253       -0.57760957685034
O           -0.72973237501322       -3.23634415610554       -0.87816280159670
C           -1.49011191255325       -1.07945293824268       -0.14827296528055
O           -2.78195191282525       -1.36410613966123       -0.03038018829230
C           -3.32020836121362       -2.67894138364508       -0.28161071867480
H           -3.03955178468204        3.69956943046212        0.42181228380417
H           -2.82514720232753        3.22240946852877        2.12811046508757
H           -1.65858618477576        4.35448271314937        1.36451969714934
H            2.26051872037101        1.88728608239562       -1.47828152169678
H            2.29434384203891        2.11155989406303        0.27820782160824
H            3.80838241900565        1.83797888720954       -0.61324748461455
H            3.12097944338213       -1.44777575438708        1.09740185761911
H            4.32341965784821       -0.15599671310705        0.92751609086117
H            2.80280393237008        0.14965645093580        1.79457128505745
H            2.72874678237570       -0.53817316936347       -2.30788467141517
H            3.41787525253194       -1.58910685656186       -1.25086237857160
H            1.49273304282433       -2.22747210369637       -0.92434976865686
H           -3.56532271832138        0.22609338253580        0.44202462064048
H           -4.38407798323943       -2.59744710955084       -0.06809226234796
H           -2.85467101247975       -3.40922469347947        0.38091939103000
H           -3.16076280688393       -2.95672063259736       -1.32402259133292

          :  Hamiltonian                  GFN1-xTB          :
         :: total energy             -57.850717752244 Eh    ::
         :: gradient norm              0.000717346622 Eh/a0 ::
         :: HOMO-LUMO gap              1.203158940723 eV    ::
         :: SCC energy               -58.424505841838 Eh    ::
         :: -> Gsolv                  -0.096057092913 Eh    ::
         :: repulsion energy           0.592028678386 Eh    ::

    * Orbital Energies and Occupations

         #    Occupation            Energy/Eh            Energy/eV
      -------------------------------------------------------------
         1        2.0000           -0.9104646             -24.7750
       ...           ...                  ...                  ...
        35        2.0000           -0.5489715             -14.9383
        36        2.0000           -0.5422604             -14.7557
        37        2.0000           -0.5401270             -14.6976
        38        2.0000           -0.5235940             -14.2477
        39        2.0000           -0.5206266             -14.1670
        40        2.0000           -0.5148314             -14.0093
        41        2.0000           -0.5118267             -13.9275
        42        2.0000           -0.5062154             -13.7748
        43        2.0000           -0.4954215             -13.4811
        44        2.0000           -0.4826499             -13.1336
        45        2.0000           -0.4785187             -13.0212
        46        2.0000           -0.4575775             -12.4513
        47        2.0000           -0.4266761             -11.6104 (HOMO)
        48                         -0.3824608             -10.4073 (LUMO)
        49                         -0.3096632              -8.4264
        50                         -0.2880350              -7.8378
        51                         -0.1968400              -5.3563
        52                         -0.1656326              -4.5071
        53                         -0.1464002              -3.9838
        54                         -0.1406719              -3.8279
        55                         -0.1349356              -3.6718
        56                         -0.1325410              -3.6066
        57                         -0.1239890              -3.3739
        58                         -0.1014801              -2.7614
       ...                                ...                  ...
       100                          0.6866724              18.6853
      -------------------------------------------------------------
                  HL-Gap            0.0442153 Eh            1.2032 eV

Wiberg/Mayer (AO) data.
largest (>0.10) Wiberg bond orders for each atom

     #   Z sym  total        # sym  WBO       # sym  WBO       # sym  WBO
 ---------------------------------------------------------------------------
     1   6 C    3.822 --    20 H    0.982    18 H    0.972    19 H    0.972
                             2 O    0.853
     2   8 O    2.317 --     3 C    1.282     1 C    0.853
     3   6 C    3.811 --     2 O    1.282     4 O    1.249     5 C    1.122
     4   8 O    2.194 --     3 C    1.249    30 H    0.744
     5   6 C    3.960 --    15 C    1.409     6 N    1.171     3 C    1.122
     6   7 N    3.018 --     7 C    1.569     5 C    1.171
     7   6 C    3.906 --     6 N    1.569    12 N    1.174     8 C    0.970
     8   6 C    3.964 --     9 C    0.994    11 N    0.991    10 C    0.975
                             7 C    0.970
     9   6 C    3.993 --     8 C    0.994    22 H    0.985    23 H    0.985
                            21 H    0.985
    10   6 C    3.991 --    26 H    0.986    24 H    0.985    25 H    0.982
                             8 C    0.975
    11   7 N    2.960 --     8 C    0.991    27 H    0.939    28 H    0.937
    12   7 N    3.482 --     7 C    1.174    13 C    1.144    29 H    0.873
                            14 O    0.142
    13   6 C    3.915 --    14 O    1.609    12 N    1.144    15 C    1.038
    14   8 O    1.938 --    13 C    1.609    12 N    0.142
    15   6 C    3.905 --     5 C    1.409    16 O    1.135    13 C    1.038
    16   8 O    2.249 --    15 C    1.135    17 C    0.855
    17   6 C    3.829 --    31 H    0.983    32 H    0.975    33 H    0.974
                            16 O    0.855
    18   1 H    0.997 --     1 C    0.972
    19   1 H    0.997 --     1 C    0.972
    20   1 H    1.002 --     1 C    0.982
    21   1 H    1.003 --     9 C    0.985
    22   1 H    1.010 --     9 C    0.985
    23   1 H    1.005 --     9 C    0.985
    24   1 H    0.999 --    10 C    0.985
    25   1 H    1.000 --    10 C    0.982
    26   1 H    1.001 --    10 C    0.986
    27   1 H    0.952 --    11 N    0.939
    28   1 H    0.951 --    11 N    0.937
    29   1 H    0.921 --    12 N    0.873
    30   1 H    0.808 --     4 O    0.744
    31   1 H    1.005 --    17 C    0.983
    32   1 H    1.007 --    17 C    0.975
    33   1 H    1.007 --    17 C    0.974
 ---------------------------------------------------------------------------

           -------------------------------------------------
          | TOTAL ENERGY              -57.850717752244 Eh   |
          | GRADIENT NORM               0.000717346622 Eh/α |
          | HOMO-LUMO GAP               1.203158940723 eV   |
           -------------------------------------------------

 * finished run on 2023/06/20 at 15:05:03.102
