   * xtb version 6.5.1 (579679a) compiled by 'ehlert@majestix' on 2022-07-11
          program call               : /lustre/hpc/kemi/ree/PhD/git/ReactivityQM/dep/xtb-6.5.1/bin/xtb --gfn 1 /lustre/hpc/kemi/ree/PhD/git/ReactivityQM/calculations/R02methylcation/reac01prodN17/conf01/R02methylcation_reac01prodN17_conf01_gfn1.xyz --opt --vfukui --chrg 0 --uhf 0 --alpb DMSO

   ID    Z sym.   atoms
    1    6 C      1, 3, 5, 7-10, 12, 13, 15, 18, 19, 22, 24
    2    8 O      2, 4, 14, 20, 23, 25
    3    7 N      6, 11, 16, 17, 21
    4    1 H      26-42

      * Solvation model:               ALPB
        Solvent                        DMSO
        Solvent mass                       7.8130E+01 g/mol
          :  Hamiltonian                  GFN1-xTB          :
 * total energy  :   -82.9327523 Eh     change       -0.1152216E-09 Eh
 * total energy  :   -82.9448852 Eh     change       -0.1213287E-01 Eh
 * total energy  :   -82.9489424 Eh     change       -0.4057231E-02 Eh
 * total energy  :   -82.9498970 Eh     change       -0.9545854E-03 Eh
 * total energy  :   -82.9505973 Eh     change       -0.7002874E-03 Eh
 * total energy  :   -82.9510211 Eh     change       -0.4238357E-03 Eh
 * total energy  :   -82.9514031 Eh     change       -0.3820211E-03 Eh
 * total energy  :   -82.9517212 Eh     change       -0.3180774E-03 Eh
 * total energy  :   -82.9519726 Eh     change       -0.2514074E-03 Eh
 * total energy  :   -82.9521698 Eh     change       -0.1972064E-03 Eh
 * total energy  :   -82.9579776 Eh     change       -0.8684704E-05 Eh
 * total energy  :   -82.9579925 Eh     change       -0.1490260E-04 Eh
 * total energy  :   -82.9580056 Eh     change       -0.1305208E-04 Eh
 * total energy  :   -82.9580136 Eh     change       -0.7990496E-05 Eh
 * total energy  :   -82.9580216 Eh     change       -0.8008948E-05 Eh
 * total energy  :   -82.9580315 Eh     change       -0.9864498E-05 Eh
 * total energy  :   -82.9580400 Eh     change       -0.8510293E-05 Eh
 * total energy  :   -82.9580455 Eh     change       -0.5557544E-05 Eh
 * total energy  :   -82.9580498 Eh     change       -0.4283510E-05 Eh
   *** GEOMETRY OPTIMIZATION CONVERGED AFTER 106 ITERATIONS ***

 final structure:
================
42
 xtb: 6.5.1 (579679a)
C            4.89403809619685       -1.54422416689421        2.08807090361309
O            3.87097187129703       -0.82668301052089        1.40476458673908
C            4.01745093552627        0.52665508609536        1.37201261264244
O            4.96050062263257        1.06856097156477        1.91726345654000
C            2.93910152684158        1.17829529138189        0.63165501204452
N            2.00349234245420        0.32848571041347        0.10166330142366
C            0.99144278487167        0.77732483981982       -0.55618288238567
C           -0.00429341064759       -0.21382700105177       -1.09371674214272
C            0.72342521016124       -1.38190716284787       -1.75568060364506
C           -1.03908922663155        0.37323892447889       -2.04474721315685
N           -0.81957807434145       -0.80006149886871        0.09778682267659
C           -0.02827671432746       -1.64436398656592        1.03532429309375
C           -1.45641043401122        0.30732562931897        0.88033870276968
O           -0.76915840256549        0.99743620663816        1.57458789577692
C           -2.87816753307463        0.39181182543114        0.67472936518420
N           -3.72216493468394        1.22820183926551        1.22204979084518
N           -4.93815051242443        0.92946105814449        0.73715921846207
C           -4.79210394389213       -0.07446266290373       -0.08501613817651
C           -5.83572345811517       -0.75848791077863       -0.86975386495102
O           -3.51251352035236       -0.45968894067907       -0.16698952569706
N            0.81226306665733        2.12386423222731       -0.77788939860853
C            1.67602355447907        3.09303990214930       -0.31731719399505
O            1.45220181466559        4.26992280689805       -0.56676645660138
C            2.86182376330436        2.59362872763310        0.48277366591579
O            3.66314042516998        3.41757455242996        0.94074897432473
H            4.94358137433045       -1.23906925851464        3.13791882166122
H            5.86663571676278       -1.36800915557927        1.61791643520503
H            4.63640704118838       -2.59961232255571        2.02090538572359
H            1.12562067252385       -1.04012195133284       -2.70850208475807
H            1.55060048985665       -1.72038945516383       -1.13317844009151
H            0.03896005171784       -2.20619514722228       -1.94186580880399
H           -1.72398159059738       -0.40837165909967       -2.36829160044228
H           -1.62031625066031        1.16173191087169       -1.57077854161030
H           -0.53671695648166        0.77706548359979       -2.92226440927599
H           -1.55350103127524       -1.37682431018395       -0.31007455291439
H            0.89131107898932       -1.11874913943365        1.29420025945358
H           -0.63886253585104       -1.82013780048266        1.91704960248598
H            0.18875142396350       -2.58476303247881        0.54040238954070
H           -6.81020883521298       -0.33479787972128       -0.63858339068909
H           -5.62854208517537       -0.64564188682985       -1.93415519114532
H           -5.83006442838704       -1.82425862922483       -0.64242960747405
H            0.03008001514387        2.44702297056752       -1.31936884956476

          :  Hamiltonian                  GFN1-xTB          :
         :: total energy             -82.958049811196 Eh    ::
         :: gradient norm              0.000340877431 Eh/a0 ::
         :: HOMO-LUMO gap              0.354326585264 eV    ::
         :: SCC energy               -83.733181368360 Eh    ::
         :: -> Gsolv                  -0.116451093199 Eh    ::
         :: repulsion energy           0.803757890269 Eh    ::

    * Orbital Energies and Occupations

         #    Occupation            Energy/Eh            Energy/eV
      -------------------------------------------------------------
         1        2.0000           -0.8960066             -24.3816
       ...           ...                  ...                  ...
        55        2.0000           -0.5133931             -13.9701
        56        2.0000           -0.5099629             -13.8768
        57        2.0000           -0.5053326             -13.7508
        58        2.0000           -0.4967024             -13.5160
        59        2.0000           -0.4843783             -13.1806
        60        2.0000           -0.4797868             -13.0557
        61        2.0000           -0.4763333             -12.9617
        62        2.0000           -0.4751203             -12.9287
        63        2.0000           -0.4600186             -12.5177
        64        2.0000           -0.4527031             -12.3187
        65        2.0000           -0.4388066             -11.9405
        66        2.0000           -0.3958465             -10.7715
        67        1.9979           -0.3852363             -10.4828 (HOMO)
        68        0.0021           -0.3722150             -10.1285 (LUMO)
        69                         -0.2859368              -7.7807
        70                         -0.2836095              -7.7174
        71                         -0.2687964              -7.3143
        72                         -0.2462230              -6.7001
        73                         -0.2119905              -5.7686
        74                         -0.1585859              -4.3153
        75                         -0.1522760              -4.1436
        76                         -0.1461602              -3.9772
        77                         -0.1432463              -3.8979
        78                         -0.1346222              -3.6633
       ...                                ...                  ...
       134                          0.7613934              20.7186
      -------------------------------------------------------------
                  HL-Gap            0.0130213 Eh            0.3543 eV

Wiberg/Mayer (AO) data.
largest (>0.10) Wiberg bond orders for each atom

     #   Z sym  total        # sym  WBO       # sym  WBO       # sym  WBO
 ---------------------------------------------------------------------------
     1   6 C    3.890 --    28 H    0.987    26 H    0.980    27 H    0.980
                             2 O    0.917
     2   8 O    2.149 --     3 C    1.043     1 C    0.917     4 O    0.115
     3   6 C    3.849 --     4 O    1.615     5 C    1.088     2 O    1.043
     4   8 O    1.879 --     3 C    1.615     2 O    0.115
     5   6 C    3.903 --    24 C    1.236     6 N    1.198     3 C    1.088
                            25 O    0.113
     6   7 N    3.056 --     7 C    1.574     5 C    1.198
     7   6 C    3.933 --     6 N    1.574    21 N    1.107     8 C    0.997
     8   6 C    3.882 --    10 C    1.008     7 C    0.997     9 C    0.997
                            11 N    0.804
     9   6 C    3.984 --     8 C    0.997    31 H    0.982    30 H    0.977
                            29 H    0.975
    10   6 C    3.987 --     8 C    1.008    32 H    0.978    33 H    0.978
                            34 H    0.976
    11   7 N    3.596 --    12 C    0.896    35 H    0.886    13 C    0.877
                             8 C    0.804
    12   6 C    3.882 --    38 H    0.982    37 H    0.981    36 H    0.967
                            11 N    0.896
    13   6 C    3.876 --    14 O    1.747    15 C    1.092    11 N    0.877
    14   8 O    2.028 --    13 C    1.747
    15   6 C    3.877 --    16 N    1.530    13 C    1.092    20 O    1.030
    16   7 N    2.988 --    15 C    1.530    17 N    1.263
    17   7 N    2.988 --    18 C    1.544    16 N    1.263
    18   6 C    3.842 --    17 N    1.544    20 O    1.086    19 C    1.040
    19   6 C    3.979 --    18 C    1.040    39 H    0.980    41 H    0.956
                            40 H    0.953
    20   8 O    2.321 --    18 C    1.086    15 C    1.030
    21   7 N    3.426 --    22 C    1.144     7 C    1.107    42 H    0.892
                            23 O    0.134
    22   6 C    3.872 --    23 O    1.603    21 N    1.144    24 C    0.960
    23   8 O    1.878 --    22 C    1.603    21 N    0.134
    24   6 C    3.934 --    25 O    1.558     5 C    1.236    22 C    0.960
    25   8 O    1.839 --    24 C    1.558     5 C    0.113
    26   1 H    1.011 --     1 C    0.980
    27   1 H    1.011 --     1 C    0.980
    28   1 H    1.014 --     1 C    0.987
    29   1 H    0.997 --     9 C    0.975
    30   1 H    1.010 --     9 C    0.977
    31   1 H    0.994 --     9 C    0.982
    32   1 H    0.997 --    10 C    0.978
    33   1 H    0.998 --    10 C    0.978
    34   1 H    0.994 --    10 C    0.976
    35   1 H    0.935 --    11 N    0.886
    36   1 H    1.020 --    12 C    0.967
    37   1 H    0.993 --    12 C    0.981
    38   1 H    0.995 --    12 C    0.982
    39   1 H    0.995 --    19 C    0.980
    40   1 H    0.991 --    19 C    0.953
    41   1 H    0.991 --    19 C    0.956
    42   1 H    0.941 --    21 N    0.892
 ---------------------------------------------------------------------------

           -------------------------------------------------
          | TOTAL ENERGY              -82.958049811196 Eh   |
          | GRADIENT NORM               0.000340877431 Eh/α |
          | HOMO-LUMO GAP               0.354326585264 eV   |
           -------------------------------------------------

 * finished run on 2023/06/21 at 18:00:24.742
