   * xtb version 6.5.1 (579679a) compiled by 'ehlert@majestix' on 2022-07-11
          program call               : /lustre/hpc/kemi/ree/PhD/git/ReactivityQM/dep/xtb-6.5.1/bin/xtb --gfn 1 /lustre/hpc/kemi/ree/PhD/git/ReactivityQM/calculations/R02oxygendeprot/reac01prodE02/conf19/R02oxygendeprot_reac01prodE02_conf19_gfn1.xyz --opt --vfukui --chrg -2 --uhf 0 --alpb DMSO

   ID    Z sym.   atoms
    1    6 C      1, 3, 4, 6, 8-11, 13, 15, 18, 19, 22, 24
    2    8 O      2, 5, 14, 20, 23, 25
    3    7 N      7, 12, 16, 17, 21
    4    1 H      26-42

      * Solvation model:               ALPB
        Solvent                        DMSO
        Solvent mass                       7.8130E+01 g/mol
          :  Hamiltonian                  GFN1-xTB          :
 * total energy  :   -83.5918368 Eh     change       -0.5876615E-09 Eh
 * total energy  :   -83.6046680 Eh     change       -0.1283121E-01 Eh
 * total energy  :   -83.6101073 Eh     change       -0.5439264E-02 Eh
 * total energy  :   -83.6113049 Eh     change       -0.1197545E-02 Eh
 * total energy  :   -83.6121035 Eh     change       -0.7986146E-03 Eh
 * total energy  :   -83.6125477 Eh     change       -0.4442678E-03 Eh
 * total energy  :   -83.6128898 Eh     change       -0.3420267E-03 Eh
 * total energy  :   -83.6131222 Eh     change       -0.2324119E-03 Eh
 * total energy  :   -83.6132798 Eh     change       -0.1576585E-03 Eh
 * total energy  :   -83.6133855 Eh     change       -0.1056570E-03 Eh
 * total energy  :   -83.6149588 Eh     change       -0.1652474E-04 Eh
 * total energy  :   -83.6149726 Eh     change       -0.1379767E-04 Eh
 * total energy  :   -83.6149874 Eh     change       -0.1487604E-04 Eh
 * total energy  :   -83.6150050 Eh     change       -0.1760281E-04 Eh
 * total energy  :   -83.6150176 Eh     change       -0.1253391E-04 Eh
 * total energy  :   -83.6150270 Eh     change       -0.9369629E-05 Eh
 * total energy  :   -83.6150320 Eh     change       -0.5066226E-05 Eh
 * total energy  :   -83.6150373 Eh     change       -0.5260507E-05 Eh
 * total energy  :   -83.6150391 Eh     change       -0.1817253E-05 Eh
   *** GEOMETRY OPTIMIZATION CONVERGED AFTER 45 ITERATIONS ***

 final structure:
================
42
 xtb: 6.5.1 (579679a)
C           -4.54056330129922       -0.26834881362454       -1.25772792640612
O           -4.26771720109994        0.87699573875811       -0.51351624763658
C           -3.71414604540696        0.69636190934981        0.95008661749686
C           -4.87831448562479       -0.04017530597029        1.69729674271024
O           -3.43821639207476        1.85960999400494        1.44311221890225
C           -2.45137455738832       -0.23165166962856        0.77722920389129
N           -1.59661067674910        0.21677686575542       -0.18956237183506
C           -0.46249621193321       -0.35730652705892       -0.40536624413029
C            0.45641894811590        0.12425637797020       -1.50940699649007
C            0.62232952282796       -0.96580848747683       -2.57940262357295
C           -0.11852116269950        1.40599568924899       -2.12004226349081
N            1.77997800860691        0.39824212745093       -0.90744295028806
C            2.82383007964230        0.88600335613501       -1.59238495671413
O            2.81311965771042        1.24705127148462       -2.76224406308966
C            4.06512625457826        0.98502228899194       -0.77441182183564
N            5.19329740565110        1.52476872079870       -1.12420134985194
N            6.04155932678901        1.38680495914156       -0.06399809776151
C            5.37970163526605        0.77041085542419        0.86488827770884
C            5.86184022856758        0.37440823115952        2.20624958788142
O            4.12254348580089        0.49101272960661        0.48213342435205
N           -0.05850353971368       -1.44421218655165        0.34420537127582
C           -0.81670426404268       -1.97993981395599        1.36114462602525
O           -0.36777474731913       -2.96014518346158        1.98006386917067
C           -2.13020462691094       -1.31509076363632        1.61802726565946
O           -2.85652890795055       -1.77543278040865        2.55286306256623
H           -4.57142210159045        0.00475963432940       -2.32230719518828
H           -5.51726703054607       -0.72206075148613       -1.00907019977586
H           -3.76971925296528       -1.05112679947961       -1.14048682612864
H           -4.64705361236310       -0.06136523485475        2.76135491626568
H           -5.03381809639517       -1.05830131398940        1.34535435860582
H           -5.79193808662904        0.53804931874193        1.55275108042254
H           -0.35498054986212       -1.23834976608115       -2.97540064428524
H            1.08597643820995       -1.84930284930665       -2.14446383363532
H            1.24776662237488       -0.60845000774050       -3.39563714410646
H            0.47139802291964        1.72982257969334       -2.97420858318880
H           -0.13674790274527        2.19956607091540       -1.37301442330112
H           -1.13990765051703        1.21155810004187       -2.44741776570609
H            1.94108423830926        0.07873707875893        0.03547778664929
H            6.88681303290968        0.71148820972658        2.33805390969956
H            5.22991547615924        0.81409804505017        2.97791081638249
H            5.81993912729079       -0.70978271566777        2.31184064414840
H            0.81789489209030       -1.89494818218066        0.15236174862357

          :  Hamiltonian                  GFN1-xTB          :
         :: total energy             -83.615039096818 Eh    ::
         :: gradient norm              0.000399346914 Eh/a0 ::
         :: HOMO-LUMO gap              0.268501665976 eV    ::
         :: SCC energy               -84.352785998906 Eh    ::
         :: -> Gsolv                  -0.306578466758 Eh    ::
         :: repulsion energy           0.764076405632 Eh    ::

    * Orbital Energies and Occupations

         #    Occupation            Energy/Eh            Energy/eV
      -------------------------------------------------------------
         1        2.0000           -0.8564791             -23.3060
       ...           ...                  ...                  ...
        56        2.0000           -0.4416234             -12.0172
        57        2.0000           -0.4369590             -11.8903
        58        2.0000           -0.4302793             -11.7085
        59        2.0000           -0.4240952             -11.5402
        60        2.0000           -0.4163291             -11.3289
        61        2.0000           -0.4092514             -11.1363
        62        2.0000           -0.4011362             -10.9155
        63        2.0000           -0.3816954             -10.3865
        64        2.0000           -0.3786755             -10.3043
        65        2.0000           -0.3471189              -9.4456
        66        2.0000           -0.3312202              -9.0130
        67        2.0000           -0.3165674              -8.6142
        68        1.9890           -0.3077145              -8.3733 (HOMO)
        69        0.0110           -0.2978472              -8.1048 (LUMO)
        70                         -0.2493226              -6.7844
        71                         -0.2166296              -5.8948
        72                         -0.2006342              -5.4595
        73                         -0.1866659              -5.0794
        74                         -0.1383174              -3.7638
        75                         -0.1093967              -2.9768
        76                         -0.1035756              -2.8184
        77                         -0.0932732              -2.5381
        78                         -0.0892098              -2.4275
        79                         -0.0871560              -2.3716
       ...                                ...                  ...
       134                          0.7462428              20.3063
      -------------------------------------------------------------
                  HL-Gap            0.0098673 Eh            0.2685 eV

Wiberg/Mayer (AO) data.
largest (>0.10) Wiberg bond orders for each atom

     #   Z sym  total        # sym  WBO       # sym  WBO       # sym  WBO
 ---------------------------------------------------------------------------
     1   6 C    3.954 --     2 O    1.004    26 H    0.980    27 H    0.977
                            28 H    0.972
     2   8 O    1.907 --     1 C    1.004     3 C    0.712
     3   6 C    3.882 --     5 O    1.265     4 C    0.943     6 C    0.908
                             2 O    0.712
     4   6 C    3.988 --    31 H    0.988    30 H    0.988    29 H    0.984
                             3 C    0.943
     5   8 O    1.512 --     3 C    1.265
     6   6 C    3.920 --    24 C    1.340     7 N    1.238     3 C    0.908
                            25 O    0.136
     7   7 N    3.037 --     8 C    1.561     6 C    1.238
     8   6 C    3.923 --     7 N    1.561    21 N    1.092     9 C    0.978
     9   6 C    3.923 --    11 C    0.997    10 C    0.983     8 C    0.978
                            12 N    0.899
    10   6 C    3.991 --    32 H    0.986    33 H    0.985     9 C    0.983
                            34 H    0.983
    11   6 C    3.993 --     9 C    0.997    36 H    0.985    35 H    0.984
                            37 H    0.983
    12   7 N    3.367 --    13 C    1.291     9 C    0.899    38 H    0.898
                            14 O    0.183
    13   6 C    3.918 --    14 O    1.562    12 N    1.291    15 C    0.986
    14   8 O    1.880 --    13 C    1.562    12 N    0.183
    15   6 C    3.863 --    16 N    1.622    20 O    1.047    13 C    0.986
    16   7 N    2.989 --    15 C    1.622    17 N    1.193
    17   7 N    2.980 --    18 C    1.616    16 N    1.193
    18   6 C    3.870 --    17 N    1.616    20 O    1.072    19 C    1.031
    19   6 C    3.988 --    18 C    1.031    39 H    0.983    40 H    0.965
                            41 H    0.963
    20   8 O    2.313 --    18 C    1.072    15 C    1.047
    21   7 N    3.414 --    22 C    1.142     8 C    1.092    42 H    0.907
                            23 O    0.127
    22   6 C    3.879 --    23 O    1.505    21 N    1.142    24 C    1.023
    23   8 O    1.797 --    22 C    1.505    21 N    0.127
    24   6 C    3.955 --    25 O    1.399     6 C    1.340    22 C    1.023
    25   8 O    1.741 --    24 C    1.399     6 C    0.136
    26   1 H    1.027 --     1 C    0.980
    27   1 H    1.022 --     1 C    0.977
    28   1 H    1.028 --     1 C    0.972
    29   1 H    1.039 --     4 C    0.984
    30   1 H    1.021 --     4 C    0.988
    31   1 H    1.022 --     4 C    0.988
    32   1 H    1.006 --    10 C    0.986
    33   1 H    1.005 --    10 C    0.985
    34   1 H    1.009 --    10 C    0.983
    35   1 H    1.015 --    11 C    0.984
    36   1 H    1.012 --    11 C    0.985
    37   1 H    1.020 --    11 C    0.983
    38   1 H    0.948 --    12 N    0.898
    39   1 H    0.999 --    19 C    0.983
    40   1 H    0.997 --    19 C    0.965
    41   1 H    0.997 --    19 C    0.963
    42   1 H    0.957 --    21 N    0.907
 ---------------------------------------------------------------------------

           -------------------------------------------------
          | TOTAL ENERGY              -83.615039096818 Eh   |
          | GRADIENT NORM               0.000399346914 Eh/α |
          | HOMO-LUMO GAP               0.268501665976 eV   |
           -------------------------------------------------

 * finished run on 2023/06/21 at 17:02:26.192
