   * xtb version 6.5.1 (579679a) compiled by 'ehlert@majestix' on 2022-07-11
          program call               : /lustre/hpc/kemi/ree/PhD/git/ReactivityQM/dep/xtb-6.5.1/bin/xtb --gfn 1 /lustre/hpc/kemi/ree/PhD/git/ReactivityQM/calculations/RaltegravirCLI/reac02prodN10/conf13/RaltegravirCLI_reac02prodN10_conf13_gfn1.xyz --opt --vfukui --chrg 1 --uhf 0 --alpb DMSO

   ID    Z sym.   atoms
    1    6 C      1-5, 7, 9, 11-14, 17, 18, 20, 22-24
    2    7 N      6, 10, 15, 16
    3    8 O      8, 19, 21
    4    9 F      25
    5    1 H      26-47

      * Solvation model:               ALPB
        Solvent                        DMSO
        Solvent mass                       7.8130E+01 g/mol
          :  Hamiltonian                  GFN1-xTB          :
 * total energy  :   -79.4683519 Eh     change       -0.2842171E-12 Eh
 * total energy  :   -79.4771698 Eh     change       -0.8817827E-02 Eh
 * total energy  :   -79.4792657 Eh     change       -0.2095944E-02 Eh
 * total energy  :   -79.4796318 Eh     change       -0.3661497E-03 Eh
 * total energy  :   -79.4799881 Eh     change       -0.3562621E-03 Eh
 * total energy  :   -79.4801718 Eh     change       -0.1837288E-03 Eh
 * total energy  :   -79.4803655 Eh     change       -0.1936461E-03 Eh
 * total energy  :   -79.4805505 Eh     change       -0.1850479E-03 Eh
 * total energy  :   -79.4807184 Eh     change       -0.1678886E-03 Eh
 * total energy  :   -79.4809241 Eh     change       -0.2057035E-03 Eh
 * total energy  :   -79.4848592 Eh     change       -0.2436133E-04 Eh
 * total energy  :   -79.4848784 Eh     change       -0.1916267E-04 Eh
 * total energy  :   -79.4848893 Eh     change       -0.1096202E-04 Eh
 * total energy  :   -79.4849085 Eh     change       -0.1921138E-04 Eh
 * total energy  :   -79.4849200 Eh     change       -0.1141083E-04 Eh
 * total energy  :   -79.4849278 Eh     change       -0.7806156E-05 Eh
 * total energy  :   -79.4849332 Eh     change       -0.5402160E-05 Eh
 * total energy  :   -79.4849401 Eh     change       -0.6960573E-05 Eh
 * total energy  :   -79.4849436 Eh     change       -0.3434963E-05 Eh
   *** GEOMETRY OPTIMIZATION CONVERGED AFTER 72 ITERATIONS ***

 final structure:
================
47
 xtb: 6.5.1 (579679a)
C            6.83235498552421       -0.05541227441252        1.52682293490008
C            5.99108819178605       -0.21136445385576        0.23258989225825
C            4.84276909722707       -1.12453147499823        0.38409526264263
C            3.58340744318068       -0.80979243019497       -0.05172872690675
C            2.45706511177430       -1.81026967316121        0.12042685054348
N            1.21445470198190       -1.33025115080076       -0.43641886963148
C            0.23859592625816       -0.83888182008598        0.36926974438733
O            0.30563909677953       -0.88339870450148        1.58582440846111
C           -0.92596309059953       -0.24492418359579       -0.36377917453718
N           -2.12733504881185       -0.31302845764802        0.27539563306895
C           -3.20083341137565        0.19759889393892       -0.24647345122167
C           -4.48641290050423       -0.01599533785727        0.54350612628125
C           -5.22210805892572       -1.23356392473006       -0.03622547536245
C           -4.13487894816091       -0.28998793920077        2.01664800477748
N           -5.34480908873641        1.15613300105162        0.46348768325207
N           -3.18544314027616        0.83510166199711       -1.46045413534986
C           -4.37571350331806        1.42613623042838       -2.07969237271655
C           -2.00611214425157        1.00055885949721       -2.16673986890399
O           -1.94502360659520        1.59914764617239       -3.23769936415897
C           -0.83579165527529        0.40131841479253       -1.55977269823580
O            0.32160670958516        0.55544965559183       -2.24421406339248
C            3.35211369887281        0.44996250495337       -0.64453959574825
C            4.36946170638406        1.38683738022753       -0.81192608032734
C            5.62976336752681        1.07547265089722       -0.37588303732435
F            6.60074389127970        1.94207555715921       -0.50884115991963
H            7.70143075722514        0.56434938415865        1.31690963506221
H            6.22642877735344        0.41327571231105        2.29938862371725
H            7.15734749739077       -1.03667055279240        1.86397037632946
H            6.67730271058188       -0.70352486904096       -0.48227930933511
H            5.04605544860302       -2.08114566994906        0.85205243237729
H            2.30050704876975       -1.99890926242817        1.18847848815286
H            2.73395932235459       -2.75067445942914       -0.36317728964827
H            1.14395003953681       -1.27220867813464       -1.43719945859028
H           -5.53619480269152       -1.05043307432453       -1.06212738213541
H           -6.10475382871647       -1.44638170759170        0.56517045738380
H           -4.56577971015654       -2.10289452774208       -0.02041840989454
H           -3.57042213768069        0.54509319044813        2.42857156238303
H           -3.53517782137373       -1.19539217699886        2.09945435387276
H           -5.05295215179946       -0.41490696679462        2.58778010841981
H           -4.96229741868283        1.91434024726018        1.01133018264606
H           -6.26811445664487        0.93852221050263        0.80894357885968
H           -5.22805087462019        0.76498366804183       -1.96301467219106
H           -4.16628603099065        1.57453006647292       -3.13875957979183
H           -4.59263346263219        2.38455211683690       -1.61043958455209
H            0.12536767157706        1.04055255744778       -3.06919221355133
H            2.35089158972087        0.69857461700908       -0.98242718493835
H            4.17078550154797        2.34997854308042       -1.26586218141138

          :  Hamiltonian                  GFN1-xTB          :
         :: total energy             -79.484943559566 Eh    ::
         :: gradient norm              0.000597699905 Eh/a0 ::
         :: HOMO-LUMO gap              0.165175536093 eV    ::
         :: SCC energy               -80.367738949523 Eh    ::
         :: -> Gsolv                  -0.106950602256 Eh    ::
         :: repulsion energy           0.912624985085 Eh    ::

    * Orbital Energies and Occupations

         #    Occupation            Energy/Eh            Energy/eV
      -------------------------------------------------------------
         1        2.0000           -0.9435191             -25.6745
       ...           ...                  ...                  ...
        55        2.0000           -0.5197059             -14.1419
        56        2.0000           -0.5155775             -14.0296
        57        2.0000           -0.5088959             -13.8478
        58        2.0000           -0.5008508             -13.6288
        59        2.0000           -0.4995014             -13.5921
        60        2.0000           -0.4928506             -13.4111
        61        2.0000           -0.4782364             -13.0135
        62        2.0000           -0.4731540             -12.8752
        63        2.0000           -0.4605212             -12.5314
        64        2.0000           -0.4565387             -12.4231
        65        2.0000           -0.4434741             -12.0675
        66        2.0000           -0.4292817             -11.6814
        67        1.9213           -0.4219858             -11.4828 (HOMO)
        68        0.0788           -0.4159157             -11.3176 (LUMO)
        69                         -0.3266504              -8.8886
        70                         -0.3181629              -8.6577
        71                         -0.2822541              -7.6805
        72                         -0.2456860              -6.6855
        73                         -0.2422659              -6.5924
        74                         -0.1629799              -4.4349
        75                         -0.1585885              -4.3154
        76                         -0.1507426              -4.1019
        77                         -0.1503390              -4.0909
        78                         -0.1361426              -3.7046
       ...                                ...                  ...
       144                          0.7077827              19.2597
      -------------------------------------------------------------
                  HL-Gap            0.0060701 Eh            0.1652 eV

Wiberg/Mayer (AO) data.
largest (>0.10) Wiberg bond orders for each atom

     #   Z sym  total        # sym  WBO       # sym  WBO       # sym  WBO
 ---------------------------------------------------------------------------
     1   6 C    3.958 --    27 H    0.984    28 H    0.983    26 H    0.982
                             2 C    0.915
     2   6 C    3.985 --     3 C    1.081    24 C    1.066     1 C    0.915
                            29 H    0.842
     3   6 C    3.924 --     4 C    1.566     2 C    1.081    30 H    0.964
     4   6 C    3.981 --     3 C    1.566    22 C    1.303     5 C    0.995
     5   6 C    3.952 --     4 C    0.995     6 N    0.969    32 H    0.960
                            31 H    0.952
     6   7 N    3.325 --     7 C    1.227     5 C    0.969    33 H    0.890
                             8 O    0.165
     7   6 C    3.899 --     8 O    1.608     6 N    1.227     9 C    0.984
     8   8 O    1.899 --     7 C    1.608     6 N    0.165
     9   6 C    3.966 --    20 C    1.511    10 N    1.205     7 C    0.984
    10   7 N    3.027 --    11 C    1.552     9 C    1.205
    11   6 C    3.920 --    10 N    1.552    16 N    1.182    12 C    0.975
    12   6 C    3.957 --    15 N    0.984    14 C    0.982    13 C    0.980
                            11 C    0.975
    13   6 C    3.992 --    36 H    0.985    35 H    0.982    12 C    0.980
                            34 H    0.979
    14   6 C    3.980 --    39 H    0.986    37 H    0.985    12 C    0.982
                            38 H    0.981
    15   7 N    2.948 --    12 C    0.984    40 H    0.934    41 H    0.931
    16   7 N    3.517 --    11 C    1.182    18 C    1.130    17 C    0.925
                            19 O    0.132
    17   6 C    3.917 --    42 H    0.977    43 H    0.975    44 H    0.975
                            16 N    0.925
    18   6 C    3.917 --    19 O    1.544    16 N    1.130    20 C    1.094
    19   8 O    1.892 --    18 C    1.544    16 N    0.132
    20   6 C    3.913 --     9 C    1.511    18 C    1.094    21 O    1.061
    21   8 O    2.058 --    20 C    1.061    45 H    0.799
    22   6 C    3.897 --    23 C    1.399     4 C    1.303    46 H    0.956
    23   6 C    3.981 --    24 C    1.472    22 C    1.399    47 H    0.956
    24   6 C    3.808 --    23 C    1.472     2 C    1.066    25 F    1.027
    25   9 F    1.189 --    24 C    1.027
    26   1 H    0.996 --     1 C    0.982
    27   1 H    0.994 --     1 C    0.984
    28   1 H    0.993 --     1 C    0.983
    29   1 H    0.970 --     2 C    0.842
    30   1 H    0.988 --     3 C    0.964
    31   1 H    1.006 --     5 C    0.952
    32   1 H    0.998 --     5 C    0.960
    33   1 H    0.937 --     6 N    0.890
    34   1 H    1.003 --    13 C    0.979
    35   1 H    0.999 --    13 C    0.982
    36   1 H    1.003 --    13 C    0.985
    37   1 H    1.006 --    14 C    0.985
    38   1 H    1.012 --    14 C    0.981
    39   1 H    1.002 --    14 C    0.986
    40   1 H    0.950 --    15 N    0.934
    41   1 H    0.946 --    15 N    0.931
    42   1 H    1.019 --    17 C    0.977
    43   1 H    1.007 --    17 C    0.975
    44   1 H    1.014 --    17 C    0.975
    45   1 H    0.842 --    21 O    0.799
    46   1 H    1.010 --    22 C    0.956
    47   1 H    0.985 --    23 C    0.956
 ---------------------------------------------------------------------------

           -------------------------------------------------
          | TOTAL ENERGY              -79.484943559566 Eh   |
          | GRADIENT NORM               0.000597699905 Eh/α |
          | HOMO-LUMO GAP               0.165175536093 eV   |
           -------------------------------------------------

 * finished run on 2023/06/20 at 15:30:02.969
