   * xtb version 6.5.1 (579679a) compiled by 'ehlert@majestix' on 2022-07-11
          program call               : /lustre/hpc/kemi/ree/PhD/git/ReactivityQM/dep/xtb-6.5.1/bin/xtb --gfn 1 /lustre/hpc/kemi/ree/PhD/git/ReactivityQM/calculations/R03/reac01prodN06/conf13/R03_reac01prodN06_conf13_gfn1.xyz --opt --vfukui --chrg 1 --uhf 0 --alpb DMSO

   ID    Z sym.   atoms
    1    6 C      1, 3-7, 9, 10
    2    9 F      2
    3    7 N      8
    4    1 H      11-21

      * Solvation model:               ALPB
        Solvent                        DMSO
        Solvent mass                       7.8130E+01 g/mol
          :  Hamiltonian                  GFN1-xTB          :
 * total energy  :   -30.7182896 Eh     change       -0.4042988E-11 Eh
 * total energy  :   -30.7297038 Eh     change       -0.1141422E-01 Eh
 * total energy  :   -30.7330472 Eh     change       -0.3343388E-02 Eh
 * total energy  :   -30.7334711 Eh     change       -0.4239412E-03 Eh
 * total energy  :   -30.7336936 Eh     change       -0.2224894E-03 Eh
 * total energy  :   -30.7338322 Eh     change       -0.1385732E-03 Eh
 * total energy  :   -30.7339606 Eh     change       -0.1284642E-03 Eh
 * total energy  :   -30.7340891 Eh     change       -0.1284330E-03 Eh
 * total energy  :   -30.7342070 Eh     change       -0.1179781E-03 Eh
 * total energy  :   -30.7343323 Eh     change       -0.1252520E-03 Eh
 * total energy  :   -30.7347279 Eh     change       -0.1429257E-04 Eh
 * total energy  :   -30.7347446 Eh     change       -0.1662903E-04 Eh
 * total energy  :   -30.7347552 Eh     change       -0.1067867E-04 Eh
 * total energy  :   -30.7347743 Eh     change       -0.1911566E-04 Eh
 * total energy  :   -30.7347885 Eh     change       -0.1419679E-04 Eh
 * total energy  :   -30.7348014 Eh     change       -0.1288734E-04 Eh
 * total energy  :   -30.7348156 Eh     change       -0.1413252E-04 Eh
 * total energy  :   -30.7348223 Eh     change       -0.6693940E-05 Eh
 * total energy  :   -30.7348249 Eh     change       -0.2657586E-05 Eh
   *** GEOMETRY OPTIMIZATION CONVERGED AFTER 34 ITERATIONS ***

 final structure:
================
21
 xtb: 6.5.1 (579679a)
C            3.82085820881299        0.08809967299589       -0.55441670851466
F            2.85344930253136       -0.62065066446923        0.24249701193419
C            1.40673419249290       -0.36695854404844        0.31929151425120
C            0.60426611887027       -1.21051465469607       -0.40508480377227
C           -0.76147525447797       -0.97753810692269       -0.30354877297953
C           -1.25603014658467        0.06189591170967        0.48459226417795
C           -2.74212342477330        0.28996963186123        0.58033498049429
N           -3.41516158932471       -0.19423047885232       -0.61994862048570
C           -0.37198373151262        0.87727204124945        1.19156986693651
C            1.00080466266356        0.67194838976987        1.11629029389293
H            3.42610525049666        0.10124585499542       -1.56600429449494
H            4.72338095165896       -0.50660688611728       -0.45326140794059
H            3.90501515053708        1.07756909456928       -0.11554067316179
H            1.01120362988769       -2.00571332464855       -1.01351271266763
H           -1.45589557076888       -1.60323098747175       -0.85316637337924
H           -3.12116010772206       -0.27625083674275        1.43893973857183
H           -2.94558366738304        1.35427523091036        0.76365916572548
H           -4.41182867115142       -0.18796806708319       -0.45328341021990
H           -3.22710926296308        0.44580149730162       -1.37932329567213
H           -0.74751916174083        1.68729428518295        1.80484173963393
H            1.70405212045063        1.29429094050702        1.65035149767020

          :  Hamiltonian                  GFN1-xTB          :
         :: total energy             -30.734824914721 Eh    ::
         :: gradient norm              0.000621009103 Eh/a0 ::
         :: HOMO-LUMO gap              2.893479320983 eV    ::
         :: SCC energy               -31.143909166763 Eh    ::
         :: -> Gsolv                  -0.082786722692 Eh    ::
         :: repulsion energy           0.418489909019 Eh    ::

    * Orbital Energies and Occupations

         #    Occupation            Energy/Eh            Energy/eV
      -------------------------------------------------------------
         1        2.0000           -1.0071977             -27.4072
       ...           ...                  ...                  ...
        15        2.0000           -0.5900668             -16.0565
        16        2.0000           -0.5832422             -15.8708
        17        2.0000           -0.5774609             -15.7135
        18        2.0000           -0.5728361             -15.5877
        19        2.0000           -0.5700945             -15.5131
        20        2.0000           -0.5578510             -15.1799
        21        2.0000           -0.5380760             -14.6418
        22        2.0000           -0.5263960             -14.3240
        23        2.0000           -0.5103642             -13.8877
        24        2.0000           -0.5032737             -13.6948
        25        2.0000           -0.4875176             -13.2660
        26        2.0000           -0.4760665             -12.9544
        27        2.0000           -0.4172235             -11.3532 (HOMO)
        28                         -0.3108901              -8.4598 (LUMO)
        29                         -0.3094292              -8.4200
        30                         -0.2576548              -7.0111
        31                         -0.1879635              -5.1147
        32                         -0.1813508              -4.9348
        33                         -0.1437827              -3.9125
        34                         -0.1412017              -3.8423
        35                         -0.1306075              -3.5540
        36                         -0.1292335              -3.5166
        37                         -0.1207842              -3.2867
        38                         -0.1146414              -3.1196
       ...                                ...                  ...
        62                          0.6148883              16.7320
      -------------------------------------------------------------
                  HL-Gap            0.1063334 Eh            2.8935 eV

Wiberg/Mayer (AO) data.
largest (>0.10) Wiberg bond orders for each atom

     #   Z sym  total        # sym  WBO       # sym  WBO       # sym  WBO
 ---------------------------------------------------------------------------
     1   6 C    3.679 --    11 H    0.980    13 H    0.980    12 H    0.974
                             2 F    0.719
     2   9 F    1.437 --     1 C    0.719     3 C    0.631
     3   6 C    3.685 --    10 C    1.431     4 C    1.430     2 F    0.631
     4   6 C    3.984 --     3 C    1.430     5 C    1.427    14 H    0.962
                             9 C    0.108
     5   6 C    3.986 --     4 C    1.427     6 C    1.409    15 H    0.963
                            10 C    0.109
     6   6 C    3.980 --     9 C    1.411     5 C    1.409     7 C    1.011
     7   6 C    3.980 --     6 C    1.011     8 N    1.001    17 H    0.967
                            16 H    0.956
     8   7 N    2.951 --     7 C    1.001    19 H    0.945    18 H    0.938
     9   6 C    3.988 --    10 C    1.427     6 C    1.411    20 H    0.966
                             4 C    0.108
    10   6 C    3.985 --     3 C    1.431     9 C    1.427    21 H    0.962
                             5 C    0.109
    11   1 H    0.993 --     1 C    0.980
    12   1 H    0.992 --     1 C    0.974
    13   1 H    0.993 --     1 C    0.980
    14   1 H    0.991 --     4 C    0.962
    15   1 H    1.012 --     5 C    0.963
    16   1 H    1.007 --     7 C    0.956
    17   1 H    1.000 --     7 C    0.967
    18   1 H    0.952 --     8 N    0.938
    19   1 H    0.956 --     8 N    0.945
    20   1 H    0.995 --     9 C    0.966
    21   1 H    0.990 --    10 C    0.962
 ---------------------------------------------------------------------------

           -------------------------------------------------
          | TOTAL ENERGY              -30.734824914721 Eh   |
          | GRADIENT NORM               0.000621009103 Eh/α |
          | HOMO-LUMO GAP               2.893479320983 eV   |
           -------------------------------------------------

 * finished run on 2023/06/20 at 15:14:59.615
