   * xtb version 6.5.1 (579679a) compiled by 'ehlert@majestix' on 2022-07-11
          program call               : /lustre/hpc/kemi/ree/PhD/git/ReactivityQM/dep/xtb-6.5.1/bin/xtb --gfn 1 /lustre/hpc/kemi/ree/PhD/git/ReactivityQM/calculations/R01/reac02prodN09/conf11/R01_reac02prodN09_conf11_gfn1.xyz --opt --vfukui --chrg 1 --uhf 0 --alpb DMSO

   ID    Z sym.   atoms
    1    6 C      1, 3, 5, 7-10, 13, 15, 16
    2    8 O      2, 4, 14, 17
    3    7 N      6, 11, 12
    4    1 H      18-33

      * Solvation model:               ALPB
        Solvent                        DMSO
        Solvent mass                       7.8130E+01 g/mol
          :  Hamiltonian                  GFN1-xTB          :
 * total energy  :   -57.7947442 Eh     change       -0.1989520E-12 Eh
 * total energy  :   -57.8063929 Eh     change       -0.1164867E-01 Eh
 * total energy  :   -57.8117867 Eh     change       -0.5393781E-02 Eh
 * total energy  :   -57.8130526 Eh     change       -0.1265926E-02 Eh
 * total energy  :   -57.8140490 Eh     change       -0.9964022E-03 Eh
 * total energy  :   -57.8146398 Eh     change       -0.5908285E-03 Eh
 * total energy  :   -57.8152709 Eh     change       -0.6310044E-03 Eh
 * total energy  :   -57.8158072 Eh     change       -0.5363868E-03 Eh
 * total energy  :   -57.8161654 Eh     change       -0.3581335E-03 Eh
 * total energy  :   -57.8163996 Eh     change       -0.2342206E-03 Eh
 * total energy  :   -57.8186307 Eh     change       -0.2352965E-04 Eh
 * total energy  :   -57.8186496 Eh     change       -0.1893545E-04 Eh
 * total energy  :   -57.8186715 Eh     change       -0.2191785E-04 Eh
 * total energy  :   -57.8186985 Eh     change       -0.2696412E-04 Eh
 * total energy  :   -57.8187311 Eh     change       -0.3255936E-04 Eh
 * total energy  :   -57.8187566 Eh     change       -0.2550445E-04 Eh
 * total energy  :   -57.8187711 Eh     change       -0.1457462E-04 Eh
 * total energy  :   -57.8187821 Eh     change       -0.1094916E-04 Eh
 * total energy  :   -57.8187867 Eh     change       -0.4644536E-05 Eh
   *** GEOMETRY OPTIMIZATION CONVERGED AFTER 44 ITERATIONS ***

 final structure:
================
33
 xtb: 6.5.1 (579679a)
C            3.52371785579243       -2.09982150514568        1.57431454775875
O            2.33257813497019       -1.36921212432037        1.22926052618513
C            2.48828865407163       -0.24397912194236        0.58287982935494
O            3.54085361064298        0.24668475391701        0.25562900439482
C            1.16624364510772        0.41743488457062        0.24062933780972
N            0.09783469819840       -0.30613683097786        0.26739325480247
C           -1.09810124978175        0.26091085675658       -0.04141560209402
C           -2.32007550901313       -0.58928697561969       -0.03998399288332
C           -2.06170710076616       -1.83294987172198       -0.91429046114601
C           -2.58609168658795       -1.01475511745425        1.41590291350406
N           -3.42232891452687        0.21005730626940       -0.53300598529785
N           -1.21559700937164        1.54537514785594       -0.29166935509161
C           -0.15486094280530        2.49316223343067       -0.21948311355859
O           -0.39127067136674        3.65911770069052       -0.19345708853173
C            1.20493914695208        1.82510452294910       -0.28907752242166
C            1.48772098562862        1.65531022571768       -1.81978740485180
O            2.14962191694520        2.64566903704494        0.30074380385312
H            3.18861912851720       -3.01580051268673        2.05470403639341
H            4.13309247982992       -1.50300581761285        2.25500675850919
H            4.09066090244295       -2.31857974402129        0.66814641115202
H           -1.20380867624501       -2.38402486515408       -0.53270981563304
H           -2.94454435605344       -2.46760530642519       -0.88734336021978
H           -1.86771015458765       -1.53159467259890       -1.94149436736247
H           -2.80926152893868       -0.13964546444587        2.02338228637366
H           -1.71472207183875       -1.52603997402229        1.82172353809612
H           -3.43914473317199       -1.69018138374166        1.43020027681969
H           -3.42512458389240        0.21554710339004       -1.54307287674175
H           -4.30289826255550       -0.17239189094901       -0.21861559256663
H           -2.17186324211784        1.89099489890769       -0.39964720493224
H            2.45812895584382        1.17888851982004       -1.93912016274788
H            1.51053467807704        2.64977039547062       -2.26162505829297
H            0.71680343320005        1.05284114857993       -2.29176793159553
H            3.03947346739503        2.25814044347213        0.23765037095988

          :  Hamiltonian                  GFN1-xTB          :
         :: total energy             -57.818786739254 Eh    ::
         :: gradient norm              0.000398935760 Eh/a0 ::
         :: HOMO-LUMO gap              0.704486143594 eV    ::
         :: SCC energy               -58.390978606844 Eh    ::
         :: -> Gsolv                  -0.099392359398 Eh    ::
         :: repulsion energy           0.591395770851 Eh    ::

    * Orbital Energies and Occupations

         #    Occupation            Energy/Eh            Energy/eV
      -------------------------------------------------------------
         1        2.0000           -0.8939208             -24.3248
       ...           ...                  ...                  ...
        35        2.0000           -0.5492985             -14.9472
        36        2.0000           -0.5473236             -14.8934
        37        2.0000           -0.5438756             -14.7996
        38        2.0000           -0.5399733             -14.6934
        39        2.0000           -0.5394180             -14.6783
        40        2.0000           -0.5346695             -14.5491
        41        2.0000           -0.5330676             -14.5055
        42        2.0000           -0.5269295             -14.3385
        43        2.0000           -0.5241268             -14.2622
        44        2.0000           -0.5197446             -14.1430
        45        2.0000           -0.5043893             -13.7251
        46        2.0000           -0.4904621             -13.3462
        47        2.0000           -0.4517583             -12.2930 (HOMO)
        48        0.0000           -0.4258689             -11.5885 (LUMO)
        49                         -0.3512893              -9.5591
        50                         -0.3055332              -8.3140
        51                         -0.2645414              -7.1985
        52                         -0.1534012              -4.1743
        53                         -0.1528087              -4.1581
        54                         -0.1484572              -4.0397
        55                         -0.1444791              -3.9315
        56                         -0.1357521              -3.6940
        57                         -0.1183335              -3.2200
        58                         -0.1087666              -2.9597
       ...                                ...                  ...
       100                          0.7090328              19.2938
      -------------------------------------------------------------
                  HL-Gap            0.0258894 Eh            0.7045 eV

Wiberg/Mayer (AO) data.
largest (>0.10) Wiberg bond orders for each atom

     #   Z sym  total        # sym  WBO       # sym  WBO       # sym  WBO
 ---------------------------------------------------------------------------
     1   6 C    3.838 --    18 H    0.984    20 H    0.976    19 H    0.975
                             2 O    0.867
     2   8 O    2.255 --     3 C    1.186     1 C    0.867     4 O    0.156
     3   6 C    3.863 --     4 O    1.664     2 O    1.186     5 C    0.945
     4   8 O    1.976 --     3 C    1.664     2 O    0.156
     5   6 C    3.909 --     6 N    1.647    15 C    0.993     3 C    0.945
     6   7 N    3.053 --     5 C    1.647     7 C    1.190
     7   6 C    3.868 --    12 N    1.429     6 N    1.190     8 C    1.022
     8   6 C    3.957 --     7 C    1.022    11 N    1.003    10 C    0.939
                             9 C    0.939
     9   6 C    3.979 --    23 H    0.984    21 H    0.982    22 H    0.978
                             8 C    0.939
    10   6 C    3.977 --    24 H    0.984    25 H    0.983    26 H    0.975
                             8 C    0.939
    11   7 N    2.999 --     8 C    1.003    27 H    0.926    28 H    0.923
    12   7 N    3.527 --     7 C    1.429    13 C    0.987    29 H    0.834
    13   6 C    3.858 --    14 O    1.798    12 N    0.987    15 C    0.949
    14   8 O    2.040 --    13 C    1.798
    15   6 C    3.942 --    17 O    1.006     5 C    0.993    13 C    0.949
                            16 C    0.864
    16   6 C    3.963 --    32 H    0.985    30 H    0.975    31 H    0.970
                            15 C    0.864
    17   8 O    1.923 --    15 C    1.006    33 H    0.812
    18   1 H    1.005 --     1 C    0.984
    19   1 H    1.000 --     1 C    0.975
    20   1 H    1.000 --     1 C    0.976
    21   1 H    1.002 --     9 C    0.982
    22   1 H    0.996 --     9 C    0.978
    23   1 H    0.997 --     9 C    0.984
    24   1 H    0.997 --    10 C    0.984
    25   1 H    1.000 --    10 C    0.983
    26   1 H    0.994 --    10 C    0.975
    27   1 H    0.941 --    11 N    0.926
    28   1 H    0.937 --    11 N    0.923
    29   1 H    0.921 --    12 N    0.834
    30   1 H    0.998 --    16 C    0.975
    31   1 H    0.993 --    16 C    0.970
    32   1 H    0.994 --    16 C    0.985
    33   1 H    0.851 --    17 O    0.812
 ---------------------------------------------------------------------------

           -------------------------------------------------
          | TOTAL ENERGY              -57.818786739254 Eh   |
          | GRADIENT NORM               0.000398935760 Eh/α |
          | HOMO-LUMO GAP               0.704486143594 eV   |
           -------------------------------------------------

 * finished run on 2023/06/20 at 15:09:49.823
