   * xtb version 6.5.1 (579679a) compiled by 'ehlert@majestix' on 2022-07-11
          program call               : /lustre/hpc/kemi/ree/PhD/git/ReactivityQM/dep/xtb-6.5.1/bin/xtb --gfn 1 /lustre/hpc/kemi/ree/PhD/git/ReactivityQM/calculations/R02deprot/reac01prodN14/conf18/R02deprot_reac01prodN14_conf18_gfn1.xyz --opt --vfukui --chrg 0 --uhf 0 --alpb DMSO

   ID    Z sym.   atoms
    1    6 C      1, 3, 5, 7-10, 12, 14, 17-19, 22, 24
    2    8 O      2, 4, 13, 20, 23, 25
    3    7 N      6, 11, 15, 16, 21
    4    1 H      26-42

      * Solvation model:               ALPB
        Solvent                        DMSO
        Solvent mass                       7.8130E+01 g/mol
          :  Hamiltonian                  GFN1-xTB          :
 * total energy  :   -82.9148800 Eh     change       -0.1028155E-09 Eh
 * total energy  :   -82.9246374 Eh     change       -0.9757392E-02 Eh
 * total energy  :   -82.9277969 Eh     change       -0.3159497E-02 Eh
 * total energy  :   -82.9282430 Eh     change       -0.4460672E-03 Eh
 * total energy  :   -82.9285494 Eh     change       -0.3063714E-03 Eh
 * total energy  :   -82.9287081 Eh     change       -0.1587789E-03 Eh
 * total energy  :   -82.9288898 Eh     change       -0.1816910E-03 Eh
 * total energy  :   -82.9290650 Eh     change       -0.1751190E-03 Eh
 * total energy  :   -82.9291742 Eh     change       -0.1092500E-03 Eh
 * total energy  :   -82.9292353 Eh     change       -0.6108210E-04 Eh
 * total energy  :   -82.9295569 Eh     change       -0.7620876E-05 Eh
 * total energy  :   -82.9295631 Eh     change       -0.6156598E-05 Eh
 * total energy  :   -82.9295726 Eh     change       -0.9559306E-05 Eh
 * total energy  :   -82.9295835 Eh     change       -0.1083061E-04 Eh
 * total energy  :   -82.9295957 Eh     change       -0.1221229E-04 Eh
 * total energy  :   -82.9296099 Eh     change       -0.1420272E-04 Eh
 * total energy  :   -82.9296226 Eh     change       -0.1272648E-04 Eh
 * total energy  :   -82.9296322 Eh     change       -0.9575344E-05 Eh
 * total energy  :   -82.9296371 Eh     change       -0.4873791E-05 Eh
   *** GEOMETRY OPTIMIZATION CONVERGED AFTER 29 ITERATIONS ***

 final structure:
================
42
 xtb: 6.5.1 (579679a)
C            2.57765044989328       -1.33300981819010       -3.26129686406165
O            2.34498277138428       -0.81338212467782       -1.94947951843697
C            3.14890195544713        0.17587008794819       -1.55508726927032
O            4.02583548734454        0.63237543667247       -2.25040846617747
C            2.84351027683943        0.62427847376614       -0.16291974102413
N            1.75620597898981        0.09905683653784        0.43353254761869
C            1.50588517974945        0.42106964436335        1.70502380177485
C            0.29693833063975       -0.25180430514050        2.32735841483953
C           -0.22777164277180        0.55559076852438        3.51690148025654
C            0.70829612794986       -1.67193038326260        2.74892286635469
N           -0.72685759566346       -0.33359398253337        1.28086208067094
C           -1.93952751300682       -0.87070428936900        1.47326618491723
O           -2.36121798743529       -1.35819835340708        2.50980337738148
C           -2.80417120790922       -0.79491417188714        0.26064446949361
N           -4.09086996602314       -1.19507511755343        0.22189936078172
N           -4.55417237140067       -0.95776839644407       -0.94592676139193
C           -3.52818585996464       -0.35925080614503       -1.75439158667946
C           -3.20374252575489       -1.25320904538333       -2.95253174817127
C           -3.93661741588165        1.05515352880919       -2.17287885602199
O           -2.39990213264106       -0.29286030980466       -0.87567480167449
N            2.25006200894675        1.17753425747493        2.48036062858762
C            3.35080054989311        1.79011087585238        1.95643095665970
O            4.07573689471705        2.57081668104632        2.57381901467990
C            3.66199734717952        1.48631891818819        0.54613176812029
O            4.72934980223261        2.09118418042817        0.04103868723942
H            1.90255504910791       -2.17678509377428       -3.38524168423271
H            2.36713284529231       -0.56674553227931       -4.01078167972838
H            3.61619551458557       -1.65910237905607       -3.35895365741196
H           -1.03993297898616        0.02745570883295        4.01205890158097
H            0.58561984900692        0.70781556379928        4.22508633688595
H           -0.58508503752399        1.52614235234362        3.17654536748350
H            1.51597918413105       -1.60955174393711        3.47631078715650
H           -0.13550829540300       -2.19443783804395        3.19564619511583
H            1.05416761268660       -2.22420527136140        1.87646074237857
H           -0.45838651042085       -0.02130083070862        0.35694458602364
H           -2.37678341478423       -0.81884154833104       -3.50814561196540
H           -4.08016605245768       -1.32169564974403       -3.59177423641047
H           -2.92827618220906       -2.24489173368568       -2.60063330970165
H           -4.13660594841371        1.65047730523111       -1.28457110081092
H           -3.12785631847169        1.50718230589024       -2.74133607141906
H           -4.83209312308524        0.99863605076663       -2.78644842070684
H            5.15592486417903        2.61004674824353        0.75343382929074

          :  Hamiltonian                  GFN1-xTB          :
         :: total energy             -82.929637055470 Eh    ::
         :: gradient norm              0.000573801477 Eh/a0 ::
         :: HOMO-LUMO gap              0.056325241290 eV    ::
         :: SCC energy               -83.689864320543 Eh    ::
         :: -> Gsolv                  -0.057954673903 Eh    ::
         :: repulsion energy           0.785728471752 Eh    ::

    * Orbital Energies and Occupations

         #    Occupation            Energy/Eh            Energy/eV
      -------------------------------------------------------------
         1        2.0000           -0.8881254             -24.1671
       ...           ...                  ...                  ...
        55        2.0000           -0.5122854             -13.9400
        56        2.0000           -0.5030182             -13.6878
        57        2.0000           -0.5010784             -13.6350
        58        2.0000           -0.4945015             -13.4561
        59        2.0000           -0.4847666             -13.1912
        60        2.0000           -0.4797103             -13.0536
        61        2.0000           -0.4753042             -12.9337
        62        2.0000           -0.4687790             -12.7561
        63        2.0000           -0.4670070             -12.7079
        64        2.0000           -0.4583896             -12.4734
        65        2.0000           -0.4477444             -12.1837
        66        1.9959           -0.4156780             -11.3112
        67        1.4986           -0.4108487             -11.1798 (HOMO)
        68        0.5055           -0.4087788             -11.1234 (LUMO)
        69                         -0.3234804              -8.8024
        70                         -0.3085205              -8.3953
        71                         -0.2732521              -7.4356
        72                         -0.2249796              -6.1220
        73                         -0.2225822              -6.0568
        74                         -0.1484214              -4.0388
        75                         -0.1464912              -3.9862
        76                         -0.1410792              -3.8390
        77                         -0.1358608              -3.6970
        78                         -0.1229349              -3.3452
       ...                                ...                  ...
       134                          0.7377365              20.0748
      -------------------------------------------------------------
                  HL-Gap            0.0020699 Eh            0.0563 eV

Wiberg/Mayer (AO) data.
largest (>0.10) Wiberg bond orders for each atom

     #   Z sym  total        # sym  WBO       # sym  WBO       # sym  WBO
 ---------------------------------------------------------------------------
     1   6 C    3.872 --    26 H    0.986    28 H    0.979    27 H    0.979
                             2 O    0.898
     2   8 O    2.198 --     3 C    1.111     1 C    0.898     4 O    0.135
     3   6 C    3.843 --     4 O    1.663     2 O    1.111     5 C    0.990
     4   8 O    1.920 --     3 C    1.663     2 O    0.135
     5   6 C    3.916 --    24 C    1.381     6 N    1.305     3 C    0.990
     6   7 N    2.880 --     7 C    1.336     5 C    1.305
     7   6 C    3.912 --    21 N    1.453     6 N    1.336     8 C    0.979
     8   6 C    3.920 --     9 C    0.988     7 C    0.979    10 C    0.968
                            11 N    0.916
     9   6 C    3.985 --     8 C    0.988    31 H    0.985    29 H    0.982
                            30 H    0.981
    10   6 C    3.983 --    34 H    0.985    32 H    0.985    33 H    0.981
                             8 C    0.968
    11   7 N    3.371 --    12 C    1.286     8 C    0.916    35 H    0.881
                            13 O    0.200
    12   6 C    3.920 --    13 O    1.569    11 N    1.286    14 C    0.982
    13   8 O    1.887 --    12 C    1.569    11 N    0.200
    14   6 C    3.637 --    15 N    1.294    20 O    1.200    12 C    0.982
    15   7 N    2.994 --    16 N    1.562    14 C    1.294
    16   7 N    2.715 --    15 N    1.562    17 C    1.027
    17   6 C    3.833 --    16 N    1.027    18 C    0.937    19 C    0.935
                            20 O    0.868
    18   6 C    3.940 --    38 H    0.982    37 H    0.981    36 H    0.980
                            17 C    0.937
    19   6 C    3.939 --    39 H    0.982    41 H    0.981    40 H    0.980
                            17 C    0.935
    20   8 O    2.225 --    14 C    1.200    17 C    0.868
    21   7 N    2.933 --     7 C    1.453    22 C    1.183
    22   6 C    3.874 --    23 O    1.552    21 N    1.183    24 C    1.028
    23   8 O    1.786 --    22 C    1.552
    24   6 C    3.740 --     5 C    1.381    25 O    1.146    22 C    1.028
    25   8 O    2.063 --    24 C    1.146    42 H    0.797
    26   1 H    1.011 --     1 C    0.986
    27   1 H    1.007 --     1 C    0.979
    28   1 H    1.007 --     1 C    0.979
    29   1 H    1.009 --     9 C    0.982
    30   1 H    1.013 --     9 C    0.981
    31   1 H    1.003 --     9 C    0.985
    32   1 H    1.001 --    10 C    0.985
    33   1 H    1.007 --    10 C    0.981
    34   1 H    1.005 --    10 C    0.985
    35   1 H    0.950 --    11 N    0.881
    36   1 H    0.996 --    18 C    0.980
    37   1 H    0.996 --    18 C    0.981
    38   1 H    0.996 --    18 C    0.982
    39   1 H    0.996 --    19 C    0.982
    40   1 H    0.995 --    19 C    0.980
    41   1 H    0.996 --    19 C    0.981
    42   1 H    0.846 --    25 O    0.797
 ---------------------------------------------------------------------------

           -------------------------------------------------
          | TOTAL ENERGY              -82.929637055470 Eh   |
          | GRADIENT NORM               0.000573801477 Eh/α |
          | HOMO-LUMO GAP               0.056325241290 eV   |
           -------------------------------------------------

 * finished run on 2023/06/20 at 18:23:51.630
