   * xtb version 6.5.1 (579679a) compiled by 'ehlert@majestix' on 2022-07-11
          program call               : /lustre/hpc/kemi/ree/PhD/git/ReactivityQM/dep/xtb-6.5.1/bin/xtb --gfn 1 /lustre/hpc/kemi/ree/PhD/git/ReactivityQM/calculations/R03/reac02prodN14/conf09/R03_reac02prodN14_conf09_gfn1.xyz --opt --vfukui --chrg 1 --uhf 0 --alpb DMSO

   ID    Z sym.   atoms
    1    6 C      1, 3, 5, 6, 8, 9, 12-16, 18, 20, 23, 24
    2    8 O      2, 4, 7, 10, 19, 25
    3    7 N      11, 17, 21, 22, 26
    4    1 H      27-46

      * Solvation model:               ALPB
        Solvent                        DMSO
        Solvent mass                       7.8130E+01 g/mol
          :  Hamiltonian                  GFN1-xTB          :
 * total energy  :   -86.2065258 Eh     change       -0.1915794E-08 Eh
 * total energy  :   -86.2288003 Eh     change       -0.2227445E-01 Eh
 * total energy  :   -86.2427829 Eh     change       -0.1398259E-01 Eh
 * total energy  :   -86.2476138 Eh     change       -0.4830971E-02 Eh
 * total energy  :   -86.2510764 Eh     change       -0.3462553E-02 Eh
 * total energy  :   -86.2528528 Eh     change       -0.1776355E-02 Eh
 * total energy  :   -86.2539842 Eh     change       -0.1131470E-02 Eh
 * total energy  :   -86.2547808 Eh     change       -0.7965452E-03 Eh
 * total energy  :   -86.2552612 Eh     change       -0.4804785E-03 Eh
 * total energy  :   -86.2556767 Eh     change       -0.4154568E-03 Eh
 * total energy  :   -86.3059368 Eh     change       -0.3354428E-04 Eh
 * total energy  :   -86.3059425 Eh     change       -0.5680342E-05 Eh
 * total energy  :   -86.3059382 Eh     change        0.4272177E-05 Eh
 * total energy  :   -86.3059715 Eh     change       -0.3331263E-04 Eh
 * total energy  :   -86.3059824 Eh     change       -0.1086158E-04 Eh
 * total energy  :   -86.3059923 Eh     change       -0.9904569E-05 Eh
 * total energy  :   -86.3059988 Eh     change       -0.6500148E-05 Eh
 * total energy  :   -86.3060051 Eh     change       -0.6247627E-05 Eh
 * total energy  :   -86.3060086 Eh     change       -0.3556243E-05 Eh
   *** GEOMETRY OPTIMIZATION CONVERGED AFTER 68 ITERATIONS ***

 final structure:
================
46
 xtb: 6.5.1 (579679a)
C           -5.25626803443184       -2.97463666194071        1.57048332751910
O           -4.24146030696362       -1.97866563611363        1.34246099949551
C           -4.06395335137931       -1.54743416062846        0.11911310213451
O           -4.65232447011011       -1.90218274710472       -0.86535975922942
C           -2.93796446158305       -0.52431209202768        0.04356405697569
C           -3.10137185656368        0.68800340437308       -0.80646291633060
O           -4.42086017269765        1.11316685645982       -0.80286055124109
C           -2.16143480683225        1.78415265369963       -0.33931153238105
C           -2.63492635309052        0.31021453795263       -2.24684309188935
O           -2.33011635990426        2.94761802031507       -0.53367673172524
N           -0.93717916064551        1.32350842730473        0.27051488610251
C           -0.00536765294973        2.41753271280836        0.56161209013049
C           -0.75619374406900        0.05043894955632        0.57365527551367
C            0.52203162404243       -0.55906861737013        1.07239547706506
C            0.57259749685860       -2.05335416487831        0.71279994734039
C            0.49640419332767       -0.38382236227005        2.60736507322152
N            1.66291725346778        0.11409749062849        0.46797086231911
C            2.94909582181504       -0.14043568467038        0.86578779585494
O            3.26290737185824       -0.75664788605979        1.86037123754579
C            3.90632479565096        0.47268512855058       -0.07758709520289
N            3.60273316797003        1.10012627513041       -1.17617060918054
N            4.77513290846044        1.48725572177517       -1.74221674097870
C            5.72426532560263        1.07087335533105       -0.95445031171718
C            7.18312524548226        1.24078919007280       -1.12675138454651
O            5.23573311348622        0.42248964595810        0.11142487721263
N           -1.81053264583305       -0.81166889229595        0.58886642769314
H           -5.27476909906431       -3.68303008663195        0.74087946628462
H           -4.99083057741725       -3.47220978743870        2.50074680810060
H           -6.22567812526250       -2.48275018724362        1.66471453345068
H           -4.51506530820171        1.97358745737027       -1.23512881006167
H           -1.60810290348719       -0.04411912971692       -2.23600661762220
H           -3.29826672554198       -0.47013506728225       -2.61641551438474
H           -2.71825345995330        1.19460894607987       -2.87456914151170
H            0.81484977907645        2.06010223806137        1.17112488155376
H           -0.56392586545568        3.18960881691797        1.08979906951401
H            0.35808961963318        2.81770290314946       -0.38360316546107
H           -0.25869340838612       -2.58099328891975        1.17492550979907
H            0.52319758093138       -2.17820972398380       -0.36676918563205
H            1.50959037687328       -2.46709852443190        1.08137860622887
H            0.64795347569282        0.65958605362903        2.87247238198575
H           -0.46549443463142       -0.71850617091240        2.99174326027651
H            1.28663427281715       -0.98686804224633        3.04946819700288
H            1.54970312426888        0.44041702596451       -0.48066342322130
H            7.38228272356869        1.80728144817240       -2.03321170556667
H            7.59888762877784        1.76555650707238       -0.26640875427449
H            7.66458138479732        0.26474314783144       -1.19144210815603

          :  Hamiltonian                  GFN1-xTB          :
         :: total energy             -86.306008611983 Eh    ::
         :: gradient norm              0.000424599754 Eh/a0 ::
         :: HOMO-LUMO gap              1.033018315909 eV    ::
         :: SCC energy               -87.136219590212 Eh    ::
         :: -> Gsolv                  -0.106147340676 Eh    ::
         :: repulsion energy           0.859874209594 Eh    ::

    * Orbital Energies and Occupations

         #    Occupation            Energy/Eh            Energy/eV
      -------------------------------------------------------------
         1        2.0000           -0.9000111             -24.4905
       ...           ...                  ...                  ...
        58        2.0000           -0.5379290             -14.6378
        59        2.0000           -0.5331344             -14.5073
        60        2.0000           -0.5317211             -14.4689
        61        2.0000           -0.5251241             -14.2894
        62        2.0000           -0.5230903             -14.2340
        63        2.0000           -0.5170836             -14.0706
        64        2.0000           -0.5046472             -13.7321
        65        2.0000           -0.4965392             -13.5115
        66        2.0000           -0.4942702             -13.4498
        67        2.0000           -0.4844505             -13.1826
        68        2.0000           -0.4789823             -13.0338
        69        2.0000           -0.4643216             -12.6348
        70        2.0000           -0.4629561             -12.5977 (HOMO)
        71                         -0.4249933             -11.5647 (LUMO)
        72                         -0.3525262              -9.5927
        73                         -0.3290788              -8.9547
        74                         -0.3121441              -8.4939
        75                         -0.2811822              -7.6514
        76                         -0.2661933              -7.2435
        77                         -0.2156897              -5.8692
        78                         -0.1697243              -4.6184
        79                         -0.1562179              -4.2509
        80                         -0.1549692              -4.2169
        81                         -0.1490679              -4.0563
       ...                                ...                  ...
       144                          0.7178182              19.5328
      -------------------------------------------------------------
                  HL-Gap            0.0379627 Eh            1.0330 eV

Wiberg/Mayer (AO) data.
largest (>0.10) Wiberg bond orders for each atom

     #   Z sym  total        # sym  WBO       # sym  WBO       # sym  WBO
 ---------------------------------------------------------------------------
     1   6 C    3.840 --    28 H    0.982    27 H    0.979    29 H    0.976
                             2 O    0.866
     2   8 O    2.243 --     3 C    1.176     1 C    0.866     4 O    0.157
     3   6 C    3.864 --     4 O    1.695     2 O    1.176     5 C    0.924
     4   8 O    1.984 --     3 C    1.695     2 O    0.157
     5   6 C    3.905 --    26 N    1.665     6 C    1.003     3 C    0.924
     6   6 C    3.939 --     5 C    1.003     7 O    0.998     8 C    0.939
                             9 C    0.874
     7   8 O    1.917 --     6 C    0.998    30 H    0.820
     8   6 C    3.852 --    10 O    1.801    11 N    0.969     6 C    0.939
     9   6 C    3.962 --    31 H    0.985    33 H    0.974    32 H    0.973
                             6 C    0.874
    10   8 O    2.050 --     8 C    1.801
    11   7 N    3.565 --    13 C    1.426     8 C    0.969    12 C    0.903
    12   6 C    3.881 --    34 H    0.976    36 H    0.964    35 H    0.961
                            11 N    0.903
    13   6 C    3.885 --    11 N    1.426    26 N    1.200    14 C    1.011
    14   6 C    3.933 --    13 C    1.011    15 C    0.968    17 N    0.945
                            16 C    0.931
    15   6 C    3.979 --    38 H    0.984    37 H    0.981    39 H    0.977
                            14 C    0.968
    16   6 C    3.969 --    41 H    0.983    40 H    0.981    42 H    0.965
                            14 C    0.931
    17   7 N    3.295 --    18 C    1.179    14 C    0.945    43 H    0.892
                            19 O    0.158
    18   6 C    3.907 --    19 O    1.635    17 N    1.179    20 C    1.002
    19   8 O    1.944 --    18 C    1.635    17 N    0.158
    20   6 C    3.881 --    21 N    1.596    25 O    1.067    18 C    1.002
    21   7 N    3.024 --    20 C    1.596    22 N    1.214
    22   7 N    2.982 --    23 C    1.590    21 N    1.214
    23   6 C    3.866 --    22 N    1.590    25 O    1.087    24 C    1.033
    24   6 C    3.984 --    23 C    1.033    44 H    0.982    45 H    0.962
                            46 H    0.961
    25   8 O    2.337 --    23 C    1.087    20 C    1.067
    26   7 N    3.088 --     5 C    1.665    13 C    1.200
    27   1 H    1.002 --     1 C    0.979
    28   1 H    1.005 --     1 C    0.982
    29   1 H    1.000 --     1 C    0.976
    30   1 H    0.837 --     7 O    0.820
    31   1 H    0.994 --     9 C    0.985
    32   1 H    1.001 --     9 C    0.973
    33   1 H    0.992 --     9 C    0.974
    34   1 H    1.004 --    12 C    0.976
    35   1 H    0.993 --    12 C    0.961
    36   1 H    0.991 --    12 C    0.964
    37   1 H    1.005 --    15 C    0.981
    38   1 H    0.997 --    15 C    0.984
    39   1 H    0.999 --    15 C    0.977
    40   1 H    0.997 --    16 C    0.981
    41   1 H    0.998 --    16 C    0.983
    42   1 H    1.006 --    16 C    0.965
    43   1 H    0.948 --    17 N    0.892
    44   1 H    0.997 --    24 C    0.982
    45   1 H    0.995 --    24 C    0.962
    46   1 H    0.995 --    24 C    0.961
 ---------------------------------------------------------------------------

           -------------------------------------------------
          | TOTAL ENERGY              -86.306008611983 Eh   |
          | GRADIENT NORM               0.000424599754 Eh/α |
          | HOMO-LUMO GAP               1.033018315909 eV   |
           -------------------------------------------------

 * finished run on 2023/06/20 at 15:50:34.669
