   * xtb version 6.5.1 (579679a) compiled by 'ehlert@majestix' on 2022-07-11
          program call               : /lustre/hpc/kemi/ree/PhD/git/ReactivityQM/dep/xtb-6.5.1/bin/xtb --gfn 1 /lustre/hpc/kemi/ree/PhD/git/ReactivityQM/calculations/R02/reac01prodE08/conf03/R02_reac01prodE08_conf03_gfn1.xyz --opt --vfukui --chrg -1 --uhf 0 --alpb DMSO

   ID    Z sym.   atoms
    1    6 C      1, 3, 5, 7-10, 12, 14, 15, 18, 19, 22, 24
    2    8 O      2, 4, 13, 20, 23, 25
    3    7 N      6, 11, 16, 17, 21
    4    1 H      26-43

      * Solvation model:               ALPB
        Solvent                        DMSO
        Solvent mass                       7.8130E+01 g/mol
          :  Hamiltonian                  GFN1-xTB          :
 * total energy  :   -83.8439375 Eh     change       -0.1948308E-10 Eh
 * total energy  :   -83.8558818 Eh     change       -0.1194423E-01 Eh
 * total energy  :   -83.8607152 Eh     change       -0.4833419E-02 Eh
 * total energy  :   -83.8614663 Eh     change       -0.7511221E-03 Eh
 * total energy  :   -83.8619191 Eh     change       -0.4528235E-03 Eh
 * total energy  :   -83.8621450 Eh     change       -0.2258140E-03 Eh
 * total energy  :   -83.8623496 Eh     change       -0.2046084E-03 Eh
 * total energy  :   -83.8625533 Eh     change       -0.2036912E-03 Eh
 * total energy  :   -83.8627850 Eh     change       -0.2317104E-03 Eh
 * total energy  :   -83.8630713 Eh     change       -0.2863114E-03 Eh
 * total energy  :   -83.8673229 Eh     change       -0.1374285E-04 Eh
 * total energy  :   -83.8673382 Eh     change       -0.1525822E-04 Eh
 * total energy  :   -83.8673551 Eh     change       -0.1689422E-04 Eh
 * total energy  :   -83.8673734 Eh     change       -0.1829813E-04 Eh
 * total energy  :   -83.8673916 Eh     change       -0.1820039E-04 Eh
 * total energy  :   -83.8674084 Eh     change       -0.1684584E-04 Eh
 * total energy  :   -83.8674234 Eh     change       -0.1496639E-04 Eh
 * total energy  :   -83.8674353 Eh     change       -0.1191337E-04 Eh
 * total energy  :   -83.8674388 Eh     change       -0.3479836E-05 Eh
   *** GEOMETRY OPTIMIZATION CONVERGED AFTER 94 ITERATIONS ***

 final structure:
================
43
 xtb: 6.5.1 (579679a)
C           -6.71198175348985        0.31180369989285        0.80993885293447
O           -5.49622402785378       -0.27590818748876        0.34425656029241
C           -4.39083590879339        0.51579750977238        0.43901407951808
O           -4.45654062164879        1.63899254593867        0.91179598114674
C           -3.17152634060494       -0.10232696797221       -0.07897421117149
N           -2.07156405421366        0.73071041621593       -0.00815951835786
C           -0.93574861765040        0.32532541661342       -0.45405960319373
C            0.26346662928725        1.25582013133539       -0.45146572212958
C            0.09276097608201        2.33413130516316        0.62422020406140
C            0.37591125769788        1.89563734036971       -1.84036431461577
N            1.48053384099832        0.48526391833027       -0.21775741732356
C            1.66367666652971       -0.28745037657033        0.87549081011060
O            0.82134016130281       -0.41795153807518        1.75626882630691
C            3.06112330082922       -0.93660587022187        0.97251505608870
C            2.93458112856819       -2.37451778132229        1.49890780070175
N            3.85783946939491       -0.10549135477839        1.87607648682701
N            4.91678743829468        0.32490980275362        1.15262133014656
C            4.84793437593313       -0.12775180619798       -0.04806361257027
C            5.81132351192458        0.08389856691144       -1.15845296203554
O            3.72419791039375       -0.90936357104038       -0.28471532048969
N           -0.76393382047003       -0.90867506473875       -1.01169121839569
C           -1.78311424160690       -1.84873241429674       -1.12696090447710
O           -1.55299366831752       -2.94425777443189       -1.63673463776299
C           -3.05099441784110       -1.38330167414427       -0.61153579111323
O           -4.06261711440870       -2.28015734580800       -0.70989205749031
H           -6.63947975069018        0.54023348140888        1.87681909429767
H           -7.50213437627369       -0.41509747483770        0.63621606819286
H           -6.92232838067577        1.23216523939041        0.25851229776846
H            0.95514305096872        2.99815925210367        0.62268022712838
H           -0.00806249079428        1.87481376624282        1.60725537814343
H           -0.80594119950015        2.91210522413478        0.41404185739215
H           -0.52810208328925        2.46151077680377       -2.05946527894223
H            1.23031431829189        2.56927004209881       -1.87420636804421
H            0.50227490645958        1.12655784778707       -2.60035093610224
H            2.19642635394463        0.50933557511290       -0.92518259229162
H            3.92693718389101       -2.76949911194685        1.70467283354356
H            2.44540347812097       -3.00051232009919        0.75508762458166
H            2.34828054129362       -2.36933299134226        2.41617831147658
H            6.63871643741183        0.69760117704270       -0.80798615549764
H            6.19980233735073       -0.87146872085351       -1.51566272831881
H            5.32882788392826        0.58206816950358       -2.00083949750412
H            0.13560052957705       -1.16356835176110       -1.39145655675751
H           -4.90508182036388       -1.91414050700830       -0.39463327607899

          :  Hamiltonian                  GFN1-xTB          :
         :: total energy             -83.867438759174 Eh    ::
         :: gradient norm              0.000189486048 Eh/a0 ::
         :: HOMO-LUMO gap              0.081042276581 eV    ::
         :: SCC energy               -84.624720504789 Eh    ::
         :: -> Gsolv                  -0.118938155974 Eh    ::
         :: repulsion energy           0.784639168720 Eh    ::

    * Orbital Energies and Occupations

         #    Occupation            Energy/Eh            Energy/eV
      -------------------------------------------------------------
         1        2.0000           -0.8191047             -22.2890
       ...           ...                  ...                  ...
        56        2.0000           -0.4815699             -13.1042
        57        2.0000           -0.4744352             -12.9100
        58        2.0000           -0.4597531             -12.5105
        59        2.0000           -0.4592010             -12.4955
        60        2.0000           -0.4385558             -11.9337
        61        2.0000           -0.4347499             -11.8301
        62        2.0000           -0.4292266             -11.6799
        63        2.0000           -0.4260845             -11.5943
        64        2.0000           -0.4212413             -11.4626
        65        2.0000           -0.4108511             -11.1798
        66        2.0000           -0.4043745             -11.0036
        67        2.0000           -0.3827441             -10.4150
        68        1.6548           -0.3081515              -8.3852 (HOMO)
        69        0.3452           -0.3051732              -8.3042 (LUMO)
        70                         -0.2563283              -6.9750
        71                         -0.2289238              -6.2293
        72                         -0.2158097              -5.8725
        73                         -0.1920276              -5.2253
        74                         -0.1334137              -3.6304
        75                         -0.1285600              -3.4983
        76                         -0.1247348              -3.3942
        77                         -0.1183594              -3.2207
        78                         -0.1140519              -3.1035
        79                         -0.1026665              -2.7937
       ...                                ...                  ...
       136                          0.7117884              19.3687
      -------------------------------------------------------------
                  HL-Gap            0.0029782 Eh            0.0810 eV

Wiberg/Mayer (AO) data.
largest (>0.10) Wiberg bond orders for each atom

     #   Z sym  total        # sym  WBO       # sym  WBO       # sym  WBO
 ---------------------------------------------------------------------------
     1   6 C    3.879 --    27 H    0.987    26 H    0.981    28 H    0.981
                             2 O    0.904
     2   8 O    2.150 --     3 C    1.030     1 C    0.904     4 O    0.111
     3   6 C    3.770 --     4 O    1.598     5 C    1.077     2 O    1.030
     4   8 O    1.831 --     3 C    1.598     2 O    0.111
     5   6 C    3.867 --    24 C    1.393     6 N    1.154     3 C    1.077
     6   7 N    3.012 --     7 C    1.604     5 C    1.154
     7   6 C    3.911 --     6 N    1.604    21 N    1.156     8 C    0.973
     8   6 C    3.947 --     9 C    0.991    10 C    0.984     7 C    0.973
                            11 N    0.935
     9   6 C    3.993 --     8 C    0.991    29 H    0.987    31 H    0.985
                            30 H    0.981
    10   6 C    3.991 --    32 H    0.985    34 H    0.985     8 C    0.984
                            33 H    0.983
    11   7 N    3.324 --    12 C    1.247     8 C    0.935    35 H    0.897
                            13 O    0.155
    12   6 C    3.856 --    13 O    1.584    11 N    1.247    14 C    0.913
    13   8 O    1.867 --    12 C    1.584    11 N    0.155
    14   6 C    3.890 --    16 N    0.987    15 C    0.968    20 O    0.917
                            12 C    0.913
    15   6 C    3.972 --    37 H    0.987    36 H    0.986    38 H    0.985
                            14 C    0.968
    16   7 N    2.452 --    17 N    1.219    14 C    0.987    18 C    0.111
    17   7 N    3.002 --    18 C    1.625    16 N    1.219
    18   6 C    3.752 --    17 N    1.625    19 C    1.023    20 O    0.962
                            16 N    0.111
    19   6 C    3.994 --    18 C    1.023    39 H    0.986    41 H    0.972
                            40 H    0.972
    20   8 O    2.076 --    18 C    0.962    14 C    0.917
    21   7 N    3.382 --     7 C    1.156    22 C    1.081    42 H    0.893
                            23 O    0.116
    22   6 C    3.859 --    23 O    1.539    24 C    1.126    21 N    1.081
    23   8 O    1.810 --    22 C    1.539    21 N    0.116
    24   6 C    3.789 --     5 C    1.393    22 C    1.126    25 O    1.065
    25   8 O    2.022 --    24 C    1.065    43 H    0.813
    26   1 H    1.010 --     1 C    0.981
    27   1 H    1.012 --     1 C    0.987
    28   1 H    1.010 --     1 C    0.981
    29   1 H    1.004 --     9 C    0.987
    30   1 H    1.016 --     9 C    0.981
    31   1 H    1.013 --     9 C    0.985
    32   1 H    1.003 --    10 C    0.985
    33   1 H    0.999 --    10 C    0.983
    34   1 H    1.000 --    10 C    0.985
    35   1 H    0.949 --    11 N    0.897
    36   1 H    1.011 --    15 C    0.986
    37   1 H    1.006 --    15 C    0.987
    38   1 H    1.014 --    15 C    0.985
    39   1 H    1.006 --    19 C    0.986
    40   1 H    1.000 --    19 C    0.972
    41   1 H    1.000 --    19 C    0.972
    42   1 H    0.944 --    21 N    0.893
    43   1 H    0.867 --    25 O    0.813
 ---------------------------------------------------------------------------

           -------------------------------------------------
          | TOTAL ENERGY              -83.867438759174 Eh   |
          | GRADIENT NORM               0.000189486048 Eh/α |
          | HOMO-LUMO GAP               0.081042276581 eV   |
           -------------------------------------------------

 * finished run on 2023/06/20 at 15:06:52.682
