   * xtb version 6.5.1 (579679a) compiled by 'ehlert@majestix' on 2022-07-11
          program call               : /lustre/hpc/kemi/ree/PhD/git/ReactivityQM/dep/xtb-6.5.1/bin/xtb --gfn 1 /lustre/hpc/kemi/ree/PhD/git/ReactivityQM/calculations/R02/reac02/conf05/R02_reac02_conf05_gfn1.xyz --opt --vfukui --chrg 0 --uhf 0 --alpb DMSO

   ID    Z sym.   atoms
    1    6 C      1
    2    5 B      2
    3    8 O      3, 4
    4    1 H      5-9

      * Solvation model:               ALPB
        Solvent                        DMSO
        Solvent mass                       7.8130E+01 g/mol
          :  Hamiltonian                  GFN1-xTB          :
 * total energy  :   -15.7435476 Eh     change       -0.2273737E-12 Eh
 * total energy  :   -15.7455462 Eh     change       -0.1998655E-02 Eh
 * total energy  :   -15.7457462 Eh     change       -0.1999266E-03 Eh
 * total energy  :   -15.7457700 Eh     change       -0.2382298E-04 Eh
 * total energy  :   -15.7457856 Eh     change       -0.1558793E-04 Eh
 * total energy  :   -15.7457940 Eh     change       -0.8409210E-05 Eh
 * total energy  :   -15.7457951 Eh     change       -0.1080081E-05 Eh
   *** GEOMETRY OPTIMIZATION CONVERGED AFTER 7 ITERATIONS ***

 final structure:
================
9
 xtb: 6.5.1 (579679a)
C           -1.07693710334274       -0.27703448971318        0.23455592012753
B            0.46323164928911       -0.00392938915697        0.03480817631128
O            1.00609071822863        1.25318716131102       -0.07513757872608
O            1.31635918447865       -1.06877160513093       -0.05200193445053
H           -1.52578036024885       -0.57924653033144       -0.71219036916951
H           -1.60926256532245        0.60355375928347        0.58630938142989
H           -1.24102944578268       -1.08796434149037        0.94333924565164
H            0.42951438475087        2.01105227248809       -0.01968791070968
H            2.23781253794946       -0.85084783725968       -0.18891393046457

          :  Hamiltonian                  GFN1-xTB          :
         :: total energy             -15.745795071975 Eh    ::
         :: gradient norm              0.000515547847 Eh/a0 ::
         :: HOMO-LUMO gap              7.902538617600 eV    ::
         :: SCC energy               -15.885038689897 Eh    ::
         :: -> Gsolv                  -0.019382989180 Eh    ::
         :: repulsion energy           0.141163836841 Eh    ::

    * Orbital Energies and Occupations

         #    Occupation            Energy/Eh            Energy/eV
      -------------------------------------------------------------
         1        2.0000           -0.7697700             -20.9465
         2        2.0000           -0.7653421             -20.8260
         3        2.0000           -0.6437462             -17.5172
         4        2.0000           -0.6232065             -16.9583
         5        2.0000           -0.6037758             -16.4296
         6        2.0000           -0.5590800             -15.2133
         7        2.0000           -0.5576001             -15.1731
         8        2.0000           -0.5253148             -14.2945
         9        2.0000           -0.5058566             -13.7651
        10        2.0000           -0.5002527             -13.6126
        11        2.0000           -0.4992626             -13.5856
        12        2.0000           -0.4569428             -12.4340 (HOMO)
        13                         -0.1665299              -4.5315 (LUMO)
        14                         -0.1198558              -3.2614
        15                         -0.0898791              -2.4457
        16                         -0.0824946              -2.2448
        17                         -0.0447720              -1.2183
        18                         -0.0387959              -1.0557
        19                          0.1700180               4.6264
        20                          0.2453061               6.6751
        21                          0.2843458               7.7374
        22                          0.3444649               9.3734
        23                          0.3994726              10.8702
       ...                                ...                  ...
        26                          0.5922960              16.1172
      -------------------------------------------------------------
                  HL-Gap            0.2904130 Eh            7.9025 eV

Wiberg/Mayer (AO) data.
largest (>0.10) Wiberg bond orders for each atom

     #   Z sym  total        # sym  WBO       # sym  WBO       # sym  WBO
 ---------------------------------------------------------------------------
     1   6 C    3.975 --     2 B    0.986     6 H    0.986     7 H    0.978
                             5 H    0.968
     2   5 B    3.250 --     4 O    1.127     3 O    1.103     1 C    0.986
     3   8 O    2.037 --     2 B    1.103     8 H    0.842
     4   8 O    2.042 --     2 B    1.127     9 H    0.836
     5   1 H    1.001 --     1 C    0.968
     6   1 H    1.002 --     1 C    0.986
     7   1 H    1.001 --     1 C    0.978
     8   1 H    0.862 --     3 O    0.842
     9   1 H    0.859 --     4 O    0.836
 ---------------------------------------------------------------------------

           -------------------------------------------------
          | TOTAL ENERGY              -15.745795071975 Eh   |
          | GRADIENT NORM               0.000515547847 Eh/α |
          | HOMO-LUMO GAP               7.902538617600 eV   |
           -------------------------------------------------

 * finished run on 2023/06/20 at 14:51:56.305
