   * xtb version 6.5.1 (579679a) compiled by 'ehlert@majestix' on 2022-07-11
          program call               : /lustre/hpc/kemi/ree/PhD/git/ReactivityQM/dep/xtb-6.5.1/bin/xtb --gfn 1 /lustre/hpc/kemi/ree/PhD/git/ReactivityQM/calculations/R03/reac02/conf09/R03_reac02_conf09_gfn1.xyz --opt --vfukui --chrg 0 --uhf 0 --alpb DMSO

   ID    Z sym.   atoms
    1    6 C      1, 3, 5, 7-10, 12, 14, 17, 18, 21, 22, 24
    2    8 O      2, 4, 13, 19, 23, 25
    3    7 N      6, 11, 15, 16, 20
    4    1 H      26-42

      * Solvation model:               ALPB
        Solvent                        DMSO
        Solvent mass                       7.8130E+01 g/mol
          :  Hamiltonian                  GFN1-xTB          :
 * total energy  :   -82.9922830 Eh     change       -0.1176659E-10 Eh
 * total energy  :   -83.0037582 Eh     change       -0.1147521E-01 Eh
 * total energy  :   -83.0080955 Eh     change       -0.4337347E-02 Eh
 * total energy  :   -83.0088149 Eh     change       -0.7193842E-03 Eh
 * total energy  :   -83.0091058 Eh     change       -0.2908412E-03 Eh
 * total energy  :   -83.0091955 Eh     change       -0.8975049E-04 Eh
 * total energy  :   -83.0092725 Eh     change       -0.7700547E-04 Eh
 * total energy  :   -83.0093400 Eh     change       -0.6749263E-04 Eh
 * total energy  :   -83.0093985 Eh     change       -0.5851905E-04 Eh
 * total energy  :   -83.0094444 Eh     change       -0.4582152E-04 Eh
 * total energy  :   -83.0095541 Eh     change       -0.9356261E-05 Eh
 * total energy  :   -83.0095627 Eh     change       -0.8638535E-05 Eh
 * total energy  :   -83.0095678 Eh     change       -0.5150335E-05 Eh
 * total energy  :   -83.0095788 Eh     change       -0.1091095E-04 Eh
 * total energy  :   -83.0095874 Eh     change       -0.8639169E-05 Eh
 * total energy  :   -83.0095985 Eh     change       -0.1112349E-04 Eh
 * total energy  :   -83.0096045 Eh     change       -0.5960793E-05 Eh
 * total energy  :   -83.0096090 Eh     change       -0.4527208E-05 Eh
 * total energy  :   -83.0096115 Eh     change       -0.2501898E-05 Eh
   *** GEOMETRY OPTIMIZATION CONVERGED AFTER 24 ITERATIONS ***

 final structure:
================
42
 xtb: 6.5.1 (579679a)
C            5.93430593199231        2.58583576880750        1.31978006911892
O            5.03946626768837        1.48493768062166        1.14077113303974
C            3.92146925921150        1.73098595450565        0.46185346919940
O            3.64897441654112        2.81710405707190        0.00272246655544
C            3.03754684619008        0.53554294364132        0.32740905861318
N            1.89078114750512        0.77239364787403       -0.37905184456018
C            1.00899288238167       -0.15031579853159       -0.58265443311120
C           -0.19328478067995        0.24661722340316       -1.43106010968116
C           -0.16532269762214        1.76142226825480       -1.68174959655549
C           -0.14630293043529       -0.49963177383192       -2.77231663667731
N           -1.41043847885517       -0.06887317133011       -0.67299739801147
C           -2.65851750770917        0.03781711543864       -1.18859128150286
O           -2.93349390647991        0.23881367695331       -2.35588313042467
C           -3.67582771447936       -0.15404976769636       -0.12353969528805
N           -3.43563621089211       -0.28952062440302        1.14632760714768
N           -4.64258310778346       -0.42844901836129        1.76154393201275
C           -5.54320713843408       -0.36833816697834        0.82724091967402
C           -7.01072248022637       -0.47721115859979        0.97893723606158
O           -4.99445783555325       -0.19337710600134       -0.38388105075525
N            1.17260779054221       -1.42545406977900       -0.09895828286658
C            0.23649251765105       -2.53428499930424       -0.29595680011048
C            2.30519072794639       -1.77628775930046        0.61128280263195
O            2.48541719161447       -2.91331855569463        1.03682811182781
C            3.27558012068543       -0.71323156790881        0.82937615941191
O            4.36160191614825       -1.06561357836903        1.52569906303671
H            6.27278678485611        2.95733775653335        0.34953457740882
H            5.43407685506552        3.39291082434908        1.86040455015605
H            6.77793731398546        2.21126380392760        1.89584278372150
H           -1.04377671008517        2.04811329958974       -2.25724848088912
H           -0.16567820647540        2.29780589265603       -0.73434788071293
H            0.73112419556278        2.02795765562563       -2.23887908386188
H            0.85811946298511       -0.41911213145842       -3.18555946987963
H           -0.85086700379941       -0.05646311032735       -3.47293186833143
H           -0.39408159653476       -1.55068203994652       -2.65220624956810
H           -1.33460439091251       -0.08330199690975        0.33388085387126
H           -7.49935757814706        0.38031813470613        0.51742481016910
H           -7.26637797311261       -0.52284094656557        2.03464881415216
H           -7.36944253450529       -1.37801395123130        0.48043082192086
H           -0.74833394026132       -2.16561876862243       -0.55689221948663
H            0.61774748801664       -3.18632269210928       -1.08171801140621
H            0.18320075583955       -3.09686782416770        0.63606464565167
H            4.28889685057911       -2.00999312652934        1.76034863830179

          :  Hamiltonian                  GFN1-xTB          :
         :: total energy             -83.009611513046 Eh    ::
         :: gradient norm              0.000720211180 Eh/a0 ::
         :: HOMO-LUMO gap              2.897650761360 eV    ::
         :: SCC energy               -83.792932416731 Eh    ::
         :: -> Gsolv                  -0.052062949173 Eh    ::
         :: repulsion energy           0.809473745776 Eh    ::

    * Orbital Energies and Occupations

         #    Occupation            Energy/Eh            Energy/eV
      -------------------------------------------------------------
         1        2.0000           -0.8655509             -23.5528
       ...           ...                  ...                  ...
        55        2.0000           -0.5073939             -13.8069
        56        2.0000           -0.5016358             -13.6502
        57        2.0000           -0.4975912             -13.5401
        58        2.0000           -0.4864035             -13.2357
        59        2.0000           -0.4848266             -13.1928
        60        2.0000           -0.4771873             -12.9849
        61        2.0000           -0.4697169             -12.7816
        62        2.0000           -0.4641305             -12.6296
        63        2.0000           -0.4600954             -12.5198
        64        2.0000           -0.4543279             -12.3629
        65        2.0000           -0.4509059             -12.2698
        66        2.0000           -0.4471221             -12.1668
        67        2.0000           -0.4314247             -11.7397 (HOMO)
        68                         -0.3249380              -8.8420 (LUMO)
        69                         -0.3136593              -8.5351
        70                         -0.2868615              -7.8059
        71                         -0.2585551              -7.0356
        72                         -0.2418088              -6.5800
        73                         -0.2020859              -5.4990
        74                         -0.1592058              -4.3322
        75                         -0.1432264              -3.8974
        76                         -0.1428057              -3.8859
        77                         -0.1388610              -3.7786
        78                         -0.1252125              -3.4072
       ...                                ...                  ...
       134                          0.7286551              19.8277
      -------------------------------------------------------------
                  HL-Gap            0.1064867 Eh            2.8977 eV

Wiberg/Mayer (AO) data.
largest (>0.10) Wiberg bond orders for each atom

     #   Z sym  total        # sym  WBO       # sym  WBO       # sym  WBO
 ---------------------------------------------------------------------------
     1   6 C    3.872 --    28 H    0.986    27 H    0.980    26 H    0.979
                             2 O    0.897
     2   8 O    2.205 --     3 C    1.116     1 C    0.897     4 O    0.135
     3   6 C    3.851 --     4 O    1.657     2 O    1.116     5 C    0.998
     4   8 O    1.919 --     3 C    1.657     2 O    0.135
     5   6 C    3.963 --    24 C    1.494     6 N    1.187     3 C    0.998
     6   7 N    3.034 --     7 C    1.578     5 C    1.187
     7   6 C    3.930 --     6 N    1.578    20 N    1.165     8 C    0.975
     8   6 C    3.932 --     9 C    0.990    10 C    0.983     7 C    0.975
                            11 N    0.920
     9   6 C    3.990 --     8 C    0.990    30 H    0.984    31 H    0.984
                            29 H    0.983
    10   6 C    3.988 --    32 H    0.985     8 C    0.983    34 H    0.981
                            33 H    0.977
    11   7 N    3.337 --    12 C    1.232     8 C    0.920    35 H    0.896
                            13 O    0.172
    12   6 C    3.915 --    13 O    1.607    11 N    1.232    14 C    0.989
    13   8 O    1.920 --    12 C    1.607    11 N    0.172
    14   6 C    3.876 --    15 N    1.608    19 O    1.065    12 C    0.989
    15   7 N    3.019 --    14 C    1.608    16 N    1.201
    16   7 N    2.981 --    17 C    1.603    15 N    1.201
    17   6 C    3.870 --    16 N    1.603    19 O    1.083    18 C    1.032
    18   6 C    3.986 --    17 C    1.032    37 H    0.982    36 H    0.965
                            38 H    0.961
    19   8 O    2.332 --    17 C    1.083    14 C    1.065
    20   7 N    3.512 --     7 C    1.165    22 C    1.136    21 C    0.926
                            23 O    0.135
    21   6 C    3.919 --    39 H    0.977    40 H    0.975    41 H    0.974
                            20 N    0.926
    22   6 C    3.915 --    23 O    1.554    20 N    1.136    24 C    1.075
    23   8 O    1.898 --    22 C    1.554    20 N    0.135
    24   6 C    3.921 --     5 C    1.494    25 O    1.107    22 C    1.075
    25   8 O    2.085 --    24 C    1.107    42 H    0.805
    26   1 H    1.007 --     1 C    0.979
    27   1 H    1.007 --     1 C    0.980
    28   1 H    1.011 --     1 C    0.986
    29   1 H    1.004 --     9 C    0.983
    30   1 H    1.009 --     9 C    0.984
    31   1 H    1.010 --     9 C    0.984
    32   1 H    1.002 --    10 C    0.985
    33   1 H    1.012 --    10 C    0.977
    34   1 H    1.001 --    10 C    0.981
    35   1 H    0.954 --    11 N    0.896
    36   1 H    0.996 --    18 C    0.965
    37   1 H    0.998 --    18 C    0.982
    38   1 H    0.996 --    18 C    0.961
    39   1 H    1.009 --    21 C    0.977
    40   1 H    1.001 --    21 C    0.975
    41   1 H    1.005 --    21 C    0.974
    42   1 H    0.847 --    25 O    0.805
 ---------------------------------------------------------------------------

           -------------------------------------------------
          | TOTAL ENERGY              -83.009611513046 Eh   |
          | GRADIENT NORM               0.000720211180 Eh/α |
          | HOMO-LUMO GAP               2.897650761360 eV   |
           -------------------------------------------------

 * finished run on 2023/06/20 at 15:12:21.319
