   * xtb version 6.5.1 (579679a) compiled by 'ehlert@majestix' on 2022-07-11
          program call               : /lustre/hpc/kemi/ree/PhD/git/ReactivityQM/dep/xtb-6.5.1/bin/xtb --gfn 1 /lustre/hpc/kemi/ree/PhD/git/ReactivityQM/calculations/R01/reac01prodN05/conf13/R01_reac01prodN05_conf13_gfn1.xyz --opt --vfukui --chrg 1 --uhf 0 --alpb DMSO

   ID    Z sym.   atoms
    1    6 C      1, 3, 4, 6, 9, 10
    2    8 O      2, 5, 11
    3    7 N      7, 8
    4    1 H      12-20

      * Solvation model:               ALPB
        Solvent                        DMSO
        Solvent mass                       7.8130E+01 g/mol
          :  Hamiltonian                  GFN1-xTB          :
 * total energy  :   -37.4474880 Eh     change       -0.4646949E-10 Eh
 * total energy  :   -37.4649231 Eh     change       -0.1743505E-01 Eh
 * total energy  :   -37.4797081 Eh     change       -0.1478499E-01 Eh
 * total energy  :   -37.4867276 Eh     change       -0.7019487E-02 Eh
 * total energy  :   -37.5065624 Eh     change       -0.1983483E-01 Eh
 * total energy  :   -37.5028090 Eh     change        0.3753418E-02 Eh
 * total energy  :   -37.5385947 Eh     change       -0.3578572E-01 Eh
 * total energy  :   -37.5592688 Eh     change       -0.2067411E-01 Eh
 * total energy  :   -37.5800877 Eh     change       -0.2081894E-01 Eh
 * total energy  :   -37.5899256 Eh     change       -0.9837878E-02 Eh
 * total energy  :   -37.6262525 Eh     change       -0.2029544E-04 Eh
 * total energy  :   -37.6262702 Eh     change       -0.1765692E-04 Eh
 * total energy  :   -37.6262891 Eh     change       -0.1891504E-04 Eh
 * total energy  :   -37.6263003 Eh     change       -0.1120821E-04 Eh
 * total energy  :   -37.6263243 Eh     change       -0.2399332E-04 Eh
 * total energy  :   -37.6263365 Eh     change       -0.1214298E-04 Eh
 * total energy  :   -37.6263431 Eh     change       -0.6645629E-05 Eh
 * total energy  :   -37.6263478 Eh     change       -0.4709550E-05 Eh
 * total energy  :   -37.6263522 Eh     change       -0.4393650E-05 Eh
   *** GEOMETRY OPTIMIZATION CONVERGED AFTER 65 ITERATIONS ***

 final structure:
================
20
 xtb: 6.5.1 (579679a)
C           -2.46641241877401        1.00390730274668        2.17080954515064
O           -2.75779915085503        0.22306045208150        0.98970895694861
C           -1.84698716117741       -0.15250891910370        0.19465017199190
C           -2.20781752399479       -0.93888182712732       -0.99317888356349
O           -0.62253655049240        0.18822675047239        0.48159478652452
C            0.47508147275944       -0.11230321598534       -0.25524773422526
N            0.56255694477466       -0.79142623196771       -1.34755468625369
N            1.88948396998283       -0.78881888764628       -1.66636308047378
C            2.50522236633987       -0.11138746029488       -0.74752787777228
C            3.94684972591562        0.18722054819043       -0.64187155221753
O            1.64311015979603        0.34823137132424        0.18823676657054
H           -3.43261055053012        1.26717817307031        2.59466549309200
H           -1.90137330265969        1.88989970258550        1.88277754721875
H           -1.88320118622860        0.39339240096685        2.86046225401272
H           -1.67454038344728       -1.89209561774231       -0.96685868655922
H           -1.86010850307369       -0.41648847776484       -1.88760286882111
H           -3.28329230266632       -1.09722906470842       -1.02885192798398
H            4.33945504346513       -0.20576447313185        0.29620184788902
H            4.10037197263413        1.26692763947600       -0.64391666702340
H            4.47454737823082       -0.26114016544101       -1.48013240450461

          :  Hamiltonian                  GFN1-xTB          :
         :: total energy             -37.626352203200 Eh    ::
         :: gradient norm              0.000946589068 Eh/a0 ::
         :: HOMO-LUMO gap              2.892856626992 eV    ::
         :: SCC energy               -37.972653771363 Eh    ::
         :: -> Gsolv                  -0.079129368032 Eh    ::
         :: repulsion energy           0.354191826046 Eh    ::

    * Orbital Energies and Occupations

         #    Occupation            Energy/Eh            Energy/eV
      -------------------------------------------------------------
         1        2.0000           -0.9509445             -25.8765
       ...           ...                  ...                  ...
        18        2.0000           -0.6237245             -16.9724
        19        2.0000           -0.5975878             -16.2612
        20        2.0000           -0.5957043             -16.2099
        21        2.0000           -0.5870453             -15.9743
        22        2.0000           -0.5693815             -15.4937
        23        2.0000           -0.5646164             -15.3640
        24        2.0000           -0.5617442             -15.2858
        25        2.0000           -0.5588153             -15.2061
        26        2.0000           -0.5508097             -14.9883
        27        2.0000           -0.5436135             -14.7925
        28        2.0000           -0.5188043             -14.1174
        29        2.0000           -0.4933578             -13.4250
        30        2.0000           -0.4863068             -13.2331 (HOMO)
        31                         -0.3799963             -10.3402 (LUMO)
        32                         -0.2949300              -8.0255
        33                         -0.2830490              -7.7022
        34                         -0.1815018              -4.9389
        35                         -0.1672556              -4.5513
        36                         -0.1544202              -4.2020
        37                         -0.1157089              -3.1486
        38                         -0.1080085              -2.9391
        39                         -0.1075782              -2.9274
        40                         -0.1036740              -2.8211
        41                         -0.0858346              -2.3357
       ...                                ...                  ...
        62                          0.5782403              15.7347
      -------------------------------------------------------------
                  HL-Gap            0.1063105 Eh            2.8929 eV

Wiberg/Mayer (AO) data.
largest (>0.10) Wiberg bond orders for each atom

     #   Z sym  total        # sym  WBO       # sym  WBO       # sym  WBO
 ---------------------------------------------------------------------------
     1   6 C    3.799 --    12 H    0.980    13 H    0.971    14 H    0.967
                             2 O    0.831
     2   8 O    2.352 --     3 C    1.348     1 C    0.831
     3   6 C    3.768 --     2 O    1.348     5 O    1.182     4 C    1.051
     4   6 C    3.960 --     3 C    1.051    17 H    0.972    16 H    0.926
                            15 H    0.926
     5   8 O    2.360 --     3 C    1.182     6 C    0.961
     6   6 C    3.818 --     7 N    1.594    11 O    1.086     5 O    0.961
     7   7 N    3.022 --     6 C    1.594     8 N    1.178
     8   7 N    2.979 --     9 C    1.622     7 N    1.178
     9   6 C    3.842 --     8 N    1.622    11 O    1.042    10 C    1.037
    10   6 C    3.977 --     9 C    1.037    20 H    0.979    18 H    0.957
                            19 H    0.956
    11   8 O    2.330 --     6 C    1.086     9 C    1.042
    12   1 H    0.998 --     1 C    0.980
    13   1 H    0.994 --     1 C    0.971
    14   1 H    0.993 --     1 C    0.967
    15   1 H    0.993 --     4 C    0.926
    16   1 H    0.993 --     4 C    0.926
    17   1 H    0.985 --     4 C    0.972
    18   1 H    0.992 --    10 C    0.957
    19   1 H    0.992 --    10 C    0.956
    20   1 H    0.994 --    10 C    0.979
 ---------------------------------------------------------------------------

           -------------------------------------------------
          | TOTAL ENERGY              -37.626352203200 Eh   |
          | GRADIENT NORM               0.000946589068 Eh/α |
          | HOMO-LUMO GAP               2.892856626992 eV   |
           -------------------------------------------------

 * finished run on 2023/06/20 at 14:56:08.978
