   * xtb version 6.5.1 (579679a) compiled by 'ehlert@majestix' on 2022-07-11
          program call               : /lustre/hpc/kemi/ree/PhD/git/ReactivityQM/dep/xtb-6.5.1/bin/xtb --gfn 1 /lustre/hpc/kemi/ree/PhD/git/ReactivityQM/calculations/RaltegravirCLI/reac02prodE01/conf19/RaltegravirCLI_reac02prodE01_conf19_gfn1.xyz --opt --vfukui --chrg -1 --uhf 0 --alpb DMSO

   ID    Z sym.   atoms
    1    6 C      1, 3-6, 9-11, 14-18, 20-22, 24
    2    7 N      2, 7, 8, 13
    3    8 O      12, 23, 25
    4    9 F      19
    5    1 H      26-47

      * Solvation model:               ALPB
        Solvent                        DMSO
        Solvent mass                       7.8130E+01 g/mol
          :  Hamiltonian                  GFN1-xTB          :
 * total energy  :   -80.1866504 Eh     change       -0.1929834E-10 Eh
 * total energy  :   -80.1952345 Eh     change       -0.8584073E-02 Eh
 * total energy  :   -80.1975700 Eh     change       -0.2335557E-02 Eh
 * total energy  :   -80.1980579 Eh     change       -0.4878453E-03 Eh
 * total energy  :   -80.1983396 Eh     change       -0.2817305E-03 Eh
 * total energy  :   -80.1984475 Eh     change       -0.1079343E-03 Eh
 * total energy  :   -80.1985317 Eh     change       -0.8416748E-04 Eh
 * total energy  :   -80.1985877 Eh     change       -0.5604182E-04 Eh
 * total energy  :   -80.1986266 Eh     change       -0.3885882E-04 Eh
 * total energy  :   -80.1986494 Eh     change       -0.2282383E-04 Eh
 * total energy  :   -80.1986641 Eh     change       -0.1463122E-04 Eh
 * total energy  :   -80.1986740 Eh     change       -0.9934831E-05 Eh
 * total energy  :   -80.1986779 Eh     change       -0.3942642E-05 Eh
   *** GEOMETRY OPTIMIZATION CONVERGED AFTER 13 ITERATIONS ***

 final structure:
================
47
 xtb: 6.5.1 (579679a)
C           -3.10757135204442       -0.58213719833373        2.62999194130887
N           -2.14527915871864        0.02907535328164        1.71572844532809
C           -2.29872766095378        0.05707781520130        0.35339550225589
C           -3.52644933282373       -0.53144428435447       -0.33661701156500
C           -4.68384047623264        0.47572948918540       -0.26457519314688
C           -3.19075010447649       -0.80544787907576       -1.81263046694922
N           -3.93368057488989       -1.77968655622430        0.30672305990479
N           -1.42490915315633        0.62080710102502       -0.42011269003475
C           -0.27370815067577        1.18251320537325        0.05789731535382
C            0.63636442520928        1.98026928756479       -0.96552264963164
C            0.11889633844263        1.66955201773763       -2.41359386074160
O            0.64614329103486        3.25382578713085       -0.67933582823917
N            2.04963726373013        1.38682263783092       -0.87637496331393
C            2.11728293267563       -0.07515559975612       -0.95338576551237
C            3.51526692224717       -0.51521429384533       -0.59550028060207
C            4.56451427960213       -0.29935296881462       -1.48903847847495
C            5.86213650960374       -0.67070895916629       -1.16741450502620
C            6.08853263276144       -1.25547115226513        0.06564699179700
F            7.34630816629059       -1.62199827401428        0.38608691104387
C            5.07686425677877       -1.48351953875593        0.97929446386231
C            3.78497790943182       -1.10478468462823        0.63742566816325
C           -0.05092877496776        1.14302869801871        1.40736076124326
O            1.07711231017269        1.63402301565998        2.00218053793531
C           -0.99894713678080        0.54767898918183        2.30817547770018
O           -0.82061005027807        0.49835516752321        3.53481324784789
H           -2.92687418081318       -0.18649195372803        3.63021007878378
H           -2.97646285968333       -1.66370200140624        2.64032311038945
H           -4.12373167369994       -0.35059030671775        2.32673049234070
H           -5.53855463775310        0.09085673062520       -0.81889877349563
H           -4.99217914685189        0.64997220813045        0.76490395238868
H           -4.37918467406894        1.42492759595392       -0.70552026460399
H           -4.04600901515837       -1.27244747343428       -2.29740547801834
H           -2.95117860045569        0.12328798269366       -2.32988945848469
H           -2.33558558880319       -1.47638078609830       -1.88382416494039
H           -3.28757011021360       -2.51745826022874        0.05668231588577
H           -4.84354123941735       -2.04871662991408       -0.03855807107789
H            0.84053545315028        2.06320103939825       -3.12896067881332
H           -0.83218904814635        2.18237438181308       -2.55305606408133
H           -0.02625595469156        0.60527412403516       -2.59024155996473
H            2.39417003389589        1.66501625004132        0.04520384180520
H            1.89305209918627       -0.39197822190782       -1.97872470199289
H            1.39279650952046       -0.56439062687345       -0.28128917659864
H            4.36557173263924        0.16173103900607       -2.45075472411896
H            6.68237274217435       -0.51451569573170       -1.85572803367945
H            5.29541272981078       -1.94809946969408        1.93170205916282
H            2.97830970210767       -1.27974546584337        1.34058418224684
H            0.98845941528911        1.49403436440091        2.95991248636059

          :  Hamiltonian                  GFN1-xTB          :
         :: total energy             -80.198677938263 Eh    ::
         :: gradient norm              0.000766748032 Eh/a0 ::
         :: HOMO-LUMO gap              1.777911157134 eV    ::
         :: SCC energy               -81.051736827816 Eh    ::
         :: -> Gsolv                  -0.122194838402 Eh    ::
         :: repulsion energy           0.884551768892 Eh    ::

    * Orbital Energies and Occupations

         #    Occupation            Energy/Eh            Energy/eV
      -------------------------------------------------------------
         1        2.0000           -0.8526378             -23.2015
       ...           ...                  ...                  ...
        56        2.0000           -0.4597348             -12.5100
        57        2.0000           -0.4442324             -12.0882
        58        2.0000           -0.4380222             -11.9192
        59        2.0000           -0.4369766             -11.8907
        60        2.0000           -0.4276511             -11.6370
        61        2.0000           -0.4249203             -11.5627
        62        2.0000           -0.4179029             -11.3717
        63        2.0000           -0.4098149             -11.1516
        64        2.0000           -0.4005986             -10.9008
        65        2.0000           -0.3832058             -10.4276
        66        2.0000           -0.3636313              -9.8949
        67        2.0000           -0.3341810              -9.0935
        68        2.0000           -0.3279990              -8.9253 (HOMO)
        69                         -0.2626619              -7.1474 (LUMO)
        70                         -0.2599283              -7.0730
        71                         -0.2502031              -6.8084
        72                         -0.2383103              -6.4848
        73                         -0.1320398              -3.5930
        74                         -0.1306617              -3.5555
        75                         -0.1218968              -3.3170
        76                         -0.1146337              -3.1193
        77                         -0.1094239              -2.9776
        78                         -0.0984614              -2.6793
        79                         -0.0956520              -2.6028
       ...                                ...                  ...
       144                          0.6948171              18.9069
      -------------------------------------------------------------
                  HL-Gap            0.0653370 Eh            1.7779 eV

Wiberg/Mayer (AO) data.
largest (>0.10) Wiberg bond orders for each atom

     #   Z sym  total        # sym  WBO       # sym  WBO       # sym  WBO
 ---------------------------------------------------------------------------
     1   6 C    3.936 --    28 H    0.980    27 H    0.978    26 H    0.977
                             2 N    0.938
     2   7 N    3.498 --     3 C    1.175    24 C    1.111     1 C    0.938
                            25 O    0.120
     3   6 C    3.931 --     8 N    1.557     2 N    1.175     4 C    0.975
     4   6 C    3.966 --     6 C    0.990     5 C    0.985     7 N    0.981
                             3 C    0.975
     5   6 C    3.995 --    31 H    0.986     4 C    0.985    29 H    0.984
                            30 H    0.980
     6   6 C    3.995 --     4 C    0.990    32 H    0.986    34 H    0.985
                            33 H    0.983
     7   7 N    2.977 --     4 C    0.981    35 H    0.943    36 H    0.943
     8   7 N    3.036 --     3 C    1.557     9 C    1.205
     9   6 C    3.912 --    22 C    1.499     8 N    1.205    10 C    0.880
    10   6 C    3.934 --    12 O    1.206    11 C    0.942     9 C    0.880
                            13 N    0.853
    11   6 C    3.989 --    37 H    0.988    38 H    0.987    39 H    0.986
                            10 C    0.942
    12   8 O    1.494 --    10 C    1.206
    13   7 N    2.964 --    14 C    0.985    40 H    0.949    10 C    0.853
    14   6 C    3.988 --    15 C    1.005    13 N    0.985    41 H    0.971
                            42 H    0.968
    15   6 C    3.986 --    21 C    1.416    16 C    1.408    14 C    1.005
    16   6 C    3.993 --    17 C    1.448    15 C    1.408    43 H    0.973
                            20 C    0.110
    17   6 C    3.992 --    16 C    1.448    18 C    1.399    44 H    0.971
                            21 C    0.109
    18   6 C    3.854 --    20 C    1.406    17 C    1.399    19 F    0.913
    19   9 F    1.037 --    18 C    0.913
    20   6 C    3.992 --    21 C    1.439    18 C    1.406    45 H    0.971
                            16 C    0.110
    21   6 C    3.992 --    20 C    1.439    15 C    1.416    46 H    0.972
                            17 C    0.109
    22   6 C    3.910 --     9 C    1.499    24 C    1.144    23 O    1.034
    23   8 O    2.028 --    22 C    1.034    47 H    0.833
    24   6 C    3.913 --    25 O    1.490    22 C    1.144     2 N    1.111
    25   8 O    1.843 --    24 C    1.490     2 N    0.120
    26   1 H    1.014 --     1 C    0.977
    27   1 H    1.021 --     1 C    0.978
    28   1 H    1.024 --     1 C    0.980
    29   1 H    1.001 --     5 C    0.984
    30   1 H    1.006 --     5 C    0.980
    31   1 H    1.005 --     5 C    0.986
    32   1 H    1.005 --     6 C    0.986
    33   1 H    1.018 --     6 C    0.983
    34   1 H    1.010 --     6 C    0.985
    35   1 H    0.960 --     7 N    0.943
    36   1 H    0.957 --     7 N    0.943
    37   1 H    1.019 --    11 C    0.988
    38   1 H    1.025 --    11 C    0.987
    39   1 H    1.015 --    11 C    0.986
    40   1 H    1.000 --    13 N    0.949
    41   1 H    1.024 --    14 C    0.971
    42   1 H    1.013 --    14 C    0.968
    43   1 H    1.003 --    16 C    0.973
    44   1 H    1.000 --    17 C    0.971
    45   1 H    1.000 --    20 C    0.971
    46   1 H    1.003 --    21 C    0.972
    47   1 H    0.877 --    23 O    0.833
 ---------------------------------------------------------------------------

           -------------------------------------------------
          | TOTAL ENERGY              -80.198677938263 Eh   |
          | GRADIENT NORM               0.000766748032 Eh/α |
          | HOMO-LUMO GAP               1.777911157134 eV   |
           -------------------------------------------------

 * finished run on 2023/06/20 at 14:56:18.669
