   * xtb version 6.5.1 (579679a) compiled by 'ehlert@majestix' on 2022-07-11
          program call               : /lustre/hpc/kemi/ree/PhD/git/ReactivityQM/dep/xtb-6.5.1/bin/xtb --gfn 1 /lustre/hpc/kemi/ree/PhD/git/ReactivityQM/calculations/R03/reac02prodE09/conf09/R03_reac02prodE09_conf09_gfn1.xyz --opt --vfukui --chrg -1 --uhf 0 --alpb DMSO

   ID    Z sym.   atoms
    1    6 C      1, 3, 5, 7-10, 12, 14, 16, 17, 20, 22, 23, 25
    2    8 O      2, 4, 13, 15, 24, 26
    3    7 N      6, 11, 18, 19, 21
    4    1 H      27-46

      * Solvation model:               ALPB
        Solvent                        DMSO
        Solvent mass                       7.8130E+01 g/mol
          :  Hamiltonian                  GFN1-xTB          :
 * total energy  :   -87.0099346 Eh     change       -0.4237961E-09 Eh
 * total energy  :   -87.0215157 Eh     change       -0.1158109E-01 Eh
 * total energy  :   -87.0256332 Eh     change       -0.4117465E-02 Eh
 * total energy  :   -87.0265241 Eh     change       -0.8909159E-03 Eh
 * total energy  :   -87.0272583 Eh     change       -0.7342117E-03 Eh
 * total energy  :   -87.0277036 Eh     change       -0.4453184E-03 Eh
 * total energy  :   -87.0283880 Eh     change       -0.6843748E-03 Eh
 * total energy  :   -87.0293920 Eh     change       -0.1004002E-02 Eh
 * total energy  :   -87.0303651 Eh     change       -0.9730975E-03 Eh
 * total energy  :   -87.0315650 Eh     change       -0.1199900E-02 Eh
 * total energy  :   -87.0351394 Eh     change       -0.8841733E-05 Eh
 * total energy  :   -87.0351548 Eh     change       -0.1542126E-04 Eh
 * total energy  :   -87.0351633 Eh     change       -0.8499040E-05 Eh
 * total energy  :   -87.0351661 Eh     change       -0.2756192E-05 Eh
 * total energy  :   -87.0351860 Eh     change       -0.1989269E-04 Eh
 * total energy  :   -87.0351934 Eh     change       -0.7428467E-05 Eh
 * total energy  :   -87.0352014 Eh     change       -0.8003937E-05 Eh
 * total energy  :   -87.0352088 Eh     change       -0.7426129E-05 Eh
 * total energy  :   -87.0352126 Eh     change       -0.3742164E-05 Eh
   *** GEOMETRY OPTIMIZATION CONVERGED AFTER 42 ITERATIONS ***

 final structure:
================
46
 xtb: 6.5.1 (579679a)
C           -5.20288426965368       -4.22946730471886        0.12150695527697
O           -4.72889593609650       -2.91515475640319        0.42187075991666
C           -3.56123519461044       -2.56665079087627       -0.18307721603677
O           -2.97647200833829       -3.33692789905218       -0.92403875525097
C           -3.10560714887330       -1.21304322674096        0.14655082708701
N           -1.92331118182264       -0.87348218664341       -0.45970956982231
C           -1.36367941556077        0.27725355380824       -0.27359241616700
C           -0.09219964857898        0.54843992388595       -1.07925416025806
C           -0.42098362604375        1.60774840731751       -2.14538501619097
C            0.34061127566627       -0.75404199452220       -1.77638485434402
N            0.95175377321068        1.00872569581994       -0.15898169077301
C            2.28830005855841        1.17964871060130       -0.67721995157812
O            2.49356281433342        1.49367530296035       -1.88441196268303
C            3.27608128944574        0.96147000052527        0.25256944450126
O            3.05271877566825        0.68103482102720        1.61526689824812
C            4.27421522853095        0.72514588809093        2.17332114004464
C            4.40180667616829        0.44079738007780        3.62733831560488
N            5.24405644441628        1.01327184068997        1.39186092353749
N            4.67908841300499        1.26167479882898        0.10801420054719
C            5.37898956915094        0.47570878877501       -0.91511021003971
N           -1.92828271322047        1.21909376536799        0.55262295494613
C           -1.35736788086971        2.53660614476025        0.83702817482899
C           -3.16055685395803        1.00535864203754        1.18404196589260
O           -3.65677137484872        1.90000714075563        1.87386845358401
C           -3.74866371053677       -0.29277254493181        0.95923409420549
O           -4.93441375750135       -0.49339787916331        1.58417715136177
H           -6.12198686632691       -4.37239899645831        0.68480540034198
H           -5.40057175260655       -4.32399676357582       -0.94960690975016
H           -4.46085959612347       -4.97575996160265        0.41769075239362
H           -0.59660395102201        2.58099637036492       -1.69239355654649
H           -1.31719515788862        1.30663285941673       -2.68783324919292
H            0.40242590084784        1.69861127011060       -2.85156261739644
H            1.23932424893441       -0.57339881450021       -2.36389835976317
H           -0.44985264003648       -1.10515892541997       -2.43819463718004
H            0.54548515601444       -1.52647505382515       -1.03624070813646
H            0.97468095051310        0.42414245223258        0.67045877964773
H            5.44659397659050        0.49858442181847        3.92248394985429
H            3.82145892308794        1.16175304416275        4.20279207239291
H            4.01662597248490       -0.55466274255534        3.84655707874070
H            5.29488339165760       -0.59721556994225       -0.71827864741051
H            6.42810176041684        0.76739639616371       -0.91617539800127
H            4.92675267850360        0.71197628950997       -1.87784232199439
H           -1.93006547027745        3.30207177507434        0.31048073026293
H           -1.43380649118108        2.71928833130250        1.91005246785742
H           -0.31360808464167        2.57498374634390        0.53908740521939
H           -5.29164254660912       -1.37809135089512        1.40524231224957

          :  Hamiltonian                  GFN1-xTB          :
         :: total energy             -87.035212564126 Eh    ::
         :: gradient norm              0.000766582564 Eh/a0 ::
         :: HOMO-LUMO gap              0.092279888173 eV    ::
         :: SCC energy               -87.830391347465 Eh    ::
         :: -> Gsolv                  -0.109084320216 Eh    ::
         :: repulsion energy           0.823953631019 Eh    ::

    * Orbital Energies and Occupations

         #    Occupation            Energy/Eh            Energy/eV
      -------------------------------------------------------------
         1        2.0000           -0.8194379             -22.2980
       ...           ...                  ...                  ...
        59        2.0000           -0.4754111             -12.9366
        60        2.0000           -0.4668698             -12.7042
        61        2.0000           -0.4592165             -12.4959
        62        2.0000           -0.4460734             -12.1383
        63        2.0000           -0.4435440             -12.0694
        64        2.0000           -0.4346632             -11.8278
        65        2.0000           -0.4314868             -11.7414
        66        2.0000           -0.4185573             -11.3895
        67        2.0000           -0.4066856             -11.0665
        68        2.0000           -0.4012195             -10.9177
        69        2.0000           -0.4006005             -10.9009
        70        2.0000           -0.3826424             -10.4122
        71        1.7126           -0.3060114              -8.3270 (HOMO)
        72        0.2874           -0.3026202              -8.2347 (LUMO)
        73                         -0.2537219              -6.9041
        74                         -0.2253012              -6.1308
        75                         -0.2154396              -5.8624
        76                         -0.1499673              -4.0808
        77                         -0.1310391              -3.5658
        78                         -0.1287963              -3.5047
        79                         -0.1275652              -3.4712
        80                         -0.1216516              -3.3103
        81                         -0.1023824              -2.7860
        82                         -0.1015441              -2.7632
       ...                                ...                  ...
       144                          0.7172852              19.5183
      -------------------------------------------------------------
                  HL-Gap            0.0033912 Eh            0.0923 eV

Wiberg/Mayer (AO) data.
largest (>0.10) Wiberg bond orders for each atom

     #   Z sym  total        # sym  WBO       # sym  WBO       # sym  WBO
 ---------------------------------------------------------------------------
     1   6 C    3.878 --    27 H    0.987    28 H    0.981    29 H    0.980
                             2 O    0.902
     2   8 O    2.156 --     3 C    1.037     1 C    0.902     4 O    0.113
     3   6 C    3.777 --     4 O    1.610     5 C    1.063     2 O    1.037
     4   8 O    1.846 --     3 C    1.610     2 O    0.113
     5   6 C    3.886 --    25 C    1.403     6 N    1.174     3 C    1.063
     6   7 N    3.018 --     7 C    1.576     5 C    1.174
     7   6 C    3.905 --     6 N    1.576    21 N    1.159     8 C    0.972
     8   6 C    3.958 --    10 C    0.990     9 C    0.983     7 C    0.972
                            11 N    0.956
     9   6 C    3.992 --    31 H    0.988     8 C    0.983    30 H    0.983
                            32 H    0.976
    10   6 C    3.994 --     8 C    0.990    35 H    0.986    34 H    0.986
                            33 H    0.982
    11   7 N    3.102 --    12 C    0.976     8 C    0.956    36 H    0.932
    12   6 C    3.877 --    14 C    1.421    13 O    1.367    11 N    0.976
    13   8 O    1.683 --    12 C    1.367    14 C    0.126
    14   6 C    3.563 --    12 C    1.421    19 N    0.980    15 O    0.910
                            13 O    0.126
    15   8 O    2.180 --    16 C    1.068    14 C    0.910    18 N    0.114
    16   6 C    3.896 --    18 N    1.709    15 O    1.068    17 C    1.020
    17   6 C    3.993 --    16 C    1.020    37 H    0.986    39 H    0.970
                            38 H    0.970
    18   7 N    2.934 --    16 C    1.709    19 N    1.004    15 O    0.114
    19   7 N    3.076 --    18 N    1.004    14 C    0.980    20 C    0.951
    20   6 C    3.955 --    41 H    0.989    42 H    0.985    40 H    0.983
                            19 N    0.951
    21   7 N    3.436 --     7 C    1.159    23 C    1.085    22 C    0.937
                            24 O    0.121
    22   6 C    3.931 --    43 H    0.979    44 H    0.978    45 H    0.971
                            21 N    0.937
    23   6 C    3.874 --    24 O    1.525    25 C    1.131    21 N    1.085
    24   8 O    1.818 --    23 C    1.525    21 N    0.121
    25   6 C    3.813 --     5 C    1.403    23 C    1.131    26 O    1.064
    26   8 O    2.027 --    25 C    1.064    46 H    0.815
    27   1 H    1.012 --     1 C    0.987
    28   1 H    1.009 --     1 C    0.981
    29   1 H    1.010 --     1 C    0.980
    30   1 H    1.007 --     9 C    0.983
    31   1 H    1.006 --     9 C    0.988
    32   1 H    1.026 --     9 C    0.976
    33   1 H    1.015 --    10 C    0.982
    34   1 H    1.016 --    10 C    0.986
    35   1 H    1.011 --    10 C    0.986
    36   1 H    0.971 --    11 N    0.932
    37   1 H    1.003 --    17 C    0.986
    38   1 H    1.002 --    17 C    0.970
    39   1 H    1.002 --    17 C    0.970
    40   1 H    1.010 --    20 C    0.983
    41   1 H    1.019 --    20 C    0.989
    42   1 H    1.030 --    20 C    0.985
    43   1 H    1.006 --    22 C    0.979
    44   1 H    1.011 --    22 C    0.978
    45   1 H    1.027 --    22 C    0.971
    46   1 H    0.867 --    26 O    0.815
 ---------------------------------------------------------------------------

           -------------------------------------------------
          | TOTAL ENERGY              -87.035212564126 Eh   |
          | GRADIENT NORM               0.000766582564 Eh/α |
          | HOMO-LUMO GAP               0.092279888173 eV   |
           -------------------------------------------------

 * finished run on 2023/06/20 at 15:28:19.548
