   * xtb version 6.5.1 (579679a) compiled by 'ehlert@majestix' on 2022-07-11
          program call               : /lustre/hpc/kemi/ree/PhD/git/ReactivityQM/dep/xtb-6.5.1/bin/xtb --gfn 1 /lustre/hpc/kemi/ree/PhD/git/ReactivityQM/calculations/R02methylcation/reac01prodN02/conf16/R02methylcation_reac01prodN02_conf16_gfn1.xyz --opt --vfukui --chrg 0 --uhf 0 --alpb DMSO

   ID    Z sym.   atoms
    1    6 C      1, 3, 5, 7-10, 12, 14, 15, 18, 19, 22, 24
    2    8 O      2, 4, 13, 20, 23, 25
    3    7 N      6, 11, 16, 17, 21
    4    1 H      26-42

      * Solvation model:               ALPB
        Solvent                        DMSO
        Solvent mass                       7.8130E+01 g/mol
          :  Hamiltonian                  GFN1-xTB          :
 * total energy  :   -82.9418764 Eh     change       -0.2469847E-10 Eh
 * total energy  :   -82.9600273 Eh     change       -0.1815087E-01 Eh
 * total energy  :   -82.9678202 Eh     change       -0.7792912E-02 Eh
 * total energy  :   -82.9690482 Eh     change       -0.1228018E-02 Eh
 * total energy  :   -82.9698755 Eh     change       -0.8272608E-03 Eh
 * total energy  :   -82.9701919 Eh     change       -0.3164065E-03 Eh
 * total energy  :   -82.9704777 Eh     change       -0.2858270E-03 Eh
 * total energy  :   -82.9706956 Eh     change       -0.2179017E-03 Eh
 * total energy  :   -82.9708397 Eh     change       -0.1441203E-03 Eh
 * total energy  :   -82.9709593 Eh     change       -0.1195785E-03 Eh
 * total energy  :   -82.9715499 Eh     change       -0.1519434E-04 Eh
 * total energy  :   -82.9715638 Eh     change       -0.1393990E-04 Eh
 * total energy  :   -82.9715760 Eh     change       -0.1218488E-04 Eh
 * total energy  :   -82.9715880 Eh     change       -0.1198838E-04 Eh
 * total energy  :   -82.9715971 Eh     change       -0.9097946E-05 Eh
 * total energy  :   -82.9716039 Eh     change       -0.6851816E-05 Eh
 * total energy  :   -82.9716098 Eh     change       -0.5885790E-05 Eh
 * total energy  :   -82.9716154 Eh     change       -0.5540891E-05 Eh
 * total energy  :   -82.9716203 Eh     change       -0.4942865E-05 Eh
   *** GEOMETRY OPTIMIZATION CONVERGED AFTER 34 ITERATIONS ***

 final structure:
================
42
 xtb: 6.5.1 (579679a)
C            6.68840652462431        1.49217874509460        0.85654388149858
O            5.51641638767536        1.43741719271474        0.05245552768566
C            4.49954146748117        0.68947818983734        0.53738611119751
O            4.60459836286371        0.10044342350360        1.60524012304429
C            3.31207594655389        0.65627887951306       -0.31028163546439
N            2.30915177678048       -0.13438135356052        0.21188760841881
C            1.19865918497648       -0.27728399857485       -0.40623881040612
C            0.13051655078589       -1.19563014541008        0.14705598167889
C            0.01980278967020       -2.44185598285614       -0.74053882344585
C            0.45522681178946       -1.55579510844856        1.59769121166721
N           -1.15238645302680       -0.44775726138607        0.10251476223397
C           -2.32988159077101       -0.89939999174692        0.45261502582702
O           -2.43935650019708       -2.11195260780809        0.91482285077915
C           -3.69530231810751       -2.68787373460242        1.30321265304763
C           -3.45721882453056       -0.01123810703414        0.30230550552816
N           -4.71771044210206       -0.20457788928295        0.58539029736406
N           -5.37169569676820        0.92496414419753        0.25555601791722
C           -4.48373266019257        1.75866428844312       -0.21499328861389
C           -4.70942570994841        3.12816670201998       -0.71432891421792
O           -3.25697671572952        1.22288205154067       -0.20804666499714
N            0.94606093860380        0.33571884430584       -1.61918921962306
C            1.85223919471607        1.15616478804117       -2.25437660259904
O            1.55698084300104        1.66757259038001       -3.32708702531501
C            3.17708470833346        1.34756093290364       -1.54493336208420
O            4.03151314645857        2.07282116510173       -2.07757454479928
H            7.40388682239092        2.12612554403127        0.33384789532834
H            6.46182200638383        1.91818024145669        1.83871079801751
H            7.10902390096410        0.49128916867891        0.99403154759893
H            0.99728029142530       -2.91967651493882       -0.79509139211880
H           -0.29393489090305       -2.15916984728739       -1.74327204151844
H           -0.69493222138375       -3.15137985817266       -0.33266118995096
H            1.45622097896953       -1.98521137490250        1.63281439492079
H           -0.25790997501207       -2.27677658535079        1.98761062309593
H            0.43633685336636       -0.65890159470379        2.21463776076159
H           -1.12402178540264        0.50624685095420       -0.23573701388690
H           -4.13433473986008       -2.11274871990195        2.11969085879324
H           -3.46278542893339       -3.70061488442742        1.62679527322318
H           -4.37813703600410       -2.70132132161920        0.45259564891882
H           -5.76440630089256        3.37841721080404       -0.63278876525028
H           -4.39286099263501        3.19796474200967       -1.75537235160137
H           -4.11589204425368        3.83662979145870       -0.13594594590336
H            0.07005783883792        0.18837839501900       -2.08750176675684

          :  Hamiltonian                  GFN1-xTB          :
         :: total energy             -82.971620302776 Eh    ::
         :: gradient norm              0.000381075916 Eh/a0 ::
         :: HOMO-LUMO gap              0.213711422458 eV    ::
         :: SCC energy               -83.747751588679 Eh    ::
         :: -> Gsolv                  -0.104172603237 Eh    ::
         :: repulsion energy           0.801486532474 Eh    ::

    * Orbital Energies and Occupations

         #    Occupation            Energy/Eh            Energy/eV
      -------------------------------------------------------------
         1        2.0000           -0.8979093             -24.4334
       ...           ...                  ...                  ...
        55        2.0000           -0.5075836             -13.8121
        56        2.0000           -0.5028708             -13.6838
        57        2.0000           -0.4982108             -13.5570
        58        2.0000           -0.4919251             -13.3860
        59        2.0000           -0.4835599             -13.1583
        60        2.0000           -0.4797655             -13.0551
        61        2.0000           -0.4699165             -12.7871
        62        2.0000           -0.4670904             -12.7102
        63        2.0000           -0.4520927             -12.3021
        64        2.0000           -0.4437946             -12.0763
        65        2.0000           -0.4299585             -11.6998
        66        2.0000           -0.3889857             -10.5848
        67        1.9684           -0.3768525             -10.2547 (HOMO)
        68        0.0316           -0.3689988             -10.0410 (LUMO)
        69                         -0.2843549              -7.7377
        70                         -0.2790364              -7.5930
        71                         -0.2544761              -6.9246
        72                         -0.2494188              -6.7870
        73                         -0.2056859              -5.5970
        74                         -0.1585419              -4.3141
        75                         -0.1521785              -4.1410
        76                         -0.1363147              -3.7093
        77                         -0.1340200              -3.6469
        78                         -0.1238790              -3.3709
       ...                                ...                  ...
       134                          0.7545410              20.5321
      -------------------------------------------------------------
                  HL-Gap            0.0078538 Eh            0.2137 eV

Wiberg/Mayer (AO) data.
largest (>0.10) Wiberg bond orders for each atom

     #   Z sym  total        # sym  WBO       # sym  WBO       # sym  WBO
 ---------------------------------------------------------------------------
     1   6 C    3.895 --    26 H    0.987    27 H    0.980    28 H    0.980
                             2 O    0.920
     2   8 O    2.168 --     3 C    1.060     1 C    0.920     4 O    0.113
     3   6 C    3.850 --     4 O    1.584     5 C    1.099     2 O    1.060
     4   8 O    1.855 --     3 C    1.584     2 O    0.113
     5   6 C    3.895 --    24 C    1.260     6 N    1.165     3 C    1.099
                            25 O    0.124
     6   7 N    3.036 --     7 C    1.628     5 C    1.165
     7   6 C    3.924 --     6 N    1.628    21 N    1.089     8 C    0.978
     8   6 C    3.893 --    10 C    0.989     9 C    0.979     7 C    0.978
                            11 N    0.875
     9   6 C    3.981 --    30 H    0.983    29 H    0.982    31 H    0.981
                             8 C    0.979
    10   6 C    3.983 --     8 C    0.989    33 H    0.984    34 H    0.984
                            32 H    0.979
    11   7 N    3.471 --    12 C    1.454     8 C    0.875    35 H    0.874
                            13 O    0.108
    12   6 C    3.879 --    11 N    1.454    13 O    1.188    15 C    1.090
    13   8 O    2.270 --    12 C    1.188    14 C    0.864    11 N    0.108
    14   6 C    3.831 --    37 H    0.980    36 H    0.974    38 H    0.974
                            13 O    0.864
    15   6 C    3.881 --    16 N    1.542    12 C    1.090    20 O    1.046
    16   7 N    3.014 --    15 C    1.542    17 N    1.248
    17   7 N    2.986 --    18 C    1.553    16 N    1.248
    18   6 C    3.847 --    17 N    1.553    20 O    1.086    19 C    1.039
    19   6 C    3.979 --    18 C    1.039    39 H    0.980    41 H    0.956
                            40 H    0.955
    20   8 O    2.329 --    18 C    1.086    15 C    1.046
    21   7 N    3.411 --    22 C    1.142     7 C    1.089    42 H    0.896
                            23 O    0.133
    22   6 C    3.871 --    23 O    1.599    21 N    1.142    24 C    0.962
    23   8 O    1.875 --    22 C    1.599    21 N    0.133
    24   6 C    3.937 --    25 O    1.537     5 C    1.260    22 C    0.962
    25   8 O    1.832 --    24 C    1.537     5 C    0.124
    26   1 H    1.015 --     1 C    0.987
    27   1 H    1.013 --     1 C    0.980
    28   1 H    1.013 --     1 C    0.980
    29   1 H    1.000 --     9 C    0.982
    30   1 H    0.999 --     9 C    0.983
    31   1 H    1.003 --     9 C    0.981
    32   1 H    1.012 --    10 C    0.979
    33   1 H    1.004 --    10 C    0.984
    34   1 H    1.004 --    10 C    0.984
    35   1 H    0.925 --    11 N    0.874
    36   1 H    1.009 --    14 C    0.974
    37   1 H    1.003 --    14 C    0.980
    38   1 H    1.008 --    14 C    0.974
    39   1 H    0.995 --    19 C    0.980
    40   1 H    0.992 --    19 C    0.955
    41   1 H    0.992 --    19 C    0.956
    42   1 H    0.940 --    21 N    0.896
 ---------------------------------------------------------------------------

           -------------------------------------------------
          | TOTAL ENERGY              -82.971620302776 Eh   |
          | GRADIENT NORM               0.000381075916 Eh/α |
          | HOMO-LUMO GAP               0.213711422458 eV   |
           -------------------------------------------------

 * finished run on 2023/06/21 at 17:31:18.115
