   * xtb version 6.5.1 (579679a) compiled by 'ehlert@majestix' on 2022-07-11
          program call               : /lustre/hpc/kemi/ree/PhD/git/ReactivityQM/dep/xtb-6.5.1/bin/xtb --gfn 1 /lustre/hpc/kemi/ree/PhD/git/ReactivityQM/calculations/RaltegravirCLI/reac02prodE03/conf13/RaltegravirCLI_reac02prodE03_conf13_gfn1.xyz --opt --vfukui --chrg -1 --uhf 0 --alpb DMSO

   ID    Z sym.   atoms
    1    6 C      1, 3, 5, 7, 8, 11-15, 17, 18, 20-24
    2    7 N      2, 10, 19, 25
    3    8 O      4, 6, 9
    4    9 F      16
    5    1 H      26-47

      * Solvation model:               ALPB
        Solvent                        DMSO
        Solvent mass                       7.8130E+01 g/mol
          :  Hamiltonian                  GFN1-xTB          :
 * total energy  :   -80.1251193 Eh     change       -0.7251799E-10 Eh
 * total energy  :   -80.1355951 Eh     change       -0.1047583E-01 Eh
 * total energy  :   -80.1395564 Eh     change       -0.3961238E-02 Eh
 * total energy  :   -80.1414487 Eh     change       -0.1892331E-02 Eh
 * total energy  :   -80.1430214 Eh     change       -0.1572646E-02 Eh
 * total energy  :   -80.1440887 Eh     change       -0.1067372E-02 Eh
 * total energy  :   -80.1456829 Eh     change       -0.1594141E-02 Eh
 * total energy  :   -80.1472368 Eh     change       -0.1553951E-02 Eh
 * total energy  :   -80.1490408 Eh     change       -0.1804001E-02 Eh
 * total energy  :   -80.1506410 Eh     change       -0.1600195E-02 Eh
 * total energy  :   -80.1639692 Eh     change       -0.2183247E-04 Eh
 * total energy  :   -80.1639878 Eh     change       -0.1855544E-04 Eh
 * total energy  :   -80.1639913 Eh     change       -0.3499271E-05 Eh
 * total energy  :   -80.1640067 Eh     change       -0.1535718E-04 Eh
 * total energy  :   -80.1640230 Eh     change       -0.1637526E-04 Eh
 * total energy  :   -80.1640385 Eh     change       -0.1543621E-04 Eh
 * total energy  :   -80.1640603 Eh     change       -0.2177994E-04 Eh
 * total energy  :   -80.1640680 Eh     change       -0.7781998E-05 Eh
 * total energy  :   -80.1640730 Eh     change       -0.4919030E-05 Eh
   *** GEOMETRY OPTIMIZATION CONVERGED AFTER 68 ITERATIONS ***

 final structure:
================
47
 xtb: 6.5.1 (579679a)
C           -4.04316849644038       -1.47654274443110       -1.23075790158124
N           -2.67920689305938       -1.06674674910521       -0.91205596373117
C           -1.73567446377694       -1.48508086259703       -1.82906631367827
O           -2.04796067601021       -2.24376457826660       -2.80199926886288
C           -0.46712683520734       -0.86155744463632       -1.68901337776269
O            0.32127661590903       -0.87268586700958       -2.82109437202254
C           -0.14504214961980       -0.14949003872849       -0.53604381576089
C            0.89591908511340        0.81911753598907       -0.33242630001553
O            1.00989368387807        1.51167769155805        0.69752044547755
N            1.79508898707435        0.99839847091719       -1.38436395499047
C            3.05684508160632        1.66818847716022       -1.09691646740257
C            4.02413876389363        0.72263679355501       -0.41469676877235
C            3.99958472881925        0.56533050764128        0.97035771208648
C            4.85416308535909       -0.33012239747562        1.59740398192149
C            5.72507548965649       -1.06433025874004        0.81310305512569
F            6.55663249752352       -1.93815417014935        1.41367951540495
C            5.77921835354851       -0.93591737536729       -0.56224329370642
C            4.91769962061514       -0.03305896982399       -1.17121414751462
N           -0.97357765308656       -0.45334649366200        0.61878641413072
C           -0.64712376864394       -1.77446684822785        1.19924301179355
C           -2.35670450983413       -0.37007662476403        0.23252549944151
C           -3.13911101477850        0.84797116238080        0.70137945548504
C           -3.77836377170360        1.62774988522447       -0.46775826165954
C           -2.21200338197623        1.79940897628797        1.47538115794812
N           -4.18999497434375        0.43402392858673        1.65688127013119
H           -4.71837914135366       -1.22353360286038       -0.41922352895616
H           -4.37594076761749       -0.99804994066930       -2.15408418068898
H           -4.05486069615342       -2.55903600889174       -1.38371906971673
H           -0.14471890433370       -1.43146947342402       -3.47038160880159
H            1.88487606993285        0.23307436043036       -2.03905415447822
H            2.85290168356769        2.53360243746654       -0.45751425044200
H            3.47880058597666        2.02029675952877       -2.04273692846700
H            3.30419912302006        1.14871090574601        1.56477554176648
H            4.84844910362418       -0.45927384978348        2.67207915988482
H            6.47906476042529       -1.52530278497755       -1.13955150190366
H            4.94971703108308        0.08583842002211       -2.24815859593417
H           -1.30357773557611       -1.94460958319124        2.05395661406635
H           -0.78017885097315       -2.59018079675920        0.47638671460848
H            0.39112577033055       -1.76472251393800        1.53506774898242
H           -3.02531513106224        1.85755310400005       -1.22248007706899
H           -4.20422332523758        2.56187857618644       -0.10139012008340
H           -4.57819503589336        1.05518092615041       -0.93131630017745
H           -1.75405589949096        1.27631084499080        2.31533507703071
H           -1.42060947670521        2.18086166215496        0.83060006262205
H           -2.78900126973242        2.64115224287363        1.85974773994250
H           -4.78244788652123       -0.26847988764490        1.23460388655887
H           -4.77810441182658        1.23103619626976        1.86128445978534

          :  Hamiltonian                  GFN1-xTB          :
         :: total energy             -80.164072951588 Eh    ::
         :: gradient norm              0.000483839844 Eh/a0 ::
         :: HOMO-LUMO gap              0.925347152406 eV    ::
         :: SCC energy               -81.008477263542 Eh    ::
         :: -> Gsolv                  -0.101791204233 Eh    ::
         :: repulsion energy           0.876609939960 Eh    ::

    * Orbital Energies and Occupations

         #    Occupation            Energy/Eh            Energy/eV
      -------------------------------------------------------------
         1        2.0000           -0.8548908             -23.2628
       ...           ...                  ...                  ...
        56        2.0000           -0.4606549             -12.5351
        57        2.0000           -0.4521822             -12.3045
        58        2.0000           -0.4489465             -12.2165
        59        2.0000           -0.4400855             -11.9753
        60        2.0000           -0.4272912             -11.6272
        61        2.0000           -0.4109566             -11.1827
        62        2.0000           -0.4078802             -11.0990
        63        2.0000           -0.3969357             -10.8012
        64        2.0000           -0.3875927             -10.5469
        65        2.0000           -0.3862981             -10.5117
        66        2.0000           -0.3703085             -10.0766
        67        2.0000           -0.3605123              -9.8100
        68        2.0000           -0.2960756              -8.0566 (HOMO)
        69                         -0.2620698              -7.1313 (LUMO)
        70                         -0.2584366              -7.0324
        71                         -0.2534455              -6.8966
        72                         -0.1758886              -4.7862
        73                         -0.1339858              -3.6459
        74                         -0.1220458              -3.3210
        75                         -0.1175785              -3.1995
        76                         -0.1044148              -2.8413
        77                         -0.1025288              -2.7900
        78                         -0.0973369              -2.6487
        79                         -0.0936419              -2.5481
       ...                                ...                  ...
       144                          0.6836441              18.6029
      -------------------------------------------------------------
                  HL-Gap            0.0340059 Eh            0.9253 eV

Wiberg/Mayer (AO) data.
largest (>0.10) Wiberg bond orders for each atom

     #   Z sym  total        # sym  WBO       # sym  WBO       # sym  WBO
 ---------------------------------------------------------------------------
     1   6 C    3.958 --    26 H    0.982    27 H    0.981    28 H    0.976
                             2 N    0.950
     2   7 N    3.489 --    21 C    1.155     3 C    1.131     1 C    0.950
                             4 O    0.123
     3   6 C    3.924 --     4 O    1.339     5 C    1.205     2 N    1.131
                            21 C    0.125
     4   8 O    1.709 --     3 C    1.339     2 N    0.123
     5   6 C    3.892 --     7 C    1.385     3 C    1.205     6 O    1.003
                            21 C    0.130
     6   8 O    2.005 --     5 C    1.003    29 H    0.829
     7   6 C    3.917 --     5 C    1.385     8 C    1.178    19 N    0.960
                            21 C    0.125
     8   6 C    3.908 --     9 O    1.477     7 C    1.178    10 N    1.105
     9   8 O    1.817 --     8 C    1.477    10 N    0.106
    10   7 N    3.210 --     8 C    1.105    11 C    0.960    30 H    0.910
                             9 O    0.106
    11   6 C    3.968 --    12 C    0.994    32 H    0.979    31 H    0.973
                            10 N    0.960
    12   6 C    3.985 --    18 C    1.418    13 C    1.413    11 C    0.994
    13   6 C    3.991 --    14 C    1.445    12 C    1.413    33 H    0.968
                            17 C    0.111
    14   6 C    3.992 --    13 C    1.445    15 C    1.400    34 H    0.971
                            18 C    0.109
    15   6 C    3.856 --    17 C    1.404    14 C    1.400    16 F    0.915
    16   9 F    1.040 --    15 C    0.915
    17   6 C    3.992 --    18 C    1.440    15 C    1.404    35 H    0.970
                            13 C    0.111
    18   6 C    3.994 --    17 C    1.440    12 C    1.418    36 H    0.972
                            14 C    0.109
    19   7 N    3.048 --    21 C    0.979    20 C    0.964     7 C    0.960
    20   6 C    3.987 --    37 H    0.989    39 H    0.988    38 H    0.982
                            19 N    0.964
    21   6 C    3.788 --     2 N    1.155    22 C    0.985    19 N    0.979
                             5 C    0.130     3 C    0.125     7 C    0.125
    22   6 C    3.961 --    24 C    0.997    21 C    0.985    23 C    0.981
                            25 N    0.960
    23   6 C    3.994 --    40 H    0.986    41 H    0.985    42 H    0.983
                            22 C    0.981
    24   6 C    3.996 --    22 C    0.997    45 H    0.987    43 H    0.985
                            44 H    0.984
    25   7 N    2.945 --    22 C    0.960    47 H    0.953    46 H    0.947
    26   1 H    1.013 --     1 C    0.982
    27   1 H    1.013 --     1 C    0.981
    28   1 H    1.018 --     1 C    0.976
    29   1 H    0.883 --     6 O    0.829
    30   1 H    0.969 --    10 N    0.910
    31   1 H    1.019 --    11 C    0.973
    32   1 H    1.009 --    11 C    0.979
    33   1 H    1.018 --    13 C    0.968
    34   1 H    1.000 --    14 C    0.971
    35   1 H    0.999 --    17 C    0.970
    36   1 H    1.001 --    18 C    0.972
    37   1 H    1.027 --    20 C    0.989
    38   1 H    1.010 --    20 C    0.982
    39   1 H    1.020 --    20 C    0.988
    40   1 H    1.009 --    23 C    0.986
    41   1 H    1.006 --    23 C    0.985
    42   1 H    1.009 --    23 C    0.983
    43   1 H    1.027 --    24 C    0.985
    44   1 H    1.024 --    24 C    0.984
    45   1 H    1.006 --    24 C    0.987
    46   1 H    0.981 --    25 N    0.947
    47   1 H    0.968 --    25 N    0.953
 ---------------------------------------------------------------------------

           -------------------------------------------------
          | TOTAL ENERGY              -80.164072951588 Eh   |
          | GRADIENT NORM               0.000483839844 Eh/α |
          | HOMO-LUMO GAP               0.925347152406 eV   |
           -------------------------------------------------

 * finished run on 2023/06/20 at 14:59:26.774
