   * xtb version 6.5.1 (579679a) compiled by 'ehlert@majestix' on 2022-07-11
          program call               : /lustre/hpc/kemi/ree/PhD/git/ReactivityQM/dep/xtb-6.5.1/bin/xtb --gfn 1 /lustre/hpc/kemi/ree/PhD/git/ReactivityQM/calculations/R02deprot/reac01prodE07/conf11/R02deprot_reac01prodE07_conf11_gfn1.xyz --opt --vfukui --chrg -2 --uhf 0 --alpb DMSO

   ID    Z sym.   atoms
    1    6 C      1, 3, 5, 7-10, 12, 14, 15, 18, 19, 22, 24
    2    8 O      2, 4, 13, 20, 23, 25
    3    7 N      6, 11, 16, 17, 21
    4    1 H      26-42

      * Solvation model:               ALPB
        Solvent                        DMSO
        Solvent mass                       7.8130E+01 g/mol
          :  Hamiltonian                  GFN1-xTB          :
 * total energy  :   -83.5645145 Eh     change       -0.3396678E-09 Eh
 * total energy  :   -83.5791896 Eh     change       -0.1467509E-01 Eh
 * total energy  :   -83.5857145 Eh     change       -0.6524883E-02 Eh
 * total energy  :   -83.5873287 Eh     change       -0.1614199E-02 Eh
 * total energy  :   -83.5885369 Eh     change       -0.1208183E-02 Eh
 * total energy  :   -83.5890566 Eh     change       -0.5197612E-03 Eh
 * total energy  :   -83.5894282 Eh     change       -0.3715589E-03 Eh
 * total energy  :   -83.5897407 Eh     change       -0.3125425E-03 Eh
 * total energy  :   -83.5900366 Eh     change       -0.2958987E-03 Eh
 * total energy  :   -83.5903638 Eh     change       -0.3271951E-03 Eh
 * total energy  :   -83.5976322 Eh     change       -0.1543718E-04 Eh
 * total energy  :   -83.5976286 Eh     change        0.3607148E-05 Eh
 * total energy  :   -83.5976573 Eh     change       -0.2866358E-04 Eh
 * total energy  :   -83.5976748 Eh     change       -0.1752627E-04 Eh
 * total energy  :   -83.5976833 Eh     change       -0.8501236E-05 Eh
 * total energy  :   -83.5976987 Eh     change       -0.1536675E-04 Eh
 * total energy  :   -83.5977054 Eh     change       -0.6730463E-05 Eh
 * total energy  :   -83.5977132 Eh     change       -0.7799539E-05 Eh
 * total energy  :   -83.5977161 Eh     change       -0.2930963E-05 Eh
   *** GEOMETRY OPTIMIZATION CONVERGED AFTER 74 ITERATIONS ***

 final structure:
================
42
 xtb: 6.5.1 (579679a)
C           -5.17415437261376        3.15203152372467        0.73696376642909
O           -4.64199879722420        1.84691234481907        0.95964821910324
C           -3.46920819053773        1.57698500067600        0.32874532840914
O           -2.93094927917686        2.41556459736434       -0.36690566707453
C           -2.95076849060959        0.21741555265983        0.57119558538871
N           -1.75077354273879       -0.01620293881498       -0.04029242977237
C           -1.21359849663406       -1.21286160423805        0.09590970740737
C            0.13402488093807       -1.44522926370069       -0.58336156596025
C            0.20071310917552       -0.64080297010751       -1.89234684472824
C            0.32452330141779       -2.93924163348313       -0.86776861804854
N            1.17953177488903       -0.99378867160237        0.37070014585559
C            2.53104471679053       -1.07824424201101       -0.15513123818384
O            3.18263295881524       -2.30786225760486        0.09459022724204
C            3.84028348097992       -2.40343314518527        1.34976297274887
C            3.29218415553425        0.05366408150783       -0.32636719126880
N            4.63012960706069        0.14126739974693       -0.52521915477460
N            4.89035935628836        1.47824347683963       -0.76404176052809
C            3.77634653297588        2.11674996243370       -0.71166442522955
C            3.56300192346969        3.57820078535388       -0.89269257800678
O            2.69953166929502        1.30398045949333       -0.44502609629015
N           -1.72235443289940       -2.22942479103701        0.78894487318824
C           -2.90621015563561       -2.08661154109262        1.43769832616263
O           -3.41343691355795       -3.01454116424069        2.09938023986418
C           -3.55853671547077       -0.77332837969727        1.31192735058596
O           -4.75160722298761       -0.65606447001762        1.95817295093401
H           -6.06640414018557        3.24189039618369        1.35181390631227
H           -4.44446959208901        3.91436874427107        1.02255590560573
H           -5.43296239656338        3.28093482627706       -0.31728158251791
H            0.05206626598637        0.41938063708076       -1.68619429743754
H            1.17373802899462       -0.77704803241987       -2.36649741703319
H           -0.57775236038839       -0.97492676472469       -2.57870338743333
H            1.25910873969346       -3.11186261991224       -1.40144651649470
H            0.34677669045807       -3.49639161794417        0.06985894913036
H           -0.50078961712413       -3.31215778009601       -1.47502751895335
H            0.98450584806597       -0.01457454909715        0.58622813929786
H            3.14612692776611       -2.23157694330645        2.18531035728155
H            4.25151419087929       -3.41305776379013        1.43373640764916
H            4.66423801245271       -1.67784849551495        1.42159332493738
H            3.02811999416986        3.99692888681968       -0.03879928290080
H            2.97693441118590        3.78240634611548       -1.79084472741177
H            4.52844666970801        4.07217430652997       -0.98419037144800
H           -5.14990553054605        0.21798131174882        1.84031298796779

          :  Hamiltonian                  GFN1-xTB          :
         :: total energy             -83.597716127085 Eh    ::
         :: gradient norm              0.000648702846 Eh/a0 ::
         :: HOMO-LUMO gap              0.245818469714 eV    ::
         :: SCC energy               -84.321595694091 Eh    ::
         :: -> Gsolv                  -0.272742606180 Eh    ::
         :: repulsion energy           0.749429406423 Eh    ::

    * Orbital Energies and Occupations

         #    Occupation            Energy/Eh            Energy/eV
      -------------------------------------------------------------
         1        2.0000           -0.8105682             -22.0567
       ...           ...                  ...                  ...
        56        2.0000           -0.4366051             -11.8806
        57        2.0000           -0.4152580             -11.2997
        58        2.0000           -0.4131395             -11.2421
        59        2.0000           -0.4066434             -11.0653
        60        2.0000           -0.4014027             -10.9227
        61        2.0000           -0.3929326             -10.6922
        62        2.0000           -0.3846806             -10.4677
        63        2.0000           -0.3788573             -10.3092
        64        2.0000           -0.3653882              -9.9427
        65        2.0000           -0.3574554              -9.7269
        66        2.0000           -0.3535451              -9.6205
        67        2.0000           -0.3532989              -9.6138
        68        1.9829           -0.2759044              -7.5077 (HOMO)
        69        0.0171           -0.2668708              -7.2619 (LUMO)
        70                         -0.2082758              -5.6675
        71                         -0.1797476              -4.8912
        72                         -0.1769792              -4.8159
        73                         -0.1366961              -3.7197
        74                         -0.1225502              -3.3348
        75                         -0.1116830              -3.0390
        76                         -0.1022715              -2.7829
        77                         -0.0905668              -2.4644
        78                         -0.0856108              -2.3296
        79                         -0.0819185              -2.2291
       ...                                ...                  ...
       134                          0.7427800              20.2121
      -------------------------------------------------------------
                  HL-Gap            0.0090337 Eh            0.2458 eV

Wiberg/Mayer (AO) data.
largest (>0.10) Wiberg bond orders for each atom

     #   Z sym  total        # sym  WBO       # sym  WBO       # sym  WBO
 ---------------------------------------------------------------------------
     1   6 C    3.883 --    26 H    0.987    28 H    0.981    27 H    0.980
                             2 O    0.906
     2   8 O    2.174 --     3 C    1.044     1 C    0.906     4 O    0.116
     3   6 C    3.820 --     4 O    1.638     2 O    1.044     5 C    1.042
     4   8 O    1.898 --     3 C    1.638     2 O    0.116
     5   6 C    3.960 --    24 C    1.459     6 N    1.212     3 C    1.042
     6   7 N    2.991 --     7 C    1.448     5 C    1.212
     7   6 C    3.948 --     6 N    1.448    21 N    1.369     8 C    0.973
     8   6 C    3.970 --    10 C    0.999     9 C    0.989     7 C    0.973
                            11 N    0.946
     9   6 C    3.996 --     8 C    0.989    31 H    0.987    30 H    0.984
                            29 H    0.983
    10   6 C    3.997 --     8 C    0.999    34 H    0.988    32 H    0.985
                            33 H    0.984
    11   7 N    3.013 --    12 C    0.962    35 H    0.947     8 C    0.946
    12   6 C    3.668 --    15 C    1.458    11 N    0.962    13 O    0.917
                            16 N    0.144
    13   8 O    1.995 --    14 C    0.951    12 C    0.917
    14   6 C    3.939 --    37 H    0.986    36 H    0.982    38 H    0.980
                            13 O    0.951
    15   6 C    3.861 --    12 C    1.458    16 N    1.294    20 O    0.960
    16   7 N    2.802 --    15 C    1.294    17 N    1.150    12 C    0.144
                            18 C    0.114
    17   7 N    2.985 --    18 C    1.674    16 N    1.150
    18   6 C    3.883 --    17 N    1.674    19 C    1.018    20 O    0.996
                            16 N    0.114
    19   6 C    3.996 --    18 C    1.018    41 H    0.987    39 H    0.977
                            40 H    0.974
    20   8 O    2.185 --    18 C    0.996    15 C    0.960
    21   7 N    2.974 --     7 C    1.369    22 C    1.245    23 O    0.125
    22   6 C    3.931 --    23 O    1.475    21 N    1.245    24 C    1.079
    23   8 O    1.760 --    22 C    1.475    21 N    0.125
    24   6 C    3.888 --     5 C    1.459    22 C    1.079    25 O    1.047
    25   8 O    2.033 --    24 C    1.047    42 H    0.829
    26   1 H    1.013 --     1 C    0.987
    27   1 H    1.012 --     1 C    0.980
    28   1 H    1.011 --     1 C    0.981
    29   1 H    1.025 --     9 C    0.983
    30   1 H    1.021 --     9 C    0.984
    31   1 H    1.009 --     9 C    0.987
    32   1 H    1.018 --    10 C    0.985
    33   1 H    1.030 --    10 C    0.984
    34   1 H    1.013 --    10 C    0.988
    35   1 H    0.988 --    11 N    0.947
    36   1 H    1.020 --    14 C    0.982
    37   1 H    1.023 --    14 C    0.986
    38   1 H    1.032 --    14 C    0.980
    39   1 H    1.007 --    19 C    0.977
    40   1 H    1.007 --    19 C    0.974
    41   1 H    1.008 --    19 C    0.987
    42   1 H    0.880 --    25 O    0.829
 ---------------------------------------------------------------------------

           -------------------------------------------------
          | TOTAL ENERGY              -83.597716127085 Eh   |
          | GRADIENT NORM               0.000648702846 Eh/α |
          | HOMO-LUMO GAP               0.245818469714 eV   |
           -------------------------------------------------

 * finished run on 2023/06/20 at 17:49:09.386
