   * xtb version 6.5.1 (579679a) compiled by 'ehlert@majestix' on 2022-07-11
          program call               : /lustre/hpc/kemi/ree/PhD/git/ReactivityQM/dep/xtb-6.5.1/bin/xtb --gfn 1 /lustre/hpc/kemi/ree/PhD/git/ReactivityQM/calculations/R02/reac01prodN10/conf14/R02_reac01prodN10_conf14_gfn1.xyz --opt --vfukui --chrg 1 --uhf 0 --alpb DMSO

   ID    Z sym.   atoms
    1    6 C      1, 3, 5, 6, 8, 11-15, 17, 19, 22, 23
    2    8 O      2, 4, 7, 9, 18, 24
    3    7 N      10, 16, 20, 21, 25
    4    1 H      26-43

      * Solvation model:               ALPB
        Solvent                        DMSO
        Solvent mass                       7.8130E+01 g/mol
          :  Hamiltonian                  GFN1-xTB          :
 * total energy  :   -83.0869494 Eh     change       -0.7261747E-11 Eh
 * total energy  :   -83.1056118 Eh     change       -0.1866239E-01 Eh
 * total energy  :   -83.1136564 Eh     change       -0.8044555E-02 Eh
 * total energy  :   -83.1149937 Eh     change       -0.1337365E-02 Eh
 * total energy  :   -83.1157188 Eh     change       -0.7250764E-03 Eh
 * total energy  :   -83.1159512 Eh     change       -0.2323339E-03 Eh
 * total energy  :   -83.1161078 Eh     change       -0.1566801E-03 Eh
 * total energy  :   -83.1162011 Eh     change       -0.9330880E-04 Eh
 * total energy  :   -83.1162860 Eh     change       -0.8482836E-04 Eh
 * total energy  :   -83.1163794 Eh     change       -0.9338746E-04 Eh
 * total energy  :   -83.1491354 Eh     change       -0.9234584E-05 Eh
 * total energy  :   -83.1491482 Eh     change       -0.1282612E-04 Eh
 * total energy  :   -83.1491639 Eh     change       -0.1569538E-04 Eh
 * total energy  :   -83.1491794 Eh     change       -0.1548472E-04 Eh
 * total energy  :   -83.1491937 Eh     change       -0.1429086E-04 Eh
 * total energy  :   -83.1492063 Eh     change       -0.1256470E-04 Eh
 * total energy  :   -83.1492159 Eh     change       -0.9653602E-05 Eh
 * total energy  :   -83.1492219 Eh     change       -0.5965644E-05 Eh
 * total energy  :   -83.1492256 Eh     change       -0.3704844E-05 Eh
   *** GEOMETRY OPTIMIZATION CONVERGED AFTER 119 ITERATIONS ***

 final structure:
================
43
 xtb: 6.5.1 (579679a)
C            4.20000030392629        2.28593423670467       -2.25249148717806
O            3.53362147741564        1.22466108475295       -1.54763593395643
C            2.60730233672601        1.57409886377020       -0.68897240799344
O            2.28721161640487        2.71331175230466       -0.43609665775883
C            1.94702274892839        0.39533365949441       -0.02955164483926
C            0.90644294017964        0.59028182880666        1.04365182464693
O            0.54315567572497        1.84087147628060        1.39784383299834
C            1.29977131717153       -0.30450423467463        2.24847826204993
O            1.37080154750384        0.07774997705850        3.38798514617678
N            1.56268302335450       -1.53705088332838        1.78860470926246
C            1.43204797316512       -1.79916858062140        0.36992738783997
C            1.95976530535724       -3.18680832351758        0.04779988145516
C           -0.06170849337116       -1.55753467617371       -0.00664219932387
C           -1.00800436935759       -2.45803141557776        0.78122902722287
C           -0.28438626529580       -1.71161648339472       -1.50688037847374
N           -0.35086121631362       -0.13651659279443        0.45530635339465
C           -0.92105460811484        0.77911706980402       -0.60972771406936
O           -0.22853289965680        1.16464815010233       -1.49457705396393
C           -2.29801986598603        1.05071342900975       -0.30491521819072
N           -2.94398332939145        0.60181663108650        0.74571997522440
N           -4.18848815624688        1.07863005255985        0.67247321524779
C           -4.25742839140491        1.80192486679220       -0.42412819664755
C           -5.42527823267584        2.53425806361270       -0.94429011940475
O           -3.09478319984480        1.81544921762546       -1.07069107309398
N            2.19919945361699       -0.80282790132594       -0.36536401569646
H            3.47006715589345        2.85334485509748       -2.83225338587012
H            4.69469027059937        2.94702777181652       -1.53859470382521
H            4.92654082502179        1.80944401038801       -2.90657095515182
H            0.91352935424294        2.51975214429032        0.78922056765976
H            1.85065333020539       -2.27069279252275        2.41334883133120
H            1.92191942395728       -3.35719451422290       -1.02574634700999
H            1.37630893965299       -3.94923279158292        0.55778757060688
H            2.99630380246979       -3.25294769882642        0.37452937714823
H           -2.03755951832356       -2.15319357074537        0.59787213233796
H           -0.89036031627499       -3.49046660705878        0.45832493685410
H           -0.80013668424690       -2.39537135655478        1.84795489252530
H            0.42514747222373       -1.11238825428031       -2.07459470643123
H           -1.29972079436330       -1.42128903705032       -1.77062486260935
H           -0.15141839747974       -2.75954744605420       -1.76977324713444
H           -1.04781168931012       -0.16169515194645        1.20938738638571
H           -5.17864999578999        3.59103223362907       -1.05282922807778
H           -5.68784890573001        2.15162713331254       -1.93155772966665
H           -6.26814796459275        2.41705080394444       -0.26722604400187

          :  Hamiltonian                  GFN1-xTB          :
         :: total energy             -83.149225602412 Eh    ::
         :: gradient norm              0.000438778747 Eh/a0 ::
         :: HOMO-LUMO gap              2.218961237891 eV    ::
         :: SCC energy               -83.914339789388 Eh    ::
         :: -> Gsolv                  -0.105885238827 Eh    ::
         :: repulsion energy           0.796256026412 Eh    ::

    * Orbital Energies and Occupations

         #    Occupation            Energy/Eh            Energy/eV
      -------------------------------------------------------------
         1        2.0000           -0.9067501             -24.6739
       ...           ...                  ...                  ...
        55        2.0000           -0.5406773             -14.7126
        56        2.0000           -0.5352232             -14.5642
        57        2.0000           -0.5326064             -14.4930
        58        2.0000           -0.5305142             -14.4360
        59        2.0000           -0.5247145             -14.2782
        60        2.0000           -0.5226101             -14.2209
        61        2.0000           -0.5176539             -14.0861
        62        2.0000           -0.5156706             -14.0321
        63        2.0000           -0.5018432             -13.6558
        64        2.0000           -0.4955537             -13.4847
        65        2.0000           -0.4936282             -13.4323
        66        2.0000           -0.4839260             -13.1683
        67        2.0000           -0.4708565             -12.8127 (HOMO)
        68                         -0.3893112             -10.5937 (LUMO)
        69                         -0.3662377              -9.9658
        70                         -0.2951056              -8.0302
        71                         -0.2922728              -7.9531
        72                         -0.2612463              -7.1089
        73                         -0.2507985              -6.8246
        74                         -0.1595487              -4.3415
        75                         -0.1583437              -4.3088
        76                         -0.1563742              -4.2552
        77                         -0.1497889              -4.0760
        78                         -0.1459512              -3.9715
       ...                                ...                  ...
       136                          0.7297682              19.8580
      -------------------------------------------------------------
                  HL-Gap            0.0815453 Eh            2.2190 eV

Wiberg/Mayer (AO) data.
largest (>0.10) Wiberg bond orders for each atom

     #   Z sym  total        # sym  WBO       # sym  WBO       # sym  WBO
 ---------------------------------------------------------------------------
     1   6 C    3.847 --    28 H    0.985    27 H    0.977    26 H    0.977
                             2 O    0.873
     2   8 O    2.246 --     3 C    1.176     1 C    0.873     4 O    0.147
     3   6 C    3.858 --     4 O    1.647     2 O    1.176     5 C    0.962
     4   8 O    1.979 --     3 C    1.647     2 O    0.147
     5   6 C    3.962 --    25 N    1.841     6 C    0.967     3 C    0.962
     6   6 C    3.863 --     7 O    1.069     5 C    0.967     8 C    0.882
                            16 N    0.784
     7   8 O    1.963 --     6 C    1.069    29 H    0.774
     8   6 C    3.915 --     9 O    1.665    10 N    1.262     6 C    0.882
     9   8 O    1.961 --     8 C    1.665    10 N    0.179
    10   7 N    3.334 --     8 C    1.262    11 C    0.944    30 H    0.869
                             9 O    0.179
    11   6 C    3.922 --    12 C    0.998    25 N    0.969    10 N    0.944
                            13 C    0.923
    12   6 C    3.982 --    11 C    0.998    32 H    0.981    31 H    0.979
                            33 H    0.979
    13   6 C    3.876 --    15 C    1.003    14 C    1.002    11 C    0.923
                            16 N    0.851
    14   6 C    3.982 --    13 C    1.002    36 H    0.979    34 H    0.978
                            35 H    0.974
    15   6 C    3.980 --    13 C    1.003    38 H    0.978    37 H    0.976
                            39 H    0.975
    16   7 N    3.567 --    40 H    0.866    13 C    0.851    17 C    0.843
                             6 C    0.784
    17   6 C    3.876 --    18 O    1.791    19 C    1.092    16 N    0.843
    18   8 O    2.073 --    17 C    1.791
    19   6 C    3.889 --    20 N    1.504    17 C    1.092    24 O    1.059
    20   7 N    3.057 --    19 C    1.504    21 N    1.296
    21   7 N    2.992 --    22 C    1.500    20 N    1.296
    22   6 C    3.848 --    21 N    1.500    24 O    1.118    23 C    1.043
    23   6 C    3.976 --    22 C    1.043    43 H    0.979    41 H    0.952
                            42 H    0.950
    24   8 O    2.362 --    22 C    1.118    19 C    1.059
    25   7 N    3.042 --     5 C    1.841    11 C    0.969
    26   1 H    1.002 --     1 C    0.977
    27   1 H    1.002 --     1 C    0.977
    28   1 H    1.007 --     1 C    0.985
    29   1 H    0.844 --     7 O    0.774
    30   1 H    0.906 --    10 N    0.869
    31   1 H    0.999 --    12 C    0.979
    32   1 H    0.995 --    12 C    0.981
    33   1 H    0.996 --    12 C    0.979
    34   1 H    0.997 --    14 C    0.978
    35   1 H    0.995 --    14 C    0.974
    36   1 H    0.996 --    14 C    0.979
    37   1 H    1.002 --    15 C    0.976
    38   1 H    0.995 --    15 C    0.978
    39   1 H    0.997 --    15 C    0.975
    40   1 H    0.946 --    16 N    0.866
    41   1 H    0.990 --    23 C    0.952
    42   1 H    0.990 --    23 C    0.950
    43   1 H    0.994 --    23 C    0.979
 ---------------------------------------------------------------------------

           -------------------------------------------------
          | TOTAL ENERGY              -83.149225602412 Eh   |
          | GRADIENT NORM               0.000438778747 Eh/α |
          | HOMO-LUMO GAP               2.218961237891 eV   |
           -------------------------------------------------

 * finished run on 2023/06/20 at 15:31:22.061
