   * xtb version 6.5.1 (579679a) compiled by 'ehlert@majestix' on 2022-07-11
          program call               : /lustre/hpc/kemi/ree/PhD/git/ReactivityQM/dep/xtb-6.5.1/bin/xtb --gfn 1 /lustre/hpc/kemi/ree/PhD/git/ReactivityQM/calculations/RaltegravirCLI/reac01prodE04/conf03/RaltegravirCLI_reac01prodE04_conf03_gfn1.xyz --opt --vfukui --chrg -1 --uhf 0 --alpb DMSO

   ID    Z sym.   atoms
    1    6 C      1, 2, 5-7
    2    7 N      3, 4
    3    8 O      8, 10
    4   17 Cl     9
    5    1 H      11-16

      * Solvation model:               ALPB
        Solvent                        DMSO
        Solvent mass                       7.8130E+01 g/mol
          :  Hamiltonian                  GFN1-xTB          :
 * total energy  :   -34.1204087 Eh     change       -0.9649170E-11 Eh
 * total energy  :   -34.1278689 Eh     change       -0.7460162E-02 Eh
 * total energy  :   -34.1319403 Eh     change       -0.4071383E-02 Eh
 * total energy  :   -34.1330786 Eh     change       -0.1138346E-02 Eh
 * total energy  :   -34.1335797 Eh     change       -0.5010345E-03 Eh
 * total energy  :   -34.1338181 Eh     change       -0.2384104E-03 Eh
 * total energy  :   -34.1341661 Eh     change       -0.3479862E-03 Eh
 * total energy  :   -34.1350656 Eh     change       -0.8995118E-03 Eh
 * total energy  :   -34.1359424 Eh     change       -0.8768539E-03 Eh
 * total energy  :   -34.1389252 Eh     change       -0.2982782E-02 Eh
 * total energy  :   -34.1501809 Eh     change       -0.1256132E-03 Eh
 * total energy  :   -34.1502813 Eh     change       -0.1004259E-03 Eh
 * total energy  :   -34.1503516 Eh     change       -0.7030490E-04 Eh
 * total energy  :   -34.1503792 Eh     change       -0.2762372E-04 Eh
 * total energy  :   -34.1504209 Eh     change       -0.4168431E-04 Eh
 * total energy  :   -34.1504394 Eh     change       -0.1847198E-04 Eh
 * total energy  :   -34.1504532 Eh     change       -0.1378074E-04 Eh
 * total energy  :   -34.1504607 Eh     change       -0.7552043E-05 Eh
 * total energy  :   -34.1504637 Eh     change       -0.2960261E-05 Eh
   *** GEOMETRY OPTIMIZATION CONVERGED AFTER 36 ITERATIONS ***

 final structure:
================
16
 xtb: 6.5.1 (579679a)
C            2.64431987468006       -0.75306394079171       -0.08317768621539
C            1.23721809241056       -0.29229406832462        0.06593947617190
N            0.39051700636460       -0.78467378808609        0.88287693680304
N           -0.83760023918940       -0.05812588369737        0.70725475367085
C           -1.84190308009915       -1.03005327126606        0.24311192441785
C           -0.52416794494115        0.95556481188573       -0.28515130978191
C           -1.03430716918825        2.20108805072532       -0.38253800465360
O           -0.82283707584650        3.19068676492534       -1.06868110779167
Cl          -2.73686852226013        2.23445785217126        0.57918752833697
O            0.81538333891384        0.72071708095486       -0.70750800112070
H            2.79097010525137       -1.67450129659966        0.47524710092731
H            2.86885620540531       -0.92190076330057       -1.13547011800316
H            3.33036039191795        0.00714298649513        0.29161911994141
H           -1.53174607478801       -1.50919686330190       -0.68952468642407
H           -1.96824389048592       -1.78585505899457        1.01616165628621
H           -2.77995401814527       -0.49999161279520        0.09065241743495

          :  Hamiltonian                  GFN1-xTB          :
         :: total energy             -34.150463667746 Eh    ::
         :: gradient norm              0.000708117783 Eh/a0 ::
         :: HOMO-LUMO gap              2.850516179402 eV    ::
         :: SCC energy               -34.421447995135 Eh    ::
         :: -> Gsolv                  -0.093369653386 Eh    ::
         :: repulsion energy           0.278552861069 Eh    ::

    * Orbital Energies and Occupations

         #    Occupation            Energy/Eh            Energy/eV
      -------------------------------------------------------------
         1        2.0000           -0.8464734             -23.0337
       ...           ...                  ...                  ...
        16        2.0000           -0.5184544             -14.1079
        17        2.0000           -0.5147217             -14.0063
        18        2.0000           -0.5125909             -13.9483
        19        2.0000           -0.5109529             -13.9037
        20        2.0000           -0.4936232             -13.4322
        21        2.0000           -0.4754918             -12.9388
        22        2.0000           -0.4443681             -12.0919
        23        2.0000           -0.4406070             -11.9895
        24        2.0000           -0.4344460             -11.8219
        25        2.0000           -0.4299561             -11.6997
        26        2.0000           -0.4175302             -11.3616
        27        2.0000           -0.4043423             -11.0027
        28        2.0000           -0.3262084              -8.8766 (HOMO)
        29                         -0.2214538              -6.0261 (LUMO)
        30                         -0.1881730              -5.1204
        31                         -0.1660366              -4.5181
        32                         -0.1272744              -3.4633
        33                         -0.0993074              -2.7023
        34                         -0.0610505              -1.6613
        35                         -0.0598680              -1.6291
        36                         -0.0476486              -1.2966
        37                         -0.0419551              -1.1417
        38                         -0.0142006              -0.3864
        39                          0.0201840               0.5492
       ...                                ...                  ...
        57                          0.8077467              21.9799
      -------------------------------------------------------------
                  HL-Gap            0.1047545 Eh            2.8505 eV

Wiberg/Mayer (AO) data.
largest (>0.10) Wiberg bond orders for each atom

     #   Z sym  total        # sym  WBO       # sym  WBO       # sym  WBO
 ---------------------------------------------------------------------------
     1   6 C    3.993 --     2 C    1.017    11 H    0.986    12 H    0.974
                            13 H    0.969
     2   6 C    3.903 --     3 N    1.726    10 O    1.072     1 C    1.017
     3   7 N    2.955 --     2 C    1.726     4 N    0.989    10 O    0.125
     4   7 N    3.082 --     3 N    0.989     6 C    0.970     5 C    0.960
     5   6 C    3.975 --    15 H    0.989    16 H    0.986    14 H    0.985
                             4 N    0.960
     6   6 C    3.716 --     7 C    1.572     4 N    0.970    10 O    0.889
                             8 O    0.186
     7   6 C    3.869 --     8 O    1.573     6 C    1.572     9 Cl   0.607
     8   8 O    1.928 --     7 C    1.573     6 C    0.186     9 Cl   0.120
     9  17 Cl   0.794 --     7 C    0.607     8 O    0.120
    10   8 O    2.185 --     2 C    1.072     6 C    0.889     3 N    0.125
    11   1 H    1.004 --     1 C    0.986
    12   1 H    1.002 --     1 C    0.974
    13   1 H    1.003 --     1 C    0.969
    14   1 H    1.014 --     5 C    0.985
    15   1 H    1.021 --     5 C    0.989
    16   1 H    1.033 --     5 C    0.986
 ---------------------------------------------------------------------------

           -------------------------------------------------
          | TOTAL ENERGY              -34.150463667746 Eh   |
          | GRADIENT NORM               0.000708117783 Eh/α |
          | HOMO-LUMO GAP               2.850516179402 eV   |
           -------------------------------------------------

 * finished run on 2023/06/20 at 14:53:31.686
