   * xtb version 6.5.1 (579679a) compiled by 'ehlert@majestix' on 2022-07-11
          program call               : /lustre/hpc/kemi/ree/PhD/git/ReactivityQM/dep/xtb-6.5.1/bin/xtb --gfn 1 /lustre/hpc/kemi/ree/PhD/git/ReactivityQM/calculations/R02deprot/reac01prodN02/conf19/R02deprot_reac01prodN02_conf19_gfn1.xyz --opt --vfukui --chrg 0 --uhf 0 --alpb DMSO

   ID    Z sym.   atoms
    1    6 C      1, 3, 5, 7-10, 12, 14, 15, 18, 19, 22, 24
    2    8 O      2, 4, 13, 20, 23, 25
    3    7 N      6, 11, 16, 17, 21
    4    1 H      26-42

      * Solvation model:               ALPB
        Solvent                        DMSO
        Solvent mass                       7.8130E+01 g/mol
          :  Hamiltonian                  GFN1-xTB          :
 * total energy  :   -82.9408963 Eh     change       -0.6991741E-11 Eh
 * total energy  :   -82.9606381 Eh     change       -0.1974185E-01 Eh
 * total energy  :   -82.9686581 Eh     change       -0.8019975E-02 Eh
 * total energy  :   -82.9702908 Eh     change       -0.1632701E-02 Eh
 * total energy  :   -82.9713259 Eh     change       -0.1035062E-02 Eh
 * total energy  :   -82.9716844 Eh     change       -0.3585720E-03 Eh
 * total energy  :   -82.9720234 Eh     change       -0.3389837E-03 Eh
 * total energy  :   -82.9723304 Eh     change       -0.3069932E-03 Eh
 * total energy  :   -82.9726151 Eh     change       -0.2846326E-03 Eh
 * total energy  :   -82.9728687 Eh     change       -0.2536754E-03 Eh
 * total energy  :   -82.9745643 Eh     change       -0.1905466E-04 Eh
 * total energy  :   -82.9745819 Eh     change       -0.1767970E-04 Eh
 * total energy  :   -82.9746022 Eh     change       -0.2026277E-04 Eh
 * total energy  :   -82.9746202 Eh     change       -0.1795929E-04 Eh
 * total energy  :   -82.9746340 Eh     change       -0.1384331E-04 Eh
 * total energy  :   -82.9746465 Eh     change       -0.1253231E-04 Eh
 * total energy  :   -82.9746593 Eh     change       -0.1277708E-04 Eh
 * total energy  :   -82.9746724 Eh     change       -0.1311780E-04 Eh
 * total energy  :   -82.9746771 Eh     change       -0.4710548E-05 Eh
   *** GEOMETRY OPTIMIZATION CONVERGED AFTER 44 ITERATIONS ***

 final structure:
================
42
 xtb: 6.5.1 (579679a)
C            7.00584963384701       -0.96375991877389        1.11571327356279
O            5.83835277409099       -0.23671238077746        0.73799496915397
C            4.73591144325909       -0.96215892418069        0.50155336006789
O            4.72912082384059       -2.17404689954692        0.58827964373597
C            3.55146750250261       -0.14349381629650        0.14995536353204
N            2.38980664897668       -0.86468548924707        0.00656551089836
C            1.29948092213913       -0.19819881907148       -0.26206925348495
C            0.01885267272531       -1.01671511366616       -0.40755876575848
C           -0.15783276287974       -1.95151970732129        0.79003768471312
C            0.04375564297995       -1.79295431744220       -1.72877057822785
N           -1.05001073148950       -0.01495683082472       -0.44992317242925
C           -2.33345458797831       -0.18279992689114       -0.48719293600763
O           -2.81842443695487       -1.39515805840969       -0.50289323770735
C           -4.22386414286009       -1.68080804932177       -0.52492309876384
C           -3.12865770049988        1.02942816063806       -0.50175538162697
N           -2.62627709978829        2.23203707572185       -0.49087779810576
N           -3.66566989614220        3.09113672259172       -0.50059179261598
C           -4.75213347541282        2.37293184871741       -0.51560015777634
C           -6.14987411734485        2.84518268225386       -0.52399589098800
O           -4.47482157962500        1.06046555151885       -0.51798135840130
N            1.15884207796517        1.11827160231607       -0.43190773585010
C            2.26428155049951        1.90104497893140       -0.33196109483705
O            2.26561929756303        3.13385923845878       -0.47959004929868
C            3.52444204819822        1.21539173836805       -0.01842127483850
O            4.59540146996722        2.02792382514589        0.08216852361337
H            7.32563953180279       -1.61996387783313        0.30179622648136
H            6.80532922968376       -1.56808496283689        2.00467259117023
H            7.77931913254265       -0.22832043665639        1.32979226618664
H           -0.99673964505010       -2.62697226956806        0.64122304248494
H           -0.32309622719475       -1.37239966462685        1.69710838625030
H            0.75697350394167       -2.53373459279289        0.90204689896793
H           -0.86274681560156       -2.38312799452785       -1.84350526787557
H            0.90752511373918       -2.45655970985687       -1.72602245932190
H            0.12658395562188       -1.10131422338859       -2.56596301561365
H           -0.63683931186925        0.94417282424612       -0.47018735529320
H           -4.67983923660154       -1.26313665903607       -1.42274012842893
H           -4.29842774500566       -2.76669195287627       -0.53216733671813
H           -4.70559296381615       -1.27326034567484        0.36411751007674
H           -6.66368992523860        2.49193528860687        0.37016002471630
H           -6.17126878859414        3.93196937865079       -0.55371148033293
H           -6.67191526076549        2.44110227829116       -1.39099424341399
H            4.26862047482172        2.93468274698251       -0.09754341189027

          :  Hamiltonian                  GFN1-xTB          :
         :: total energy             -82.974677146345 Eh    ::
         :: gradient norm              0.000328325122 Eh/a0 ::
         :: HOMO-LUMO gap              0.768984852500 eV    ::
         :: SCC energy               -83.744521875242 Eh    ::
         :: -> Gsolv                  -0.076199382455 Eh    ::
         :: repulsion energy           0.795065323091 Eh    ::

    * Orbital Energies and Occupations

         #    Occupation            Energy/Eh            Energy/eV
      -------------------------------------------------------------
         1        2.0000           -0.8931337             -24.3034
       ...           ...                  ...                  ...
        55        2.0000           -0.5008881             -13.6299
        56        2.0000           -0.5003986             -13.6165
        57        2.0000           -0.4893481             -13.3158
        58        2.0000           -0.4878176             -13.2742
        59        2.0000           -0.4841278             -13.1738
        60        2.0000           -0.4794161             -13.0456
        61        2.0000           -0.4731082             -12.8739
        62        2.0000           -0.4618046             -12.5663
        63        2.0000           -0.4560944             -12.4110
        64        2.0000           -0.4367711             -11.8851
        65        2.0000           -0.4196908             -11.4204
        66        2.0000           -0.3941662             -10.7258
        67        2.0000           -0.3876494             -10.5485 (HOMO)
        68        0.0000           -0.3593897              -9.7795 (LUMO)
        69                         -0.2882117              -7.8426
        70                         -0.2801449              -7.6231
        71                         -0.2457923              -6.6883
        72                         -0.2417894              -6.5794
        73                         -0.2036396              -5.5413
        74                         -0.1531953              -4.1687
        75                         -0.1514898              -4.1222
        76                         -0.1314536              -3.5770
        77                         -0.1286101              -3.4997
        78                         -0.1256691              -3.4196
       ...                                ...                  ...
       134                          0.7368215              20.0499
      -------------------------------------------------------------
                  HL-Gap            0.0282597 Eh            0.7690 eV

Wiberg/Mayer (AO) data.
largest (>0.10) Wiberg bond orders for each atom

     #   Z sym  total        # sym  WBO       # sym  WBO       # sym  WBO
 ---------------------------------------------------------------------------
     1   6 C    3.884 --    28 H    0.987    27 H    0.980    26 H    0.980
                             2 O    0.908
     2   8 O    2.188 --     3 C    1.091     1 C    0.908     4 O    0.126
     3   6 C    3.841 --     4 O    1.637     2 O    1.091     5 C    1.022
     4   8 O    1.899 --     3 C    1.637     2 O    0.126
     5   6 C    3.962 --    24 C    1.490     6 N    1.187     3 C    1.022
     6   7 N    3.002 --     7 C    1.497     5 C    1.187
     7   6 C    3.960 --     6 N    1.497    21 N    1.343     8 C    0.963
     8   6 C    3.895 --     9 C    0.985    10 C    0.975     7 C    0.963
                            11 N    0.895
     9   6 C    3.988 --    30 H    0.985     8 C    0.985    29 H    0.984
                            31 H    0.979
    10   6 C    3.988 --    34 H    0.985    32 H    0.984    33 H    0.982
                             8 C    0.975
    11   7 N    3.508 --    12 C    1.508     8 C    0.895    35 H    0.807
                            13 O    0.115
    12   6 C    3.902 --    11 N    1.508    13 O    1.176    15 C    1.071
    13   8 O    2.263 --    12 C    1.176    14 C    0.866    11 N    0.115
    14   6 C    3.835 --    37 H    0.981    36 H    0.976    38 H    0.976
                            13 O    0.866
    15   6 C    3.889 --    16 N    1.563    12 C    1.071    20 O    1.055
    16   7 N    3.026 --    15 C    1.563    17 N    1.240
    17   7 N    2.989 --    18 C    1.568    16 N    1.240
    18   6 C    3.854 --    17 N    1.568    20 O    1.079    19 C    1.037
    19   6 C    3.980 --    18 C    1.037    40 H    0.980    41 H    0.958
                            39 H    0.956
    20   8 O    2.334 --    18 C    1.079    15 C    1.055
    21   7 N    3.050 --     7 C    1.343    22 C    1.232    23 O    0.126
                            35 H    0.107
    22   6 C    3.926 --    23 O    1.492    21 N    1.232    24 C    1.065
    23   8 O    1.825 --    22 C    1.492    21 N    0.126
    24   6 C    3.908 --     5 C    1.490    25 O    1.081    22 C    1.065
    25   8 O    2.058 --    24 C    1.081    42 H    0.812
    26   1 H    1.010 --     1 C    0.980
    27   1 H    1.010 --     1 C    0.980
    28   1 H    1.013 --     1 C    0.987
    29   1 H    1.006 --     9 C    0.984
    30   1 H    1.001 --     9 C    0.985
    31   1 H    1.014 --     9 C    0.979
    32   1 H    1.004 --    10 C    0.984
    33   1 H    1.005 --    10 C    0.982
    34   1 H    1.002 --    10 C    0.985
    35   1 H    0.962 --    11 N    0.807    21 N    0.107
    36   1 H    1.004 --    14 C    0.976
    37   1 H    1.004 --    14 C    0.981
    38   1 H    1.004 --    14 C    0.976
    39   1 H    0.993 --    19 C    0.956
    40   1 H    0.996 --    19 C    0.980
    41   1 H    0.993 --    19 C    0.958
    42   1 H    0.870 --    25 O    0.812
 ---------------------------------------------------------------------------

           -------------------------------------------------
          | TOTAL ENERGY              -82.974677146345 Eh   |
          | GRADIENT NORM               0.000328325122 Eh/α |
          | HOMO-LUMO GAP               0.768984852500 eV   |
           -------------------------------------------------

 * finished run on 2023/06/20 at 18:07:11.724
