   * xtb version 6.5.1 (579679a) compiled by 'ehlert@majestix' on 2022-07-11
          program call               : /lustre/hpc/kemi/ree/PhD/git/ReactivityQM/dep/xtb-6.5.1/bin/xtb --gfn 1 /lustre/hpc/kemi/ree/PhD/git/ReactivityQM/calculations/R02/reac01prodN17/conf18/R02_reac01prodN17_conf18_gfn1.xyz --opt --vfukui --chrg 1 --uhf 0 --alpb DMSO

   ID    Z sym.   atoms
    1    6 C      1, 3, 5, 7-10, 12, 13, 15, 18, 19, 22, 24
    2    8 O      2, 4, 14, 20, 23, 25
    3    7 N      6, 11, 16, 17, 21
    4    1 H      26-43

      * Solvation model:               ALPB
        Solvent                        DMSO
        Solvent mass                       7.8130E+01 g/mol
          :  Hamiltonian                  GFN1-xTB          :
 * total energy  :   -83.1268891 Eh     change       -0.1938361E-10 Eh
 * total energy  :   -83.1418191 Eh     change       -0.1493003E-01 Eh
 * total energy  :   -83.1479200 Eh     change       -0.6100942E-02 Eh
 * total energy  :   -83.1492316 Eh     change       -0.1311572E-02 Eh
 * total energy  :   -83.1499077 Eh     change       -0.6760721E-03 Eh
 * total energy  :   -83.1502246 Eh     change       -0.3168792E-03 Eh
 * total energy  :   -83.1504807 Eh     change       -0.2561968E-03 Eh
 * total energy  :   -83.1507165 Eh     change       -0.2357802E-03 Eh
 * total energy  :   -83.1509311 Eh     change       -0.2145988E-03 Eh
 * total energy  :   -83.1511091 Eh     change       -0.1779681E-03 Eh
 * total energy  :   -83.1530970 Eh     change       -0.6927079E-05 Eh
 * total energy  :   -83.1531049 Eh     change       -0.7910562E-05 Eh
 * total energy  :   -83.1531019 Eh     change        0.3026557E-05 Eh
 * total energy  :   -83.1531100 Eh     change       -0.8117446E-05 Eh
 * total energy  :   -83.1531164 Eh     change       -0.6369279E-05 Eh
 * total energy  :   -83.1531214 Eh     change       -0.5023001E-05 Eh
 * total energy  :   -83.1531209 Eh     change        0.4998749E-06 Eh
 * total energy  :   -83.1531292 Eh     change       -0.8313169E-05 Eh
 * total energy  :   -83.1531307 Eh     change       -0.1544523E-05 Eh
   *** GEOMETRY OPTIMIZATION CONVERGED AFTER 55 ITERATIONS ***

 final structure:
================
43
 xtb: 6.5.1 (579679a)
C            4.54784932546128        1.12291726781947        2.90217845700987
O            4.14657283577803        0.24971467940808        1.83153616630979
C            2.90383224195233        0.41705537920208        1.37395025028844
O            2.13605176646276        1.23850199097207        1.81387167958454
C            2.55712290424728       -0.50768245886447        0.25843427692202
N            1.27832242451962       -0.30174212606632       -0.20751717940253
C            0.82652676959222       -1.00994475651081       -1.18345973200702
C           -0.60952174677182       -0.77878444554030       -1.60762927273427
C           -1.49844327824124       -1.77264675905839       -0.85191142166789
C           -0.83569802597226       -0.85958270820326       -3.11139969321126
N           -0.91564619497580        0.61289234044170       -1.08180082660081
C           -0.32795296441008        1.71948451130706       -1.88107818413236
C           -2.38995233481781        0.86575655678625       -0.92489170626007
O           -3.07819656458183        0.99214733573340       -1.88698343923507
C           -2.72445675903793        0.94160646446471        0.47346070288975
N           -1.87987089570873        0.79577933223232        1.46618151750719
N           -2.57959877547580        0.92380955519849        2.59714870876386
C           -3.82852232175004        1.14284691621697        2.25166962274145
C           -4.98238116333178        1.35737131376265        3.14352524567155
O           -3.97042788877810        1.16320361244282        0.92838986467934
N            1.55565168992247       -1.98708904391564       -1.77616876945996
C            2.85960823258402       -2.29788385451737       -1.40656048359610
O            3.47477010487208       -3.17323230391762       -1.97689670785505
C            3.36055367401129       -1.46970109494251       -0.29630583551797
O            4.60633111432653       -1.75372561717982        0.07653842591065
H            5.59515663307129        0.91006074610893        3.10153722252153
H            3.93995692873654        0.92248288487232        3.78680059936077
H            4.41844348320372        2.16278611410574        2.59583676800224
H           -1.40755148543759       -1.61761907775336        0.22241437372224
H           -1.17482977134699       -2.78420972615566       -1.09104288066698
H           -2.53915714123451       -1.65887790907265       -1.14930777056122
H           -1.82284830975845       -0.47408789035714       -3.36062559436119
H           -0.07962421554806       -0.29792793020933       -3.65605044653272
H           -0.78780450992745       -1.90239705215615       -3.42093586104515
H           -0.45983026383795        0.63892389399273       -0.14731232496086
H           -0.86003778423644        1.79836704719807       -2.82423230043899
H            0.72383661060027        1.49818045964636       -2.03638045707820
H           -0.44219623971394        2.63350580424822       -1.30314591373778
H           -5.84500093753145        0.80449271361469        2.77362727528628
H           -4.73361979053127        1.04006005139086        4.15377596044197
H           -5.24263404285413        2.41749625617818        3.15490436817979
H            1.16731160250068       -2.52949089727284       -2.53324279172508
H            4.91790506396894       -1.19281757565267        0.80909610699957

          :  Hamiltonian                  GFN1-xTB          :
         :: total energy             -83.153130732165 Eh    ::
         :: gradient norm              0.000265274703 Eh/a0 ::
         :: HOMO-LUMO gap              1.747887951681 eV    ::
         :: SCC energy               -83.948236822861 Eh    ::
         :: -> Gsolv                  -0.114646221762 Eh    ::
         :: repulsion energy           0.823700564787 Eh    ::

    * Orbital Energies and Occupations

         #    Occupation            Energy/Eh            Energy/eV
      -------------------------------------------------------------
         1        2.0000           -0.9053409             -24.6356
       ...           ...                  ...                  ...
        55        2.0000           -0.5403116             -14.7026
        56        2.0000           -0.5334097             -14.5148
        57        2.0000           -0.5256325             -14.3032
        58        2.0000           -0.5243630             -14.2686
        59        2.0000           -0.5198023             -14.1445
        60        2.0000           -0.5099301             -13.8759
        61        2.0000           -0.5065146             -13.7830
        62        2.0000           -0.5003930             -13.6164
        63        2.0000           -0.4945669             -13.4578
        64        2.0000           -0.4922266             -13.3942
        65        2.0000           -0.4829327             -13.1413
        66        2.0000           -0.4716509             -12.8343
        67        2.0000           -0.4501244             -12.2485 (HOMO)
        68                         -0.3858907             -10.5006 (LUMO)
        69                         -0.3410465              -9.2803
        70                         -0.3082125              -8.3869
        71                         -0.2939118              -7.9977
        72                         -0.2605197              -7.0891
        73                         -0.2566118              -6.9828
        74                         -0.1776741              -4.8348
        75                         -0.1725730              -4.6960
        76                         -0.1623042              -4.4165
        77                         -0.1574940              -4.2856
        78                         -0.1475924              -4.0162
       ...                                ...                  ...
       136                          0.7255598              19.7435
      -------------------------------------------------------------
                  HL-Gap            0.0642337 Eh            1.7479 eV

Wiberg/Mayer (AO) data.
largest (>0.10) Wiberg bond orders for each atom

     #   Z sym  total        # sym  WBO       # sym  WBO       # sym  WBO
 ---------------------------------------------------------------------------
     1   6 C    3.854 --    26 H    0.986    28 H    0.980    27 H    0.979
                             2 O    0.878
     2   8 O    2.211 --     3 C    1.103     1 C    0.878     4 O    0.133
     3   6 C    3.852 --     4 O    1.669     2 O    1.103     5 C    1.002
     4   8 O    1.934 --     3 C    1.669     2 O    0.133
     5   6 C    3.956 --    24 C    1.504     6 N    1.157     3 C    1.002
     6   7 N    3.067 --     7 C    1.583     5 C    1.157
     7   6 C    3.943 --     6 N    1.583    21 N    1.192     8 C    0.979
     8   6 C    3.893 --    10 C    1.000     9 C    0.982     7 C    0.979
                            11 N    0.857
     9   6 C    3.981 --     8 C    0.982    29 H    0.982    30 H    0.977
                            31 H    0.977
    10   6 C    3.980 --     8 C    1.000    33 H    0.981    32 H    0.975
                            34 H    0.974
    11   7 N    3.597 --    12 C    0.897    13 C    0.861     8 C    0.857
                            35 H    0.846
    12   6 C    3.884 --    36 H    0.981    38 H    0.980    37 H    0.979
                            11 N    0.897
    13   6 C    3.881 --    14 O    1.790    15 C    1.086    11 N    0.861
    14   8 O    2.067 --    13 C    1.790
    15   6 C    3.889 --    16 N    1.511    13 C    1.086    20 O    1.058
    16   7 N    3.050 --    15 C    1.511    17 N    1.291
    17   7 N    2.991 --    18 C    1.507    16 N    1.291
    18   6 C    3.850 --    17 N    1.507    20 O    1.116    19 C    1.042
    19   6 C    3.976 --    18 C    1.042    40 H    0.977    39 H    0.962
                            41 H    0.945
    20   8 O    2.359 --    18 C    1.116    15 C    1.058
    21   7 N    3.461 --     7 C    1.192    22 C    1.098    42 H    0.878
                            23 O    0.132
    22   6 C    3.904 --    23 O    1.632    21 N    1.098    24 C    1.045
    23   8 O    1.926 --    22 C    1.632    21 N    0.132
    24   6 C    3.920 --     5 C    1.504    25 O    1.127    22 C    1.045
    25   8 O    2.106 --    24 C    1.127    43 H    0.794
    26   1 H    1.007 --     1 C    0.986
    27   1 H    1.005 --     1 C    0.979
    28   1 H    1.005 --     1 C    0.980
    29   1 H    1.000 --     9 C    0.982
    30   1 H    0.994 --     9 C    0.977
    31   1 H    0.993 --     9 C    0.977
    32   1 H    0.999 --    10 C    0.975
    33   1 H    0.995 --    10 C    0.981
    34   1 H    0.994 --    10 C    0.974
    35   1 H    0.974 --    11 N    0.846
    36   1 H    0.995 --    12 C    0.981
    37   1 H    0.997 --    12 C    0.979
    38   1 H    0.989 --    12 C    0.980
    39   1 H    0.991 --    19 C    0.962
    40   1 H    0.994 --    19 C    0.977
    41   1 H    0.990 --    19 C    0.945
    42   1 H    0.920 --    21 N    0.878
    43   1 H    0.845 --    25 O    0.794
 ---------------------------------------------------------------------------

           -------------------------------------------------
          | TOTAL ENERGY              -83.153130732165 Eh   |
          | GRADIENT NORM               0.000265274703 Eh/α |
          | HOMO-LUMO GAP               1.747887951681 eV   |
           -------------------------------------------------

 * finished run on 2023/06/20 at 15:43:15.022
