   * xtb version 6.5.1 (579679a) compiled by 'ehlert@majestix' on 2022-07-11
          program call               : /lustre/hpc/kemi/ree/PhD/git/ReactivityQM/dep/xtb-6.5.1/bin/xtb --gfn 1 /lustre/hpc/kemi/ree/PhD/git/ReactivityQM/calculations/RaltegravirCLI/reac01prodN04/conf10/RaltegravirCLI_reac01prodN04_conf10_gfn1.xyz --opt --vfukui --chrg 1 --uhf 0 --alpb DMSO

   ID    Z sym.   atoms
    1    6 C      1-3, 6, 7
    2    7 N      4, 5
    3    8 O      8, 10
    4   17 Cl     9
    5    1 H      11-16

      * Solvation model:               ALPB
        Solvent                        DMSO
        Solvent mass                       7.8130E+01 g/mol
          :  Hamiltonian                  GFN1-xTB          :
 * total energy  :   -33.3621059 Eh     change       -0.6821210E-12 Eh
 * total energy  :   -33.3681409 Eh     change       -0.6035012E-02 Eh
 * total energy  :   -33.3699184 Eh     change       -0.1777521E-02 Eh
 * total energy  :   -33.3701220 Eh     change       -0.2035355E-03 Eh
 * total energy  :   -33.3701928 Eh     change       -0.7083943E-04 Eh
 * total energy  :   -33.3701988 Eh     change       -0.6025149E-05 Eh
 * total energy  :   -33.3702028 Eh     change       -0.3981573E-05 Eh
   *** GEOMETRY OPTIMIZATION CONVERGED AFTER 7 ITERATIONS ***

 final structure:
================
16
 xtb: 6.5.1 (579679a)
C           -1.34673490621517        1.34492797097688        0.25086295026191
C           -0.64758868659243       -0.01056416053829        0.05275837261499
C           -1.40987119769750       -0.91189401745621       -0.93288357003314
N           -0.44109034137247       -0.66396224263670        1.29096518423026
N            0.78999056457276       -0.81330550657381        1.51295450087106
C            1.46494976794332       -0.27296607599491        0.44341575224613
C            2.98280313267084       -0.25061386078150        0.31702766432712
O            3.65834830973646       -0.74340480803541        1.16390890326935
Cl           3.53935393008117        0.50714018390278       -1.08360424942272
O            0.67692462602140        0.20283801093246       -0.42522228548764
H           -1.42432436681263        1.83797757245181       -0.71507744093769
H           -0.75656399085772        1.95258169745263        0.93342222586337
H           -2.33631148038151        1.16695018268499        0.66494056766338
H           -2.40361512454648       -1.09993534404937       -0.53364417110414
H           -0.86813813354987       -1.84780658129181       -1.05115569394741
H           -1.47813210300012       -0.39796302104336       -1.88866871041485

          :  Hamiltonian                  GFN1-xTB          :
         :: total energy             -33.370202807136 Eh    ::
         :: gradient norm              0.000583678345 Eh/a0 ::
         :: HOMO-LUMO gap              1.425254161540 eV    ::
         :: SCC energy               -33.644683727455 Eh    ::
         :: -> Gsolv                  -0.087558205764 Eh    ::
         :: repulsion energy           0.282091491850 Eh    ::

    * Orbital Energies and Occupations

         #    Occupation            Energy/Eh            Energy/eV
      -------------------------------------------------------------
         1        2.0000           -1.0020107             -27.2661
       ...           ...                  ...                  ...
        15        2.0000           -0.6406842             -17.4339
        16        2.0000           -0.6232634             -16.9599
        17        2.0000           -0.6140915             -16.7103
        18        2.0000           -0.5893906             -16.0381
        19        2.0000           -0.5875439             -15.9879
        20        2.0000           -0.5802784             -15.7902
        21        2.0000           -0.5762576             -15.6808
        22        2.0000           -0.5694334             -15.4951
        23        2.0000           -0.5567950             -15.1512
        24        2.0000           -0.5430056             -14.7759
        25        2.0000           -0.5320030             -14.4765
        26        2.0000           -0.5278743             -14.3642
        27        2.0000           -0.5170659             -14.0701 (HOMO)
        28                         -0.4646888             -12.6448 (LUMO)
        29                         -0.3887324             -10.5779
        30                         -0.3073901              -8.3645
        31                         -0.2539868              -6.9113
        32                         -0.1705941              -4.6421
        33                         -0.1648283              -4.4852
        34                         -0.1327599              -3.6126
        35                         -0.1271112              -3.4589
        36                         -0.1270225              -3.4565
        37                         -0.1204561              -3.2778
        38                         -0.1126194              -3.0645
       ...                                ...                  ...
        57                          0.7059840              19.2108
      -------------------------------------------------------------
                  HL-Gap            0.0523771 Eh            1.4253 eV

Wiberg/Mayer (AO) data.
largest (>0.10) Wiberg bond orders for each atom

     #   Z sym  total        # sym  WBO       # sym  WBO       # sym  WBO
 ---------------------------------------------------------------------------
     1   6 C    3.939 --    12 H    0.977    13 H    0.975    11 H    0.974
                             2 C    0.880
     2   6 C    3.811 --     4 N    1.079     3 C    0.880     1 C    0.880
                            10 O    0.865
     3   6 C    3.939 --    15 H    0.977    14 H    0.975    16 H    0.974
                             2 C    0.880
     4   7 N    2.998 --     5 N    1.669     2 C    1.079
     5   7 N    3.023 --     4 N    1.669     6 C    1.204
     6   6 C    3.798 --    10 O    1.376     5 N    1.204     7 C    0.931
     7   6 C    3.905 --     8 O    1.793     9 Cl   1.141     6 C    0.931
     8   8 O    2.074 --     7 C    1.793     9 Cl   0.201
     9  17 Cl   1.422 --     7 C    1.141     8 O    0.201
    10   8 O    2.427 --     6 C    1.376     2 C    0.865
    11   1 H    0.989 --     1 C    0.974
    12   1 H    0.988 --     1 C    0.977
    13   1 H    0.989 --     1 C    0.975
    14   1 H    0.989 --     3 C    0.975
    15   1 H    0.988 --     3 C    0.977
    16   1 H    0.989 --     3 C    0.974
 ---------------------------------------------------------------------------

           -------------------------------------------------
          | TOTAL ENERGY              -33.370202807136 Eh   |
          | GRADIENT NORM               0.000583678345 Eh/α |
          | HOMO-LUMO GAP               1.425254161540 eV   |
           -------------------------------------------------

 * finished run on 2023/06/20 at 14:54:56.257
