   * xtb version 6.5.1 (579679a) compiled by 'ehlert@majestix' on 2022-07-11
          program call               : /lustre/hpc/kemi/ree/PhD/git/ReactivityQM/dep/xtb-6.5.1/bin/xtb --gfn 1 /lustre/hpc/kemi/ree/PhD/git/ReactivityQM/calculations/R01/reac01prodE05/conf07/R01_reac01prodE05_conf07_gfn1.xyz --opt --vfukui --chrg -1 --uhf 0 --alpb DMSO

   ID    Z sym.   atoms
    1    6 C      1, 3, 5, 8-10
    2    8 O      2, 4, 11
    3    7 N      6, 7
    4    1 H      12-20

      * Solvation model:               ALPB
        Solvent                        DMSO
        Solvent mass                       7.8130E+01 g/mol
          :  Hamiltonian                  GFN1-xTB          :
 * total energy  :   -38.2529577 Eh     change       -0.5201173E-11 Eh
 * total energy  :   -38.2704604 Eh     change       -0.1750269E-01 Eh
 * total energy  :   -38.2763155 Eh     change       -0.5855147E-02 Eh
 * total energy  :   -38.2770149 Eh     change       -0.6993549E-03 Eh
 * total energy  :   -38.2774025 Eh     change       -0.3875965E-03 Eh
 * total energy  :   -38.2774598 Eh     change       -0.5738529E-04 Eh
 * total energy  :   -38.2774948 Eh     change       -0.3496231E-04 Eh
 * total energy  :   -38.2775067 Eh     change       -0.1184576E-04 Eh
 * total energy  :   -38.2775173 Eh     change       -0.1065804E-04 Eh
 * total energy  :   -38.2775239 Eh     change       -0.6617095E-05 Eh
 * total energy  :   -38.2775294 Eh     change       -0.5432581E-05 Eh
 * total energy  :   -38.2775326 Eh     change       -0.3244881E-05 Eh
   *** GEOMETRY OPTIMIZATION CONVERGED AFTER 12 ITERATIONS ***

 final structure:
================
20
 xtb: 6.5.1 (579679a)
C            4.12090446955852       -0.45574581281459       -0.23019866532182
O            2.72631993725684       -0.63179903099759       -0.24420929802544
C            1.98955208428099        0.51859190767148        0.26042956934317
O            2.65512026053618        1.52865560344802        0.66190691611621
C            0.65084552924634        0.31101223032977        0.20720057684361
N           -0.05805932005037       -0.83879624309370       -0.24713728349552
N           -1.32648914789587       -0.50462961263174       -0.05911777777458
C           -2.35145572701264       -1.45929422683484       -0.40608620604546
C           -1.52227148849344        0.69082499707820        0.45357392819236
C           -2.81726285887380        1.34357429531387        0.77520182791208
O           -0.32074149053955        1.31613371984982        0.66279872552542
H            4.50427931039711       -0.28266234113902        0.78683575931184
H            4.43573852706519        0.39080129326588       -0.85918013792160
H            4.57331302919171       -1.37050824764316       -0.62332257952166
H           -3.14144938332428       -0.96578693813495       -0.96987992407161
H           -2.77565642279822       -1.89598673119741        0.49849380308492
H           -1.89441498328373       -2.24022856296756       -1.01031133665184
H           -3.42350199193492        1.49210504896326       -0.12163080857136
H           -3.40174750649095        0.73994160206644        1.47262297108088
H           -2.62302282683458        2.31379904946772        1.22840293998988

          :  Hamiltonian                  GFN1-xTB          :
         :: total energy             -38.277532606546 Eh    ::
         :: gradient norm              0.000830628264 Eh/a0 ::
         :: HOMO-LUMO gap              0.970382858843 eV    ::
         :: SCC energy               -38.591072592219 Eh    ::
         :: -> Gsolv                  -0.121539576893 Eh    ::
         :: repulsion energy           0.321691379214 Eh    ::

    * Orbital Energies and Occupations

         #    Occupation            Energy/Eh            Energy/eV
      -------------------------------------------------------------
         1        2.0000           -0.8004240             -21.7806
       ...           ...                  ...                  ...
        19        2.0000           -0.5147054             -14.0058
        20        2.0000           -0.5091780             -13.8554
        21        2.0000           -0.5042504             -13.7214
        22        2.0000           -0.4878914             -13.2762
        23        2.0000           -0.4668162             -12.7027
        24        2.0000           -0.4598295             -12.5126
        25        2.0000           -0.4554186             -12.3926
        26        2.0000           -0.4387130             -11.9380
        27        2.0000           -0.4071517             -11.0792
        28        2.0000           -0.4023864             -10.9495
        29        2.0000           -0.3699343             -10.0664
        30        2.0000           -0.3650548              -9.9336
        31        2.0000           -0.2578796              -7.0173 (HOMO)
        32                         -0.2222187              -6.0469 (LUMO)
        33                         -0.1399257              -3.8076
        34                         -0.1244545              -3.3866
        35                         -0.0996764              -2.7123
        36                         -0.0994308              -2.7057
        37                         -0.0822773              -2.2389
        38                         -0.0699254              -1.9028
        39                         -0.0532884              -1.4501
        40                         -0.0476760              -1.2973
        41                         -0.0390556              -1.0628
        42                         -0.0355803              -0.9682
       ...                                ...                  ...
        62                          0.7131885              19.4068
      -------------------------------------------------------------
                  HL-Gap            0.0356609 Eh            0.9704 eV

Wiberg/Mayer (AO) data.
largest (>0.10) Wiberg bond orders for each atom

     #   Z sym  total        # sym  WBO       # sym  WBO       # sym  WBO
 ---------------------------------------------------------------------------
     1   6 C    3.932 --    14 H    0.986    13 H    0.979    12 H    0.979
                             2 O    0.970
     2   8 O    1.993 --     1 C    0.970     3 C    0.848
     3   6 C    3.876 --     5 C    1.543     4 O    1.318     2 O    0.848
     4   8 O    1.649 --     3 C    1.318     5 C    0.166
     5   6 C    3.708 --     3 C    1.543     6 N    1.057    11 O    0.837
                             4 O    0.166
     6   7 N    2.755 --     7 N    1.184     5 C    1.057     9 C    0.328
     7   7 N    3.636 --     9 C    1.376     6 N    1.184     8 C    0.952
     8   6 C    3.956 --    17 H    0.985    15 H    0.984    16 H    0.980
                             7 N    0.952
     9   6 C    3.868 --     7 N    1.376    11 O    1.030    10 C    1.024
                             6 N    0.328
    10   6 C    3.994 --     9 C    1.024    20 H    0.983    19 H    0.974
                            18 H    0.971
    11   8 O    2.088 --     9 C    1.030     5 C    0.837
    12   1 H    1.028 --     1 C    0.979
    13   1 H    1.027 --     1 C    0.979
    14   1 H    1.023 --     1 C    0.986
    15   1 H    1.003 --     8 C    0.984
    16   1 H    1.004 --     8 C    0.980
    17   1 H    1.014 --     8 C    0.985
    18   1 H    1.004 --    10 C    0.971
    19   1 H    1.004 --    10 C    0.974
    20   1 H    1.003 --    10 C    0.983
 ---------------------------------------------------------------------------

           -------------------------------------------------
          | TOTAL ENERGY              -38.277532606546 Eh   |
          | GRADIENT NORM               0.000830628264 Eh/α |
          | HOMO-LUMO GAP               0.970382858843 eV   |
           -------------------------------------------------

 * finished run on 2023/06/20 at 14:53:59.817
