   * xtb version 6.5.1 (579679a) compiled by 'ehlert@majestix' on 2022-07-11
          program call               : /lustre/hpc/kemi/ree/PhD/git/ReactivityQM/dep/xtb-6.5.1/bin/xtb --gfn 1 /lustre/hpc/kemi/ree/PhD/git/ReactivityQM/calculations/R02methylcation/reac01prodE03/conf14/R02methylcation_reac01prodE03_conf14_gfn1.xyz --opt --vfukui --chrg -2 --uhf 0 --alpb DMSO

   ID    Z sym.   atoms
    1    6 C      1, 3, 5, 6, 8-11, 13, 15, 18, 19, 22, 24
    2    8 O      2, 4, 14, 20, 23, 25
    3    7 N      7, 12, 16, 17, 21
    4    1 H      26-42

      * Solvation model:               ALPB
        Solvent                        DMSO
        Solvent mass                       7.8130E+01 g/mol
          :  Hamiltonian                  GFN1-xTB          :
 * total energy  :   -83.5549587 Eh     change       -0.4784368E-09 Eh
 * total energy  :   -83.5679118 Eh     change       -0.1295311E-01 Eh
 * total energy  :   -83.5727367 Eh     change       -0.4824878E-02 Eh
 * total energy  :   -83.5737540 Eh     change       -0.1017298E-02 Eh
 * total energy  :   -83.5746526 Eh     change       -0.8986270E-03 Eh
 * total energy  :   -83.5752492 Eh     change       -0.5966023E-03 Eh
 * total energy  :   -83.5757505 Eh     change       -0.5013289E-03 Eh
 * total energy  :   -83.5761111 Eh     change       -0.3605364E-03 Eh
 * total energy  :   -83.5763445 Eh     change       -0.2333971E-03 Eh
 * total energy  :   -83.5765248 Eh     change       -0.1803625E-03 Eh
 * total energy  :   -83.5811896 Eh     change       -0.1069377E-04 Eh
 * total energy  :   -83.5811991 Eh     change       -0.9450149E-05 Eh
 * total energy  :   -83.5812087 Eh     change       -0.9603953E-05 Eh
 * total energy  :   -83.5812183 Eh     change       -0.9629987E-05 Eh
 * total energy  :   -83.5812276 Eh     change       -0.9252398E-05 Eh
 * total energy  :   -83.5812357 Eh     change       -0.8167029E-05 Eh
 * total energy  :   -83.5812423 Eh     change       -0.6546159E-05 Eh
 * total energy  :   -83.5812478 Eh     change       -0.5478562E-05 Eh
 * total energy  :   -83.5812526 Eh     change       -0.4833762E-05 Eh
   *** GEOMETRY OPTIMIZATION CONVERGED AFTER 139 ITERATIONS ***

 final structure:
================
42
 xtb: 6.5.1 (579679a)
C           -3.64378807784998       -2.45503847647911        2.57908555564352
O           -3.53317088268220       -1.10222460546492        2.14905140223463
C           -2.36531140902887       -0.76802174393200        1.48177889928889
O           -1.34827761017657       -0.31280449031388        2.32943780157646
C           -1.20518880971963        1.09808632256745        2.42786131737799
C           -2.20092613413376       -0.80290986441943        0.10904732508275
N           -1.00195034747684       -0.25463606049954       -0.35355661623648
C           -0.78374242867048       -0.16172240813472       -1.62254872149331
C            0.50992739131411        0.46152368567967       -2.13119247505438
C            0.18513946713479        1.76509517211350       -2.88142180823200
C            1.24148144511976       -0.52484351555138       -3.06048752423727
N            1.32336002864196        0.75604208968798       -0.96110311114245
C            2.61685143533347        1.22674782745330       -1.02887122174557
O            3.12625801000388        1.67993417297144       -2.07930520481319
C            3.31755153719149        1.19053319869536        0.22383249242225
N            4.56445949249294        1.59517306428222        0.47367430107666
N            4.80342259467469        1.32420224483471        1.79250548165506
C            3.73368760914740        0.78423694411139        2.27909529437065
C            3.52572276329458        0.31036941648631        3.66990698936491
O            2.74103098780573        0.66131019630438        1.36452684683875
N           -1.68919377941263       -0.58058301098322       -2.54676419288819
C           -2.89890752901775       -1.22670405302285       -2.22162491854886
O           -3.61619176925630       -1.60735955553839       -3.18574595299562
C           -3.17723273659873       -1.37212706252401       -0.81380046486740
O           -4.22300679983531       -1.98885629661013       -0.40497349447300
H           -3.67323966156205       -3.13859133140705        1.72068615002678
H           -4.57743982138289       -2.54037147107861        3.13871068616038
H           -2.80838186938737       -2.73337518516222        3.23375828634215
H           -2.13676198029010        1.57403851014073        2.76130577854035
H           -0.90726605918205        1.53033352633040        1.46293885484742
H           -0.42250434774713        1.29439122502044        3.16353327610298
H           -0.47937673908752        1.55824822291521       -3.71869122578648
H            1.09816871021759        2.21950767718043       -3.26332441665710
H           -0.30514926381141        2.46666579534802       -2.20667166926781
H            0.61792037780990       -0.76278622667147       -3.92031263828197
H            1.46820295898625       -1.44559534015279       -2.52354268240506
H            2.17067873843193       -0.08496217079885       -3.41986686578149
H            1.02899015695167        0.29147446418634       -0.10725442370846
H            4.42902268510305        0.48621883011818        4.24891931828540
H            3.29595084876317       -0.75573530265692        3.67865703056661
H            2.69296907688925        0.83984490178249        4.13385066423146
H           -1.49378925901207       -0.49472731681849       -3.52954212339641

          :  Hamiltonian                  GFN1-xTB          :
         :: total energy             -83.581252603871 Eh    ::
         :: gradient norm              0.000216204150 Eh/a0 ::
         :: HOMO-LUMO gap              0.043607050424 eV    ::
         :: SCC energy               -84.303415653531 Eh    ::
         :: -> Gsolv                  -0.264976004814 Eh    ::
         :: repulsion energy           0.748530751494 Eh    ::

    * Orbital Energies and Occupations

         #    Occupation            Energy/Eh            Energy/eV
      -------------------------------------------------------------
         1        2.0000           -0.8040743             -21.8800
       ...           ...                  ...                  ...
        56        2.0000           -0.4291931             -11.6789
        57        2.0000           -0.4231089             -11.5134
        58        2.0000           -0.4178327             -11.3698
        59        2.0000           -0.4085783             -11.1180
        60        2.0000           -0.4045016             -11.0071
        61        2.0000           -0.4033316             -10.9752
        62        2.0000           -0.3996071             -10.8739
        63        2.0000           -0.3972569             -10.8099
        64        2.0000           -0.3879847             -10.5576
        65        2.0000           -0.3771244             -10.2621
        66        2.0000           -0.3444743              -9.3736
        67        2.0000           -0.3386046              -9.2139
        68        1.3984           -0.2663877              -7.2488 (HOMO)
        69        0.6016           -0.2647852              -7.2052 (LUMO)
        70                         -0.2114101              -5.7528
        71                         -0.2057551              -5.5989
        72                         -0.1785359              -4.8582
        73                         -0.1399008              -3.8069
        74                         -0.1261967              -3.4340
        75                         -0.1054343              -2.8690
        76                         -0.1048011              -2.8518
        77                         -0.0999339              -2.7193
        78                         -0.0972123              -2.6453
        79                         -0.0730823              -1.9887
       ...                                ...                  ...
       134                          0.7291998              19.8425
      -------------------------------------------------------------
                  HL-Gap            0.0016025 Eh            0.0436 eV

Wiberg/Mayer (AO) data.
largest (>0.10) Wiberg bond orders for each atom

     #   Z sym  total        # sym  WBO       # sym  WBO       # sym  WBO
 ---------------------------------------------------------------------------
     1   6 C    3.908 --    27 H    0.987    28 H    0.984    26 H    0.978
                             2 O    0.929
     2   8 O    2.010 --     3 C    0.958     1 C    0.929
     3   6 C    3.550 --     6 C    1.462     2 O    0.958     4 O    0.935
     4   8 O    1.996 --     5 C    0.936     3 C    0.935
     5   6 C    3.913 --    31 H    0.986    29 H    0.983    30 H    0.980
                             4 O    0.936
     6   6 C    3.941 --     3 C    1.462    24 C    1.123     7 N    1.107
     7   7 N    3.000 --     8 C    1.570     6 C    1.107    21 N    0.112
     8   6 C    3.912 --     7 N    1.570    21 N    1.164     9 C    0.974
     9   6 C    3.952 --    10 C    0.983    11 C    0.981     8 C    0.974
                            12 N    0.950
    10   6 C    3.990 --    34 H    0.987    32 H    0.986     9 C    0.983
                            33 H    0.981
    11   6 C    3.989 --    36 H    0.987    35 H    0.985     9 C    0.981
                            37 H    0.981
    12   7 N    3.200 --    13 C    1.142     9 C    0.950    38 H    0.895
                            14 O    0.124
    13   6 C    3.776 --    14 O    1.434    12 N    1.142    15 C    1.131
    14   8 O    1.692 --    13 C    1.434    12 N    0.124
    15   6 C    3.689 --    16 N    1.416    13 C    1.131    20 O    0.973
    16   7 N    2.742 --    15 C    1.416    17 N    1.189
    17   7 N    2.980 --    18 C    1.626    16 N    1.189
    18   6 C    3.816 --    17 N    1.626    20 O    1.045    19 C    1.024
    19   6 C    3.994 --    18 C    1.024    39 H    0.986    41 H    0.971
                            40 H    0.971
    20   8 O    2.187 --    18 C    1.045    15 C    0.973
    21   7 N    3.380 --     8 C    1.164    22 C    1.028    42 H    0.909
                             7 N    0.112
    22   6 C    3.782 --    23 O    1.417    24 C    1.158    21 N    1.028
    23   8 O    1.648 --    22 C    1.417
    24   6 C    3.823 --    25 O    1.365    22 C    1.158     6 C    1.123
    25   8 O    1.598 --    24 C    1.365
    26   1 H    1.043 --     1 C    0.978
    27   1 H    1.022 --     1 C    0.987
    28   1 H    1.018 --     1 C    0.984
    29   1 H    1.016 --     5 C    0.983
    30   1 H    1.034 --     5 C    0.980
    31   1 H    1.021 --     5 C    0.986
    32   1 H    1.006 --    10 C    0.986
    33   1 H    1.020 --    10 C    0.981
    34   1 H    1.009 --    10 C    0.987
    35   1 H    1.005 --    11 C    0.985
    36   1 H    1.007 --    11 C    0.987
    37   1 H    1.016 --    11 C    0.981
    38   1 H    0.983 --    12 N    0.895
    39   1 H    1.005 --    19 C    0.986
    40   1 H    1.000 --    19 C    0.971
    41   1 H    1.001 --    19 C    0.971
    42   1 H    0.965 --    21 N    0.909
 ---------------------------------------------------------------------------

           -------------------------------------------------
          | TOTAL ENERGY              -83.581252603871 Eh   |
          | GRADIENT NORM               0.000216204150 Eh/α |
          | HOMO-LUMO GAP               0.043607050424 eV   |
           -------------------------------------------------

 * finished run on 2023/06/21 at 17:07:38.894
