   * xtb version 6.5.1 (579679a) compiled by 'ehlert@majestix' on 2022-07-11
          program call               : /lustre/hpc/kemi/ree/PhD/git/ReactivityQM/dep/xtb-6.5.1/bin/xtb --gfn 1 /lustre/hpc/kemi/ree/PhD/git/ReactivityQM/calculations/R03/reac02prodN10/conf02/R03_reac02prodN10_conf02_gfn1.xyz --opt --vfukui --chrg 1 --uhf 0 --alpb DMSO

   ID    Z sym.   atoms
    1    6 C      1, 3, 5, 6, 8, 11-16, 18, 20, 23, 24
    2    8 O      2, 4, 7, 9, 19, 25
    3    7 N      10, 17, 21, 22, 26
    4    1 H      27-46

      * Solvation model:               ALPB
        Solvent                        DMSO
        Solvent mass                       7.8130E+01 g/mol
          :  Hamiltonian                  GFN1-xTB          :
 * total energy  :   -86.2747994 Eh     change       -0.3819878E-10 Eh
 * total energy  :   -86.2940810 Eh     change       -0.1928161E-01 Eh
 * total energy  :   -86.3025364 Eh     change       -0.8455441E-02 Eh
 * total energy  :   -86.3042903 Eh     change       -0.1753894E-02 Eh
 * total energy  :   -86.3053281 Eh     change       -0.1037763E-02 Eh
 * total energy  :   -86.3058381 Eh     change       -0.5100015E-03 Eh
 * total energy  :   -86.3062496 Eh     change       -0.4114828E-03 Eh
 * total energy  :   -86.3065862 Eh     change       -0.3365808E-03 Eh
 * total energy  :   -86.3068769 Eh     change       -0.2907030E-03 Eh
 * total energy  :   -86.3071415 Eh     change       -0.2645893E-03 Eh
 * total energy  :   -86.3090650 Eh     change       -0.1011077E-04 Eh
 * total energy  :   -86.3090737 Eh     change       -0.8687566E-05 Eh
 * total energy  :   -86.3090824 Eh     change       -0.8701170E-05 Eh
 * total energy  :   -86.3090917 Eh     change       -0.9335545E-05 Eh
 * total energy  :   -86.3091008 Eh     change       -0.9044572E-05 Eh
 * total energy  :   -86.3091088 Eh     change       -0.7990406E-05 Eh
 * total energy  :   -86.3091152 Eh     change       -0.6398283E-05 Eh
 * total energy  :   -86.3091203 Eh     change       -0.5117194E-05 Eh
 * total energy  :   -86.3091252 Eh     change       -0.4893003E-05 Eh
   *** GEOMETRY OPTIMIZATION CONVERGED AFTER 62 ITERATIONS ***

 final structure:
================
46
 xtb: 6.5.1 (579679a)
C           -5.62336120699438       -0.96174094868277       -2.34334598494277
O           -4.39670958657694       -0.90150331151167       -1.59157167778576
C           -4.33010703466467       -0.03018373244633       -0.62209049136339
O           -5.21943408050748        0.73483405675872       -0.30382961777659
C           -3.01348550160288       -0.02641827925383        0.10352111547094
C           -2.82290840245824        0.88710080811884        1.17083111150323
O           -3.72042462585821        1.72754971457811        1.54232461021002
C           -1.56794027373980        0.82586284593929        1.96460709972899
O           -1.38764199922163        1.45895212358179        2.98254973946056
N           -0.65295816136206       -0.07353655677669        1.47681152633656
C            0.51733086578320       -0.25962384883552        2.33442088120689
C           -0.80960412668312       -0.83806280274609        0.28091207391906
C           -0.30280911069103       -2.27404602497638        0.44460842083460
C            0.05194682060564       -0.09065267585861       -0.97407708227087
C           -0.50642978876869        1.30869937152739       -1.17012686148032
C           -0.12690287226464       -0.93405943437313       -2.23132052617933
N            1.42241388191116       -0.10981163514613       -0.61457716111295
C            2.12915136990880        0.90551095884801       -0.00576611830191
O            1.64421760885364        1.92648145149548        0.42498351506685
C            3.55823307928062        0.55716819069305        0.04965884381121
N            4.09451608802428       -0.54133059696302       -0.40014345015127
N            5.42156014625895       -0.46175675586366       -0.14505011806509
C            5.62075802948716        0.68203092221267        0.44848698323057
C            6.90276030520093        1.23568962161399        0.93181708151004
O            4.48015116905216        1.36682025481581        0.59717655105511
N           -2.07811574558002       -0.85749567369801       -0.26520739291449
H           -5.49142285603215       -1.75542020400574       -3.07465934639523
H           -6.45352680855417       -1.18438788036493       -1.67109543778870
H           -5.79405771442519       -0.00360395518478       -2.83637663099044
H           -4.55256503727760        1.64711423253103        0.98491847977156
H            1.30822320892169       -0.75825127689991        1.78724852660328
H            0.22603028775197       -0.86263750073962        3.19567659945751
H            0.84979987845294        0.72124418677361        2.67605553385402
H           -0.66551946890800       -2.66033450895117        1.39577689813392
H            0.78176602158535       -2.32721962642409        0.42586416456727
H           -0.70852880679933       -2.88517632699610       -0.35785549486285
H            0.20563135480450        1.89119101059491       -1.75302221993872
H           -1.44492363332905        1.25126796394973       -1.71755088290528
H           -0.67789621232703        1.82678321886166       -0.22859820535903
H           -1.18330543884554       -1.06224683148836       -2.45667942093054
H            0.33900238524921       -1.91140331508127       -2.12951964760186
H            0.35400213933446       -0.41069425826123       -3.05787429442296
H            1.96500238583169       -0.91319746170064       -0.90457546405148
H            6.83745567850995        1.44234092722967        2.00004809712898
H            7.11772494284620        2.17416354605310        0.42009788892590
H            7.70290184583345        0.52398701706176        0.74341578575861

          :  Hamiltonian                  GFN1-xTB          :
         :: total energy             -86.309125160904 Eh    ::
         :: gradient norm              0.000250685092 Eh/a0 ::
         :: HOMO-LUMO gap              1.173087979631 eV    ::
         :: SCC energy               -87.130404627263 Eh    ::
         :: -> Gsolv                  -0.105992264151 Eh    ::
         :: repulsion energy           0.853438994108 Eh    ::

    * Orbital Energies and Occupations

         #    Occupation            Energy/Eh            Energy/eV
      -------------------------------------------------------------
         1        2.0000           -0.8879364             -24.1620
       ...           ...                  ...                  ...
        58        2.0000           -0.5315978             -14.4655
        59        2.0000           -0.5305041             -14.4358
        60        2.0000           -0.5292791             -14.4024
        61        2.0000           -0.5238495             -14.2547
        62        2.0000           -0.5224682             -14.2171
        63        2.0000           -0.5097152             -13.8701
        64        2.0000           -0.5027114             -13.6795
        65        2.0000           -0.4971420             -13.5279
        66        2.0000           -0.4910290             -13.3616
        67        2.0000           -0.4870936             -13.2545
        68        2.0000           -0.4762052             -12.9582
        69        2.0000           -0.4702795             -12.7970
        70        2.0000           -0.4688239             -12.7573 (HOMO)
        71                         -0.4257137             -11.5843 (LUMO)
        72                         -0.3598386              -9.7917
        73                         -0.3381750              -9.2022
        74                         -0.2792697              -7.5993
        75                         -0.2718424              -7.3972
        76                         -0.2284228              -6.2157
        77                         -0.2217369              -6.0338
        78                         -0.1673260              -4.5532
        79                         -0.1552237              -4.2239
        80                         -0.1518293              -4.1315
        81                         -0.1485952              -4.0435
       ...                                ...                  ...
       144                          0.7112526              19.3542
      -------------------------------------------------------------
                  HL-Gap            0.0431102 Eh            1.1731 eV

Wiberg/Mayer (AO) data.
largest (>0.10) Wiberg bond orders for each atom

     #   Z sym  total        # sym  WBO       # sym  WBO       # sym  WBO
 ---------------------------------------------------------------------------
     1   6 C    3.840 --    27 H    0.984    28 H    0.977    29 H    0.977
                             2 O    0.867
     2   8 O    2.254 --     3 C    1.193     1 C    0.867     4 O    0.144
     3   6 C    3.857 --     4 O    1.618     2 O    1.193     5 C    0.970
     4   8 O    1.980 --     3 C    1.618     2 O    0.144
     5   6 C    3.963 --    26 N    1.521     6 C    1.220     3 C    0.970
     6   6 C    3.855 --     7 O    1.323     5 C    1.220     8 C    0.999
     7   8 O    2.229 --     6 C    1.323    30 H    0.710
     8   6 C    3.922 --     9 O    1.621    10 N    1.178     6 C    0.999
     9   8 O    1.941 --     8 C    1.621    10 N    0.182
    10   7 N    3.490 --     8 C    1.178    12 C    0.997    11 C    0.928
                             9 O    0.182
    11   6 C    3.909 --    31 H    0.979    33 H    0.968    32 H    0.961
                            10 N    0.928
    12   6 C    3.912 --    26 N    1.132    10 N    0.997    13 C    0.955
                            14 C    0.675
    13   6 C    3.967 --    35 H    0.978    36 H    0.978    34 H    0.974
                            12 C    0.955
    14   6 C    3.899 --    17 N    1.031    15 C    1.008    16 C    0.999
                            12 C    0.675
    15   6 C    3.984 --    14 C    1.008    38 H    0.983    39 H    0.970
                            37 H    0.963
    16   6 C    3.979 --    14 C    0.999    40 H    0.978    41 H    0.977
                            42 H    0.968
    17   7 N    3.375 --    18 C    1.138    14 C    1.031    43 H    0.882
                            19 O    0.132
    18   6 C    3.903 --    19 O    1.645    17 N    1.138    20 C    1.014
    19   8 O    1.955 --    18 C    1.645    17 N    0.132
    20   6 C    3.880 --    21 N    1.580    25 O    1.066    18 C    1.014
    21   7 N    3.026 --    20 C    1.580    22 N    1.228
    22   7 N    2.981 --    23 C    1.574    21 N    1.228
    23   6 C    3.858 --    22 N    1.574    25 O    1.091    24 C    1.035
    24   6 C    3.982 --    23 C    1.035    46 H    0.981    44 H    0.960
                            45 H    0.959
    25   8 O    2.341 --    23 C    1.091    20 C    1.066
    26   7 N    3.040 --     5 C    1.521    12 C    1.132
    27   1 H    1.006 --     1 C    0.984
    28   1 H    1.001 --     1 C    0.977
    29   1 H    1.001 --     1 C    0.977
    30   1 H    0.815 --     7 O    0.710
    31   1 H    1.002 --    11 C    0.979
    32   1 H    0.994 --    11 C    0.961
    33   1 H    1.005 --    11 C    0.968
    34   1 H    0.992 --    13 C    0.974
    35   1 H    0.997 --    13 C    0.978
    36   1 H    0.999 --    13 C    0.978
    37   1 H    0.996 --    15 C    0.963
    38   1 H    1.000 --    15 C    0.983
    39   1 H    1.011 --    15 C    0.970
    40   1 H    1.006 --    16 C    0.978
    41   1 H    0.994 --    16 C    0.977
    42   1 H    0.990 --    16 C    0.968
    43   1 H    0.946 --    17 N    0.882
    44   1 H    0.994 --    24 C    0.960
    45   1 H    0.994 --    24 C    0.959
    46   1 H    0.997 --    24 C    0.981
 ---------------------------------------------------------------------------

           -------------------------------------------------
          | TOTAL ENERGY              -86.309125160904 Eh   |
          | GRADIENT NORM               0.000250685092 Eh/α |
          | HOMO-LUMO GAP               1.173087979631 eV   |
           -------------------------------------------------

 * finished run on 2023/06/20 at 15:45:11.375
