   * xtb version 6.5.1 (579679a) compiled by 'ehlert@majestix' on 2022-07-11
          program call               : /lustre/hpc/kemi/ree/PhD/git/ReactivityQM/dep/xtb-6.5.1/bin/xtb --gfn 1 /lustre/hpc/kemi/ree/PhD/git/ReactivityQM/calculations/R02methylcation/reac01prodN03/conf19/R02methylcation_reac01prodN03_conf19_gfn1.xyz --opt --vfukui --chrg 0 --uhf 0 --alpb DMSO

   ID    Z sym.   atoms
    1    6 C      1, 3, 5, 6, 8-11, 13, 15, 18, 19, 22, 24
    2    8 O      2, 4, 14, 20, 23, 25
    3    7 N      7, 12, 16, 17, 21
    4    1 H      26-42

      * Solvation model:               ALPB
        Solvent                        DMSO
        Solvent mass                       7.8130E+01 g/mol
          :  Hamiltonian                  GFN1-xTB          :
 * total energy  :   -82.9825636 Eh     change       -0.7744916E-11 Eh
 * total energy  :   -82.9945399 Eh     change       -0.1197624E-01 Eh
 * total energy  :   -82.9990901 Eh     change       -0.4550181E-02 Eh
 * total energy  :   -82.9999699 Eh     change       -0.8798767E-03 Eh
 * total energy  :   -83.0004188 Eh     change       -0.4488994E-03 Eh
 * total energy  :   -83.0006004 Eh     change       -0.1815321E-03 Eh
 * total energy  :   -83.0007452 Eh     change       -0.1447899E-03 Eh
 * total energy  :   -83.0008748 Eh     change       -0.1296773E-03 Eh
 * total energy  :   -83.0009965 Eh     change       -0.1216176E-03 Eh
 * total energy  :   -83.0011056 Eh     change       -0.1091440E-03 Eh
 * total energy  :   -83.0015677 Eh     change       -0.1528284E-04 Eh
 * total energy  :   -83.0015755 Eh     change       -0.7813058E-05 Eh
 * total energy  :   -83.0015863 Eh     change       -0.1080630E-04 Eh
 * total energy  :   -83.0015962 Eh     change       -0.9938296E-05 Eh
 * total energy  :   -83.0016035 Eh     change       -0.7312734E-05 Eh
 * total energy  :   -83.0016107 Eh     change       -0.7144027E-05 Eh
 * total energy  :   -83.0016181 Eh     change       -0.7422025E-05 Eh
 * total energy  :   -83.0016242 Eh     change       -0.6082001E-05 Eh
 * total energy  :   -83.0016288 Eh     change       -0.4651263E-05 Eh
   *** GEOMETRY OPTIMIZATION CONVERGED AFTER 33 ITERATIONS ***

 final structure:
================
42
 xtb: 6.5.1 (579679a)
C           -6.03162392456566       -0.83276550792459       -1.07204241717310
O           -5.08432138951307       -0.15011885563719       -0.23450142589828
C           -3.81221742607703       -0.43154936374000       -0.41048931146068
O           -3.37492334000492       -1.22267123703804       -1.20280963404094
C           -2.90043560898080        0.36866924199951        0.56707589385867
C           -3.58173862151309        1.64059534820201        1.07126413985860
N           -1.72637773348578        0.71306327961874       -0.20052770620190
C           -0.72757118121344       -0.06410669007911       -0.24054419683226
C            0.42647177738603        0.23082344270848       -1.17449205804595
C            0.34213140941186       -0.76434547586272       -2.34172854335094
C            0.35065432680404        1.67580814109671       -1.67438368978510
N            1.66385611051400        0.02801695866878       -0.41409309352621
C            2.89435517418228        0.14737722564358       -0.96806838544263
O            3.12836289221466        0.27279837304773       -2.15491064595187
C            3.94651471250332        0.09195028079401        0.07817865557336
N            3.74707587790875        0.00905863828376        1.35959939911115
N            4.97459700930162        0.01082426814818        1.94913255361616
C            5.84576074349796        0.09731129738663        0.98917607210923
C            7.31958749745610        0.14124106174252        1.10896913536606
O            5.25776374170044        0.15266135979979       -0.21471292203772
N           -0.62181462015398       -1.23799473168415        0.49672835896305
C           -1.49200760245031       -1.60511637356140        1.47798777190594
O           -1.35334962372120       -2.61301585464857        2.13242990339289
C           -2.64082898358100       -0.61206632294544        1.69769623714719
O           -3.31236109131988       -0.64615571021880        2.69500050499829
H           -5.75648515778717       -0.70588556267570       -2.12042544423902
H           -6.99927815125742       -0.37901597557497       -0.87172415510519
H           -6.04621828319127       -1.89504426634596       -0.82167235975288
H           -2.87773869746223        2.20448715472197        1.68029340586176
H           -4.45101202646631        1.38332536667345        1.67319339080598
H           -3.89151883640526        2.25101089526707        0.22642934341228
H           -0.65288566693999       -0.71269967077241       -2.78217642441310
H            0.52114987885176       -1.77704446051775       -1.98540127241187
H            1.08140433175272       -0.51868463236741       -3.10115295685396
H            1.17374142857142        1.87421558997925       -2.35808505506451
H            0.40569534228957        2.36498069285731       -0.83356184179517
H           -0.59305676247402        1.82987960252256       -2.19458116604096
H            1.60725697659612        0.05762041681572        0.59339679537566
H            7.69807995756700        1.07670954957592        0.69681271913410
H            7.60356529242661        0.06333503552195        2.15554537449482
H            7.76458212156690       -0.67897273640067        0.54612713445012
H            0.17516312606160       -1.83850779308063        0.34773791598786

          :  Hamiltonian                  GFN1-xTB          :
         :: total energy             -83.001628836661 Eh    ::
         :: gradient norm              0.000378343105 Eh/a0 ::
         :: HOMO-LUMO gap              2.402686937386 eV    ::
         :: SCC energy               -83.789665265529 Eh    ::
         :: -> Gsolv                  -0.050903824666 Eh    ::
         :: repulsion energy           0.814535338124 Eh    ::

    * Orbital Energies and Occupations

         #    Occupation            Energy/Eh            Energy/eV
      -------------------------------------------------------------
         1        2.0000           -0.8652442             -23.5445
       ...           ...                  ...                  ...
        55        2.0000           -0.5125999             -13.9486
        56        2.0000           -0.5077737             -13.8172
        57        2.0000           -0.5075712             -13.8117
        58        2.0000           -0.5027648             -13.6809
        59        2.0000           -0.4932602             -13.4223
        60        2.0000           -0.4845958             -13.1865
        61        2.0000           -0.4729421             -12.8694
        62        2.0000           -0.4657038             -12.6724
        63        2.0000           -0.4630069             -12.5991
        64        2.0000           -0.4606761             -12.5356
        65        2.0000           -0.4541528             -12.3581
        66        2.0000           -0.4506611             -12.2631
        67        2.0000           -0.4423433             -12.0368 (HOMO)
        68                         -0.3540462              -9.6341 (LUMO)
        69                         -0.3137454              -8.5374
        70                         -0.2988978              -8.1334
        71                         -0.2712326              -7.3806
        72                         -0.2583096              -7.0290
        73                         -0.2269608              -6.1759
        74                         -0.2016466              -5.4871
        75                         -0.1477038              -4.0192
        76                         -0.1426338              -3.8813
        77                         -0.1307125              -3.5569
        78                         -0.1265045              -3.4424
       ...                                ...                  ...
       134                          0.7569203              20.5969
      -------------------------------------------------------------
                  HL-Gap            0.0882971 Eh            2.4027 eV

Wiberg/Mayer (AO) data.
largest (>0.10) Wiberg bond orders for each atom

     #   Z sym  total        # sym  WBO       # sym  WBO       # sym  WBO
 ---------------------------------------------------------------------------
     1   6 C    3.852 --    27 H    0.985    26 H    0.980    28 H    0.979
                             2 O    0.874
     2   8 O    2.232 --     3 C    1.159     1 C    0.874     4 O    0.140
     3   6 C    3.845 --     4 O    1.695     2 O    1.159     5 C    0.863
     4   8 O    1.965 --     3 C    1.695     2 O    0.140
     5   6 C    3.963 --     6 C    0.982     7 N    0.980    24 C    0.949
                             3 C    0.863
     6   6 C    3.985 --    31 H    0.985    29 H    0.983     5 C    0.982
                            30 H    0.982
     7   7 N    3.029 --     8 C    1.761     5 C    0.980
     8   6 C    3.926 --     7 N    1.761    21 N    1.065     9 C    0.978
     9   6 C    3.933 --    11 C    0.991     8 C    0.978    10 C    0.976
                            12 N    0.923
    10   6 C    3.988 --    32 H    0.984    33 H    0.984    34 H    0.977
                             9 C    0.976
    11   6 C    3.989 --     9 C    0.991    36 H    0.985    37 H    0.983
                            35 H    0.982
    12   7 N    3.326 --    13 C    1.234     9 C    0.923    38 H    0.895
                            14 O    0.173
    13   6 C    3.915 --    14 O    1.607    12 N    1.234    15 C    0.990
    14   8 O    1.920 --    13 C    1.607    12 N    0.173
    15   6 C    3.876 --    16 N    1.608    20 O    1.065    13 C    0.990
    16   7 N    3.018 --    15 C    1.608    17 N    1.202
    17   7 N    2.981 --    18 C    1.603    16 N    1.202
    18   6 C    3.870 --    17 N    1.603    20 O    1.084    19 C    1.032
    19   6 C    3.986 --    18 C    1.032    40 H    0.983    41 H    0.964
                            39 H    0.962
    20   8 O    2.332 --    18 C    1.084    15 C    1.065
    21   7 N    3.430 --    22 C    1.187     8 C    1.065    42 H    0.881
                            23 O    0.149
    22   6 C    3.893 --    23 O    1.674    21 N    1.187    24 C    0.906
    23   8 O    1.958 --    22 C    1.674    21 N    0.149
    24   6 C    3.847 --    25 O    1.812     5 C    0.949    22 C    0.906
    25   8 O    2.027 --    24 C    1.812
    26   1 H    1.004 --     1 C    0.980
    27   1 H    1.007 --     1 C    0.985
    28   1 H    1.003 --     1 C    0.979
    29   1 H    1.001 --     6 C    0.983
    30   1 H    1.008 --     6 C    0.982
    31   1 H    1.003 --     6 C    0.985
    32   1 H    1.003 --    10 C    0.984
    33   1 H    1.000 --    10 C    0.984
    34   1 H    1.010 --    10 C    0.977
    35   1 H    1.005 --    11 C    0.982
    36   1 H    1.004 --    11 C    0.985
    37   1 H    1.008 --    11 C    0.983
    38   1 H    0.952 --    12 N    0.895
    39   1 H    0.996 --    19 C    0.962
    40   1 H    0.998 --    19 C    0.983
    41   1 H    0.996 --    19 C    0.964
    42   1 H    0.927 --    21 N    0.881
 ---------------------------------------------------------------------------

           -------------------------------------------------
          | TOTAL ENERGY              -83.001628836661 Eh   |
          | GRADIENT NORM               0.000378343105 Eh/α |
          | HOMO-LUMO GAP               2.402686937386 eV   |
           -------------------------------------------------

 * finished run on 2023/06/21 at 17:32:37.751
