   * xtb version 6.5.1 (579679a) compiled by 'ehlert@majestix' on 2022-07-11
          program call               : /lustre/hpc/kemi/ree/PhD/git/ReactivityQM/dep/xtb-6.5.1/bin/xtb --gfn 1 /lustre/hpc/kemi/ree/PhD/git/ReactivityQM/calculations/R02methylcation/reac01prodN08/conf16/R02methylcation_reac01prodN08_conf16_gfn1.xyz --opt --vfukui --chrg 0 --uhf 0 --alpb DMSO

   ID    Z sym.   atoms
    1    6 C      1, 3, 5, 7-10, 12, 14, 17, 18, 21, 23, 25
    2    8 O      2, 4, 13, 19, 22, 24
    3    7 N      6, 11, 15, 16, 20
    4    1 H      26-42

      * Solvation model:               ALPB
        Solvent                        DMSO
        Solvent mass                       7.8130E+01 g/mol
          :  Hamiltonian                  GFN1-xTB          :
 * total energy  :   -82.9957498 Eh     change       -0.1553246E-10 Eh
 * total energy  :   -83.0103218 Eh     change       -0.1457196E-01 Eh
 * total energy  :   -83.0152751 Eh     change       -0.4953344E-02 Eh
 * total energy  :   -83.0164064 Eh     change       -0.1131313E-02 Eh
 * total energy  :   -83.0169595 Eh     change       -0.5531132E-03 Eh
 * total energy  :   -83.0171783 Eh     change       -0.2187994E-03 Eh
 * total energy  :   -83.0173218 Eh     change       -0.1434657E-03 Eh
 * total energy  :   -83.0174204 Eh     change       -0.9857178E-04 Eh
 * total energy  :   -83.0174834 Eh     change       -0.6306033E-04 Eh
 * total energy  :   -83.0175220 Eh     change       -0.3858038E-04 Eh
 * total energy  :   -83.0178987 Eh     change       -0.1335830E-02 Eh
 * total energy  :   -83.0179504 Eh     change       -0.5167998E-04 Eh
 * total energy  :   -83.0179665 Eh     change       -0.1605942E-04 Eh
 * total energy  :   -83.0179720 Eh     change       -0.5561051E-05 Eh
 * total energy  :   -83.0179792 Eh     change       -0.7208234E-05 Eh
 * total energy  :   -83.0179853 Eh     change       -0.6105307E-05 Eh
 * total energy  :   -83.0179915 Eh     change       -0.6125979E-05 Eh
 * total energy  :   -83.0179970 Eh     change       -0.5534072E-05 Eh
 * total energy  :   -83.0180010 Eh     change       -0.4044756E-05 Eh
   *** GEOMETRY OPTIMIZATION CONVERGED AFTER 42 ITERATIONS ***

 final structure:
================
42
 xtb: 6.5.1 (579679a)
C           -4.91787619022942        2.38789266189966        1.94322517026941
O           -3.84467251982199        1.58667507585641        1.44316400348396
C           -4.09246904060863        0.89335531929100        0.32858287220419
O           -5.15741727252122        0.92811174135380       -0.24269432279476
C           -2.90497473217747        0.09513857869595       -0.09999604353188
N           -1.81028139065577        0.19992175181510        0.71733763909480
C           -0.73639530374459       -0.44829691938599        0.42735821175108
C            0.47142683433948       -0.37369166980545        1.33545294929989
C            0.31336391945681        0.78489860287415        2.32406746986081
C            0.61033265779825       -1.71560788648871        2.07048419532044
N            1.64244776071887       -0.14825824732785        0.48071898784920
C            2.90472603977814       -0.07481285355153        0.96030461850638
O            3.23604064901777       -0.25734023603887        2.11695637029668
C            3.86181518194051        0.25147909602563       -0.12749777463638
N            3.56169335088451        0.48504072820176       -1.36997790288276
N            4.73386595006167        0.73735069168047       -2.01631973039699
C            5.67511622777694        0.64202201023826       -1.12598801343788
C            7.12942990184040        0.82724230649863       -1.32384345701388
O            5.18704826734870        0.33923998273842        0.08571342924366
N           -0.65897732908892       -1.25174250913126       -0.67176343011388
C           -1.68617644826501       -1.44225093980342       -1.57392362856061
O           -1.52422279721592       -2.18264387536447       -2.53275254772691
C           -2.89704953954900       -0.68802884252615       -1.23484939787275
O           -3.99633516362592       -0.74202549035634       -1.99480463798534
C           -4.08180669712827       -1.51852880438383       -3.18946978176772
H           -5.77060495033533        1.75534845259225        2.20221242046009
H           -5.22528929973117        3.11829153909365        1.19050402889506
H           -4.54171896747320        2.89503231036451        2.82946972679988
H            1.17490759493665        0.82903394008814        2.98730768758585
H           -0.58787283654173        0.63254449915037        2.91578652845479
H            0.22520662995812        1.72555899065187        1.78273814148489
H            0.80343010261246       -2.51336649084669        1.35616628979850
H            1.43131946498664       -1.66993865883780        2.78312116905725
H           -0.31302769535224       -1.93144728015402        2.60559775678087
H            1.49217844443796        0.10657276794100       -0.48336726778597
H            7.33792706679332        0.98929119800296       -2.37875801289883
H            7.47706703390372        1.68556179189202       -0.74827733467392
H            7.66708192145025       -0.05397890696289       -0.97358704632163
H            0.18860008668258       -1.76384862524096       -0.86540209832631
H           -3.94689047729116       -2.58174361617329       -2.97863124735251
H           -5.08707218565449       -1.34600156431270       -3.57642211711475
H           -3.34389724971650       -1.19205262025786       -3.92562487330383

          :  Hamiltonian                  GFN1-xTB          :
         :: total energy             -83.018001033278 Eh    ::
         :: gradient norm              0.000517042965 Eh/a0 ::
         :: HOMO-LUMO gap              2.762323159446 eV    ::
         :: SCC energy               -83.802083349798 Eh    ::
         :: -> Gsolv                  -0.052230558961 Eh    ::
         :: repulsion energy           0.808966362583 Eh    ::

    * Orbital Energies and Occupations

         #    Occupation            Energy/Eh            Energy/eV
      -------------------------------------------------------------
         1        2.0000           -0.8649205             -23.5357
       ...           ...                  ...                  ...
        55        2.0000           -0.5071453             -13.8001
        56        2.0000           -0.5032475             -13.6941
        57        2.0000           -0.4974263             -13.5357
        58        2.0000           -0.4870019             -13.2520
        59        2.0000           -0.4851622             -13.2019
        60        2.0000           -0.4838584             -13.1665
        61        2.0000           -0.4684105             -12.7461
        62        2.0000           -0.4631038             -12.6017
        63        2.0000           -0.4592971             -12.4981
        64        2.0000           -0.4534954             -12.3402
        65        2.0000           -0.4510538             -12.2738
        66        2.0000           -0.4487086             -12.2100
        67        2.0000           -0.4291922             -11.6789 (HOMO)
        68                         -0.3276787              -8.9166 (LUMO)
        69                         -0.3128874              -8.5141
        70                         -0.2875356              -7.8242
        71                         -0.2580183              -7.0210
        72                         -0.2425790              -6.6009
        73                         -0.2008273              -5.4648
        74                         -0.1633861              -4.4460
        75                         -0.1425403              -3.8787
        76                         -0.1385648              -3.7705
        77                         -0.1333508              -3.6287
        78                         -0.1310084              -3.5649
       ...                                ...                  ...
       134                          0.7331179              19.9492
      -------------------------------------------------------------
                  HL-Gap            0.1015135 Eh            2.7623 eV

Wiberg/Mayer (AO) data.
largest (>0.10) Wiberg bond orders for each atom

     #   Z sym  total        # sym  WBO       # sym  WBO       # sym  WBO
 ---------------------------------------------------------------------------
     1   6 C    3.873 --    28 H    0.986    27 H    0.979    26 H    0.979
                             2 O    0.899
     2   8 O    2.197 --     3 C    1.108     1 C    0.899     4 O    0.134
     3   6 C    3.852 --     4 O    1.660     2 O    1.108     5 C    1.002
     4   8 O    1.923 --     3 C    1.660     2 O    0.134
     5   6 C    3.963 --    23 C    1.478     6 N    1.186     3 C    1.002
     6   7 N    3.028 --     7 C    1.588     5 C    1.186
     7   6 C    3.930 --     6 N    1.588    20 N    1.166     8 C    0.981
     8   6 C    3.933 --     9 C    0.992     7 C    0.981    10 C    0.976
                            11 N    0.921
     9   6 C    3.989 --     8 C    0.992    31 H    0.985    30 H    0.984
                            29 H    0.982
    10   6 C    3.987 --    34 H    0.985    32 H    0.984    33 H    0.977
                             8 C    0.976
    11   7 N    3.333 --    12 C    1.241     8 C    0.921    35 H    0.894
                            13 O    0.175
    12   6 C    3.915 --    13 O    1.601    11 N    1.241    14 C    0.990
    13   8 O    1.917 --    12 C    1.601    11 N    0.175
    14   6 C    3.876 --    15 N    1.609    19 O    1.065    12 C    0.990
    15   7 N    3.018 --    14 C    1.609    16 N    1.201
    16   7 N    2.981 --    17 C    1.603    15 N    1.201
    17   6 C    3.870 --    16 N    1.603    19 O    1.083    18 C    1.032
    18   6 C    3.986 --    17 C    1.032    36 H    0.982    38 H    0.965
                            37 H    0.961
    19   8 O    2.331 --    17 C    1.083    14 C    1.065
    20   7 N    3.464 --     7 C    1.166    21 C    1.128    39 H    0.883
                            22 O    0.133
    21   6 C    3.909 --    22 O    1.578    20 N    1.128    23 C    1.066
    22   8 O    1.903 --    21 C    1.578    20 N    0.133
    23   6 C    3.919 --     5 C    1.478    24 O    1.104    21 C    1.066
    24   8 O    2.201 --    23 C    1.104    25 C    0.896
    25   6 C    3.871 --    41 H    0.984    42 H    0.979    40 H    0.978
                            24 O    0.896
    26   1 H    1.007 --     1 C    0.979
    27   1 H    1.008 --     1 C    0.979
    28   1 H    1.011 --     1 C    0.986
    29   1 H    1.007 --     9 C    0.982
    30   1 H    1.009 --     9 C    0.984
    31   1 H    1.005 --     9 C    0.985
    32   1 H    1.001 --    10 C    0.984
    33   1 H    1.009 --    10 C    0.977
    34   1 H    1.001 --    10 C    0.985
    35   1 H    0.951 --    11 N    0.894
    36   1 H    0.998 --    18 C    0.982
    37   1 H    0.996 --    18 C    0.961
    38   1 H    0.996 --    18 C    0.965
    39   1 H    0.929 --    20 N    0.883
    40   1 H    1.014 --    25 C    0.978
    41   1 H    1.012 --    25 C    0.984
    42   1 H    1.014 --    25 C    0.979
 ---------------------------------------------------------------------------

           -------------------------------------------------
          | TOTAL ENERGY              -83.018001033278 Eh   |
          | GRADIENT NORM               0.000517042965 Eh/α |
          | HOMO-LUMO GAP               2.762323159446 eV   |
           -------------------------------------------------

 * finished run on 2023/06/21 at 17:39:07.713
