   * xtb version 6.5.1 (579679a) compiled by 'ehlert@majestix' on 2022-07-11
          program call               : /lustre/hpc/kemi/ree/PhD/git/ReactivityQM/dep/xtb-6.5.1/bin/xtb --gfn 1 /lustre/hpc/kemi/ree/PhD/git/ReactivityQM/calculations/R02deprot/reac01prodN14/conf16/R02deprot_reac01prodN14_conf16_gfn1.xyz --opt --vfukui --chrg 0 --uhf 0 --alpb DMSO

   ID    Z sym.   atoms
    1    6 C      1, 3, 5, 7-10, 12, 14, 17-19, 22, 24
    2    8 O      2, 4, 13, 20, 23, 25
    3    7 N      6, 11, 15, 16, 21
    4    1 H      26-42

      * Solvation model:               ALPB
        Solvent                        DMSO
        Solvent mass                       7.8130E+01 g/mol
          :  Hamiltonian                  GFN1-xTB          :
 * total energy  :   -82.9163542 Eh     change       -0.6001244E-10 Eh
 * total energy  :   -82.9273109 Eh     change       -0.1095673E-01 Eh
 * total energy  :   -82.9309438 Eh     change       -0.3632872E-02 Eh
 * total energy  :   -82.9313989 Eh     change       -0.4551183E-03 Eh
 * total energy  :   -82.9316521 Eh     change       -0.2531870E-03 Eh
 * total energy  :   -82.9317535 Eh     change       -0.1013575E-03 Eh
 * total energy  :   -82.9318612 Eh     change       -0.1077320E-03 Eh
 * total energy  :   -82.9319755 Eh     change       -0.1142782E-03 Eh
 * total energy  :   -82.9320713 Eh     change       -0.9585282E-04 Eh
 * total energy  :   -82.9321379 Eh     change       -0.6656932E-04 Eh
 * total energy  :   -82.9325979 Eh     change       -0.1051103E-04 Eh
 * total energy  :   -82.9326092 Eh     change       -0.1126003E-04 Eh
 * total energy  :   -82.9326206 Eh     change       -0.1144391E-04 Eh
 * total energy  :   -82.9326313 Eh     change       -0.1065160E-04 Eh
 * total energy  :   -82.9326409 Eh     change       -0.9620294E-05 Eh
 * total energy  :   -82.9326498 Eh     change       -0.8908578E-05 Eh
 * total energy  :   -82.9326574 Eh     change       -0.7530445E-05 Eh
 * total energy  :   -82.9326628 Eh     change       -0.5480821E-05 Eh
 * total energy  :   -82.9326670 Eh     change       -0.4165818E-05 Eh
   *** GEOMETRY OPTIMIZATION CONVERGED AFTER 35 ITERATIONS ***

 final structure:
================
42
 xtb: 6.5.1 (579679a)
C           -7.09380738808435        0.06830544066267        0.43798289324774
O           -5.71501937227885        0.16438737901760        0.80577133056877
C           -4.82576062177022       -0.11619771715573       -0.14451904940029
O           -5.13682908852256       -0.43938205144843       -1.26853040198910
C           -3.40805191130163        0.01111046169674        0.31453996509285
N           -2.48747006810630       -0.24284654762163       -0.63400773926965
C           -1.19505319291371       -0.14826958581007       -0.31555461401115
C           -0.23206059534568       -0.44986121007277       -1.44733903942350
C           -0.50622073589312        0.50359981498793       -2.61860596798585
C           -0.41124421833543       -1.91289694680014       -1.87940697276387
N            1.11806710548636       -0.24331627190181       -0.93167237745158
C            2.23400653031476       -0.40648423542503       -1.65112248427419
O            2.30315402685980       -0.73461147138220       -2.82501675345190
C            3.46750874505121       -0.13819243015804       -0.85395687477589
N            4.72535577614803       -0.22128586782459       -1.33442009636550
N            5.53864565150411        0.06384918821266       -0.39037576052807
C            4.79887370142803        0.35738509975079        0.80635437390688
C            5.13207498342840       -0.65635899512365        1.90362388290664
C            5.04649657190101        1.80103731974746        1.24923133105740
O            3.43469743002326        0.20091175460081        0.40579147940645
N           -0.69123307170015        0.16543679936783        0.85916950938404
C           -1.54768402593211        0.43602476261136        1.88878599944883
O           -1.18905659043350        0.73899068021155        3.02739440905320
C           -2.99086392649081        0.35506716659687        1.59004966421248
O           -3.80266751135189        0.62620061498572        2.60447369871239
H           -7.67122793019123        0.32092824384336        1.32478769455402
H           -7.32579578623739       -0.94809051068395        0.11071701808409
H           -7.31616685290561        0.76762768191775       -0.37172714995411
H           -1.55095534721283        0.40743612352932       -2.91129580577608
H            0.12924414543119        0.25579081936526       -3.46671798514780
H           -0.31490356825886        1.53129812914902       -2.31426614808246
H           -0.17163580466984       -2.57594247668142       -1.04980978573985
H            0.23955063412707       -2.14123495859990       -2.72137401628116
H           -1.44850462222008       -2.06891999216018       -2.17262688382814
H            1.17168484080221        0.02927660278634        0.04607807059692
H            4.93369787825703       -1.66192181220260        1.53898459617007
H            4.51364812086347       -0.45498293866897        2.77477262280827
H            6.18221716787127       -0.56193229710552        2.16748509159944
H            4.43883707558127        2.01622893671560        2.12461233060072
H            6.09897308676141        1.92132163164857        1.49270088710368
H            4.77693343314259        2.47828577334264        0.44185852926475
H           -3.25145367480747        0.83544089207614        3.38718152871523

          :  Hamiltonian                  GFN1-xTB          :
         :: total energy             -82.932667000907 Eh    ::
         :: gradient norm              0.000205048186 Eh/a0 ::
         :: HOMO-LUMO gap              0.061253549931 eV    ::
         :: SCC energy               -83.691514787017 Eh    ::
         :: -> Gsolv                  -0.055230439621 Eh    ::
         :: repulsion energy           0.784092832557 Eh    ::

    * Orbital Energies and Occupations

         #    Occupation            Energy/Eh            Energy/eV
      -------------------------------------------------------------
         1        2.0000           -0.8881492             -24.1678
       ...           ...                  ...                  ...
        55        2.0000           -0.5104010             -13.8887
        56        2.0000           -0.5017930             -13.6545
        57        2.0000           -0.5006055             -13.6222
        58        2.0000           -0.4943702             -13.4525
        59        2.0000           -0.4863682             -13.2348
        60        2.0000           -0.4801693             -13.0661
        61        2.0000           -0.4746693             -12.9164
        62        2.0000           -0.4677457             -12.7280
        63        2.0000           -0.4664299             -12.6922
        64        2.0000           -0.4568516             -12.4316
        65        2.0000           -0.4460768             -12.1384
        66        1.9992           -0.4167035             -11.3391
        67        1.5320           -0.4104420             -11.1687 (HOMO)
        68        0.4688           -0.4081909             -11.1074 (LUMO)
        69                         -0.3227777              -8.7832
        70                         -0.3083797              -8.3914
        71                         -0.2715296              -7.3887
        72                         -0.2243592              -6.1051
        73                         -0.2213274              -6.0226
        74                         -0.1473774              -4.0103
        75                         -0.1456713              -3.9639
        76                         -0.1402494              -3.8164
        77                         -0.1359530              -3.6995
        78                         -0.1210643              -3.2943
       ...                                ...                  ...
       134                          0.7291780              19.8419
      -------------------------------------------------------------
                  HL-Gap            0.0022510 Eh            0.0613 eV

Wiberg/Mayer (AO) data.
largest (>0.10) Wiberg bond orders for each atom

     #   Z sym  total        # sym  WBO       # sym  WBO       # sym  WBO
 ---------------------------------------------------------------------------
     1   6 C    3.872 --    26 H    0.986    27 H    0.979    28 H    0.979
                             2 O    0.897
     2   8 O    2.202 --     3 C    1.116     1 C    0.897     4 O    0.135
     3   6 C    3.845 --     4 O    1.659     2 O    1.116     5 C    0.991
     4   8 O    1.917 --     3 C    1.659     2 O    0.135
     5   6 C    3.917 --    24 C    1.376     6 N    1.314     3 C    0.991
     6   7 N    2.854 --     7 C    1.334     5 C    1.314
     7   6 C    3.911 --    21 N    1.454     6 N    1.334     8 C    0.982
     8   6 C    3.923 --     7 C    0.982     9 C    0.974    10 C    0.971
                            11 N    0.925
     9   6 C    3.982 --    31 H    0.986    29 H    0.983    30 H    0.982
                             8 C    0.974
    10   6 C    3.981 --    32 H    0.986    34 H    0.983    33 H    0.982
                             8 C    0.971
    11   7 N    3.383 --    12 C    1.293     8 C    0.925    35 H    0.866
                            13 O    0.202
    12   6 C    3.921 --    13 O    1.566    11 N    1.293    14 C    0.979
    13   8 O    1.885 --    12 C    1.566    11 N    0.202
    14   6 C    3.637 --    15 N    1.290    20 O    1.205    12 C    0.979
    15   7 N    2.993 --    16 N    1.565    14 C    1.290
    16   7 N    2.721 --    15 N    1.565    17 C    1.027
    17   6 C    3.833 --    16 N    1.027    19 C    0.936    18 C    0.935
                            20 O    0.869
    18   6 C    3.940 --    36 H    0.982    38 H    0.981    37 H    0.980
                            17 C    0.935
    19   6 C    3.940 --    41 H    0.982    40 H    0.981    39 H    0.980
                            17 C    0.936
    20   8 O    2.231 --    14 C    1.205    17 C    0.869
    21   7 N    2.967 --     7 C    1.454    22 C    1.179
    22   6 C    3.874 --    23 O    1.554    21 N    1.179    24 C    1.032
    23   8 O    1.781 --    22 C    1.554
    24   6 C    3.733 --     5 C    1.376    25 O    1.147    22 C    1.032
    25   8 O    2.058 --    24 C    1.147    42 H    0.796
    26   1 H    1.011 --     1 C    0.986
    27   1 H    1.007 --     1 C    0.979
    28   1 H    1.007 --     1 C    0.979
    29   1 H    1.009 --     9 C    0.983
    30   1 H    1.008 --     9 C    0.982
    31   1 H    1.001 --     9 C    0.986
    32   1 H    1.001 --    10 C    0.986
    33   1 H    1.007 --    10 C    0.982
    34   1 H    1.007 --    10 C    0.983
    35   1 H    0.956 --    11 N    0.866
    36   1 H    0.996 --    18 C    0.982
    37   1 H    0.995 --    18 C    0.980
    38   1 H    0.996 --    18 C    0.981
    39   1 H    0.995 --    19 C    0.980
    40   1 H    0.996 --    19 C    0.981
    41   1 H    0.996 --    19 C    0.982
    42   1 H    0.847 --    25 O    0.796
 ---------------------------------------------------------------------------

           -------------------------------------------------
          | TOTAL ENERGY              -82.932667000907 Eh   |
          | GRADIENT NORM               0.000205048186 Eh/α |
          | HOMO-LUMO GAP               0.061253549931 eV   |
           -------------------------------------------------

 * finished run on 2023/06/20 at 18:24:05.526
