   * xtb version 6.5.1 (579679a) compiled by 'ehlert@majestix' on 2022-07-11
          program call               : /lustre/hpc/kemi/ree/PhD/git/ReactivityQM/dep/xtb-6.5.1/bin/xtb --gfn 1 /lustre/hpc/kemi/ree/PhD/git/ReactivityQM/calculations/R02oxygendeprot/reac01prodE02/conf11/R02oxygendeprot_reac01prodE02_conf11_gfn1.xyz --opt --vfukui --chrg -2 --uhf 0 --alpb DMSO

   ID    Z sym.   atoms
    1    6 C      1, 3, 4, 6, 8-11, 13, 15, 18, 19, 22, 24
    2    8 O      2, 5, 14, 20, 23, 25
    3    7 N      7, 12, 16, 17, 21
    4    1 H      26-42

      * Solvation model:               ALPB
        Solvent                        DMSO
        Solvent mass                       7.8130E+01 g/mol
          :  Hamiltonian                  GFN1-xTB          :
 * total energy  :   -83.5954463 Eh     change       -0.7524221E-09 Eh
 * total energy  :   -83.6090389 Eh     change       -0.1359260E-01 Eh
 * total energy  :   -83.6148419 Eh     change       -0.5803048E-02 Eh
 * total energy  :   -83.6164167 Eh     change       -0.1574774E-02 Eh
 * total energy  :   -83.6176218 Eh     change       -0.1205154E-02 Eh
 * total energy  :   -83.6183169 Eh     change       -0.6950977E-03 Eh
 * total energy  :   -83.6187302 Eh     change       -0.4132815E-03 Eh
 * total energy  :   -83.6189687 Eh     change       -0.2384692E-03 Eh
 * total energy  :   -83.6191515 Eh     change       -0.1828153E-03 Eh
 * total energy  :   -83.6193205 Eh     change       -0.1690087E-03 Eh
 * total energy  :   -83.6206340 Eh     change       -0.6651505E-05 Eh
 * total energy  :   -83.6206430 Eh     change       -0.8949082E-05 Eh
 * total energy  :   -83.6206546 Eh     change       -0.1161769E-04 Eh
 * total energy  :   -83.6206661 Eh     change       -0.1147208E-04 Eh
 * total energy  :   -83.6206731 Eh     change       -0.7059498E-05 Eh
 * total energy  :   -83.6206849 Eh     change       -0.1176216E-04 Eh
 * total energy  :   -83.6206921 Eh     change       -0.7164737E-05 Eh
 * total energy  :   -83.6206975 Eh     change       -0.5403972E-05 Eh
 * total energy  :   -83.6207020 Eh     change       -0.4589567E-05 Eh
   *** GEOMETRY OPTIMIZATION CONVERGED AFTER 72 ITERATIONS ***

 final structure:
================
42
 xtb: 6.5.1 (579679a)
C           -4.92209466001537        1.84678820774200        0.14508887671952
O           -4.40403813929071        0.55230277902723        0.14423071138427
C           -3.79465686002066        0.07768797874474       -1.24622862665785
C           -4.97832087462947       -0.75382604888909       -1.83983989801696
O           -3.42068218284892        1.06459393542012       -1.99141047224886
C           -2.61521959658629       -0.83370956154888       -0.74437976532868
N           -1.69575934010140       -0.12690702072656       -0.02295635704766
C           -0.62038148217379       -0.67836496324029        0.42438563985839
C            0.39498335979172        0.11552337276325        1.21987204181830
C           -0.06719348943875        1.57153857654426        1.32832064134588
C            0.59618937826353       -0.49769795451260        2.61277049038813
N            1.67161184327045        0.05624591448241        0.47543305478365
C            2.80460526381347        0.65819308449695        0.86253343374045
O            2.96027376990170        1.32580717492718        1.87387418660298
C            3.89481579123521        0.42459886122110       -0.12851069892413
N            3.78182727410313       -0.21363396072989       -1.25377599137174
N            5.00726030003105       -0.17621554039552       -1.85303219081874
C            5.78756746779953        0.48273696593186       -1.05406793199206
C            7.22131757878286        0.79324689323757       -1.24397678748336
O            5.14539527254308        0.89067113547379        0.05112539311289
N           -0.34427036205222       -2.00929635718945        0.17865010638691
C           -1.18562124597576       -2.82905415926425       -0.53787988843691
O           -0.85724188865450       -4.01828683677270       -0.69709885785386
C           -2.43266588693863       -2.19283767084460       -1.06153175298516
O           -3.22541204650346       -2.91781385943368       -1.74102071527277
H           -4.73614743956491        2.31924456881982        1.12127621118508
H           -6.01454003467486        1.86359256198220       -0.02837452169722
H           -4.45261747265444        2.48338528133916       -0.62769840330985
H           -4.67190001211249       -1.19844667109631       -2.78586358745424
H           -5.31341093875018       -1.53406163819928       -1.15840895313941
H           -5.80408561713657       -0.06758247156614       -2.03208641576860
H           -1.05179828279038        1.59718490305990        1.79425802882773
H           -0.14013081915921        2.01426017253179        0.33505152813139
H            0.62750737653613        2.15209737359611        1.93097741523497
H            1.29445602453239        0.09907792006759        3.19637378792529
H           -0.35934970821151       -0.53214822719027        3.13460702331334
H            0.98902499774333       -1.50926040634659        2.52792510922679
H            1.69761964475384       -0.48476504482821       -0.37832061146092
H            7.38671816134015        1.86628941336340       -1.15602693153464
H            7.81385017884119        0.29746750641896       -0.47534508383977
H            7.54327411927676        0.45208740167764       -2.22430380916994
H            0.48923957771467       -2.43070859010574        0.54885157182239

          :  Hamiltonian                  GFN1-xTB          :
         :: total energy             -83.620702046120 Eh    ::
         :: gradient norm              0.000580893215 Eh/a0 ::
         :: HOMO-LUMO gap              0.349650770570 eV    ::
         :: SCC energy               -84.360447908182 Eh    ::
         :: -> Gsolv                  -0.307967180457 Eh    ::
         :: repulsion energy           0.765252664159 Eh    ::

    * Orbital Energies and Occupations

         #    Occupation            Energy/Eh            Energy/eV
      -------------------------------------------------------------
         1        2.0000           -0.8564851             -23.3061
       ...           ...                  ...                  ...
        56        2.0000           -0.4438547             -12.0779
        57        2.0000           -0.4391101             -11.9488
        58        2.0000           -0.4316290             -11.7452
        59        2.0000           -0.4288334             -11.6692
        60        2.0000           -0.4150525             -11.2942
        61        2.0000           -0.4082169             -11.1081
        62        2.0000           -0.4028986             -10.9634
        63        2.0000           -0.3808779             -10.3642
        64        2.0000           -0.3763801             -10.2418
        65        2.0000           -0.3508768              -9.5478
        66        2.0000           -0.3362284              -9.1492
        67        2.0000           -0.3185493              -8.6682
        68        1.9977           -0.3119199              -8.4878 (HOMO)
        69        0.0023           -0.2990705              -8.1381 (LUMO)
        70                         -0.2505715              -6.8184
        71                         -0.2184227              -5.9436
        72                         -0.2024166              -5.5080
        73                         -0.1875514              -5.1035
        74                         -0.1398263              -3.8049
        75                         -0.1109140              -3.0181
        76                         -0.1036776              -2.8212
        77                         -0.0928492              -2.5266
        78                         -0.0894628              -2.4344
        79                         -0.0839283              -2.2838
       ...                                ...                  ...
       134                          0.7432741              20.2255
      -------------------------------------------------------------
                  HL-Gap            0.0128494 Eh            0.3497 eV

Wiberg/Mayer (AO) data.
largest (>0.10) Wiberg bond orders for each atom

     #   Z sym  total        # sym  WBO       # sym  WBO       # sym  WBO
 ---------------------------------------------------------------------------
     1   6 C    3.948 --     2 O    1.002    26 H    0.981    27 H    0.979
                            28 H    0.966
     2   8 O    1.898 --     1 C    1.002     3 C    0.699
     3   6 C    3.887 --     5 O    1.270     4 C    0.947     6 C    0.915
                             2 O    0.699
     4   6 C    3.990 --    30 H    0.990    31 H    0.987    29 H    0.985
                             3 C    0.947
     5   8 O    1.555 --     3 C    1.270
     6   6 C    3.924 --    24 C    1.347     7 N    1.242     3 C    0.915
                            25 O    0.138
     7   7 N    3.036 --     8 C    1.564     6 C    1.242
     8   6 C    3.923 --     7 N    1.564    21 N    1.090     9 C    0.977
     9   6 C    3.922 --    10 C    0.996    11 C    0.986     8 C    0.977
                            12 N    0.897
    10   6 C    3.994 --     9 C    0.996    33 H    0.985    34 H    0.985
                            32 H    0.984
    11   6 C    3.992 --     9 C    0.986    36 H    0.986    37 H    0.984
                            35 H    0.982
    12   7 N    3.367 --    13 C    1.287    38 H    0.899     9 C    0.897
                            14 O    0.185
    13   6 C    3.921 --    14 O    1.573    12 N    1.287    15 C    0.981
    14   8 O    1.893 --    13 C    1.573    12 N    0.185
    15   6 C    3.869 --    16 N    1.616    20 O    1.062    13 C    0.981
    16   7 N    3.012 --    15 C    1.616    17 N    1.192
    17   7 N    2.980 --    18 C    1.613    16 N    1.192
    18   6 C    3.873 --    17 N    1.613    20 O    1.081    19 C    1.030
    19   6 C    3.988 --    18 C    1.030    41 H    0.983    39 H    0.966
                            40 H    0.963
    20   8 O    2.325 --    18 C    1.081    15 C    1.062
    21   7 N    3.414 --    22 C    1.145     8 C    1.090    42 H    0.907
                            23 O    0.127
    22   6 C    3.879 --    23 O    1.502    21 N    1.145    24 C    1.023
    23   8 O    1.794 --    22 C    1.502    21 N    0.127
    24   6 C    3.956 --    25 O    1.395     6 C    1.347    22 C    1.023
    25   8 O    1.738 --    24 C    1.395     6 C    0.138
    26   1 H    1.027 --     1 C    0.981
    27   1 H    1.022 --     1 C    0.979
    28   1 H    1.038 --     1 C    0.966
    29   1 H    1.036 --     4 C    0.985
    30   1 H    1.030 --     4 C    0.990
    31   1 H    1.022 --     4 C    0.987
    32   1 H    1.017 --    10 C    0.984
    33   1 H    1.015 --    10 C    0.985
    34   1 H    1.012 --    10 C    0.985
    35   1 H    1.011 --    11 C    0.982
    36   1 H    1.006 --    11 C    0.986
    37   1 H    1.005 --    11 C    0.984
    38   1 H    0.961 --    12 N    0.899
    39   1 H    0.997 --    19 C    0.966
    40   1 H    0.997 --    19 C    0.963
    41   1 H    0.999 --    19 C    0.983
    42   1 H    0.959 --    21 N    0.907
 ---------------------------------------------------------------------------

           -------------------------------------------------
          | TOTAL ENERGY              -83.620702046120 Eh   |
          | GRADIENT NORM               0.000580893215 Eh/α |
          | HOMO-LUMO GAP               0.349650770570 eV   |
           -------------------------------------------------

 * finished run on 2023/06/21 at 17:02:41.778
