   * xtb version 6.5.1 (579679a) compiled by 'ehlert@majestix' on 2022-07-11
          program call               : /lustre/hpc/kemi/ree/PhD/git/ReactivityQM/dep/xtb-6.5.1/bin/xtb --gfn 1 /lustre/hpc/kemi/ree/PhD/git/ReactivityQM/calculations/R01/reac01prodE01/conf09/R01_reac01prodE01_conf09_gfn1.xyz --opt --vfukui --chrg -1 --uhf 0 --alpb DMSO

   ID    Z sym.   atoms
    1    6 C      1, 3, 4, 6, 9, 10
    2    8 O      2, 5, 11
    3    7 N      7, 8
    4    1 H      12-20

      * Solvation model:               ALPB
        Solvent                        DMSO
        Solvent mass                       7.8130E+01 g/mol
          :  Hamiltonian                  GFN1-xTB          :
 * total energy  :   -38.3248162 Eh     change       -0.4405365E-11 Eh
 * total energy  :   -38.3319601 Eh     change       -0.7143945E-02 Eh
 * total energy  :   -38.3353773 Eh     change       -0.3417157E-02 Eh
 * total energy  :   -38.3358942 Eh     change       -0.5169641E-03 Eh
 * total energy  :   -38.3360859 Eh     change       -0.1916807E-03 Eh
 * total energy  :   -38.3361457 Eh     change       -0.5977077E-04 Eh
 * total energy  :   -38.3362092 Eh     change       -0.6353813E-04 Eh
 * total energy  :   -38.3362439 Eh     change       -0.3469528E-04 Eh
 * total energy  :   -38.3362732 Eh     change       -0.2931961E-04 Eh
 * total energy  :   -38.3362993 Eh     change       -0.2609293E-04 Eh
 * total energy  :   -38.3367863 Eh     change       -0.1077486E-04 Eh
 * total energy  :   -38.3367948 Eh     change       -0.8407355E-05 Eh
 * total energy  :   -38.3367767 Eh     change        0.1803675E-04 Eh
 * total energy  :   -38.3368094 Eh     change       -0.3266549E-04 Eh
 * total energy  :   -38.3368095 Eh     change       -0.7610433E-07 Eh
 * total energy  :   -38.3368204 Eh     change       -0.1090980E-04 Eh
 * total energy  :   -38.3368343 Eh     change       -0.1397570E-04 Eh
 * total energy  :   -38.3368388 Eh     change       -0.4455966E-05 Eh
 * total energy  :   -38.3368419 Eh     change       -0.3080534E-05 Eh
   *** GEOMETRY OPTIMIZATION CONVERGED AFTER 38 ITERATIONS ***

 final structure:
================
20
 xtb: 6.5.1 (579679a)
C           -1.81771756141433        1.51928447613218        0.32749553070762
O           -1.70810796868048        0.44409017887489        1.22006239576444
C           -1.22384149128250       -0.87813376194145        0.70060711736294
C           -2.19775892777340       -1.32037773349709       -0.44619810340645
O           -1.07734215202643       -1.73728903004215        1.64667555166361
C            0.15583311167274       -0.58236269852973       -0.01142675176653
N            0.60701042509036       -1.19469826276813       -1.06358484137690
N            1.92804248473185       -0.81762961500414       -1.21683797805668
C            2.18624554111629       -0.01140197973521       -0.24263944727744
C            3.46966488079393        0.67684994287527        0.04014354907751
O            1.12039186243410        0.17910720824580        0.55801347550057
H           -1.85166462696810        2.44110998357564        0.91787648343031
H           -2.73472173387511        1.46986542820831       -0.27901938952452
H           -0.95844788550414        1.58418473289129       -0.35713362753871
H           -1.88334584216603       -2.30495189712766       -0.78824493123388
H           -3.20509523082517       -1.38791054584412       -0.04079376068466
H           -2.18388907429676       -0.63057446332898       -1.28694949239045
H            3.89708036589982        0.31545043167596        0.97574858133413
H            3.30830693486354        1.75001190461147        0.13428538233278
H            4.16935788820963        0.48537670072798       -0.76985974391775

          :  Hamiltonian                  GFN1-xTB          :
         :: total energy             -38.336841877775 Eh    ::
         :: gradient norm              0.000450836068 Eh/a0 ::
         :: HOMO-LUMO gap              3.286815522095 eV    ::
         :: SCC energy               -38.645825424861 Eh    ::
         :: -> Gsolv                  -0.108469595320 Eh    ::
         :: repulsion energy           0.317770300596 Eh    ::

    * Orbital Energies and Occupations

         #    Occupation            Energy/Eh            Energy/eV
      -------------------------------------------------------------
         1        2.0000           -0.8197059             -22.3053
       ...           ...                  ...                  ...
        19        2.0000           -0.5097173             -13.8701
        20        2.0000           -0.5039953             -13.7144
        21        2.0000           -0.4844423             -13.1823
        22        2.0000           -0.4781073             -13.0100
        23        2.0000           -0.4620986             -12.5743
        24        2.0000           -0.4570297             -12.4364
        25        2.0000           -0.4491410             -12.2217
        26        2.0000           -0.4378006             -11.9132
        27        2.0000           -0.4171297             -11.3507
        28        2.0000           -0.4161891             -11.3251
        29        2.0000           -0.4093953             -11.1402
        30        2.0000           -0.3659769              -9.9587
        31        2.0000           -0.3486995              -9.4886 (HOMO)
        32                         -0.2279112              -6.2018 (LUMO)
        33                         -0.2138488              -5.8191
        34                         -0.1301611              -3.5419
        35                         -0.1101857              -2.9983
        36                         -0.0899980              -2.4490
        37                         -0.0629359              -1.7126
        38                         -0.0622109              -1.6928
        39                         -0.0517351              -1.4078
        40                         -0.0443557              -1.2070
        41                         -0.0277762              -0.7558
        42                         -0.0202459              -0.5509
       ...                                ...                  ...
        62                          0.6045586              16.4509
      -------------------------------------------------------------
                  HL-Gap            0.1207882 Eh            3.2868 eV

Wiberg/Mayer (AO) data.
largest (>0.10) Wiberg bond orders for each atom

     #   Z sym  total        # sym  WBO       # sym  WBO       # sym  WBO
 ---------------------------------------------------------------------------
     1   6 C    3.939 --    12 H    0.981     2 O    0.979    13 H    0.979
                            14 H    0.976
     2   8 O    1.951 --     1 C    0.979     3 C    0.799
     3   6 C    3.897 --     5 O    1.252     4 C    0.934     6 C    0.862
                             2 O    0.799
     4   6 C    3.991 --    17 H    0.989    16 H    0.987    15 H    0.986
                             3 C    0.934
     5   8 O    1.536 --     3 C    1.252
     6   6 C    3.802 --     7 N    1.646    11 O    1.048     3 C    0.862
     7   7 N    2.965 --     6 C    1.646     8 N    1.150
     8   7 N    2.976 --     9 C    1.654     7 N    1.150
     9   6 C    3.889 --     8 N    1.654    11 O    1.067    10 C    1.024
    10   6 C    3.993 --     9 C    1.024    20 H    0.985    19 H    0.972
                            18 H    0.968
    11   8 O    2.301 --     9 C    1.067     6 C    1.048
    12   1 H    1.022 --     1 C    0.981
    13   1 H    1.018 --     1 C    0.979
    14   1 H    1.016 --     1 C    0.976
    15   1 H    1.021 --     4 C    0.986
    16   1 H    1.013 --     4 C    0.987
    17   1 H    1.010 --     4 C    0.989
    18   1 H    1.002 --    10 C    0.968
    19   1 H    1.001 --    10 C    0.972
    20   1 H    1.003 --    10 C    0.985
 ---------------------------------------------------------------------------

           -------------------------------------------------
          | TOTAL ENERGY              -38.336841877775 Eh   |
          | GRADIENT NORM               0.000450836068 Eh/α |
          | HOMO-LUMO GAP               3.286815522095 eV   |
           -------------------------------------------------

 * finished run on 2023/06/20 at 14:52:31.455
