   * xtb version 6.5.1 (579679a) compiled by 'ehlert@majestix' on 2022-07-11
          program call               : /lustre/hpc/kemi/ree/PhD/git/ReactivityQM/dep/xtb-6.5.1/bin/xtb --gfn 1 /lustre/hpc/kemi/ree/PhD/git/ReactivityQM/calculations/R02/reac01prodE06/conf14/R02_reac01prodE06_conf14_gfn1.xyz --opt --vfukui --chrg -1 --uhf 0 --alpb DMSO

   ID    Z sym.   atoms
    1    6 C      1, 3, 5, 6, 8, 11-15, 17, 19, 22, 23
    2    8 O      2, 4, 7, 9, 18, 24
    3    7 N      10, 16, 20, 21, 25
    4    1 H      26-43

      * Solvation model:               ALPB
        Solvent                        DMSO
        Solvent mass                       7.8130E+01 g/mol
          :  Hamiltonian                  GFN1-xTB          :
 * total energy  :   -83.8678142 Eh     change       -0.5488090E-09 Eh
 * total energy  :   -83.8792514 Eh     change       -0.1143725E-01 Eh
 * total energy  :   -83.8839963 Eh     change       -0.4744910E-02 Eh
 * total energy  :   -83.8849823 Eh     change       -0.9860324E-03 Eh
 * total energy  :   -83.8856308 Eh     change       -0.6484701E-03 Eh
 * total energy  :   -83.8857936 Eh     change       -0.1628136E-03 Eh
 * total energy  :   -83.8858869 Eh     change       -0.9323242E-04 Eh
 * total energy  :   -83.8859421 Eh     change       -0.5518744E-04 Eh
 * total energy  :   -83.8859813 Eh     change       -0.3924423E-04 Eh
 * total energy  :   -83.8860160 Eh     change       -0.3469922E-04 Eh
 * total energy  :   -83.8862108 Eh     change       -0.7753073E-05 Eh
 * total energy  :   -83.8862225 Eh     change       -0.1178988E-04 Eh
 * total energy  :   -83.8862365 Eh     change       -0.1398307E-04 Eh
 * total energy  :   -83.8862458 Eh     change       -0.9319008E-05 Eh
 * total energy  :   -83.8862543 Eh     change       -0.8424667E-05 Eh
 * total energy  :   -83.8862628 Eh     change       -0.8524697E-05 Eh
 * total energy  :   -83.8862696 Eh     change       -0.6784714E-05 Eh
 * total energy  :   -83.8862730 Eh     change       -0.3406760E-05 Eh
 * total energy  :   -83.8862766 Eh     change       -0.3666018E-05 Eh
   *** GEOMETRY OPTIMIZATION CONVERGED AFTER 32 ITERATIONS ***

 final structure:
================
43
 xtb: 6.5.1 (579679a)
C           -3.11446475828635        3.05858409650788        2.49308768309302
O           -2.54926053711612        1.93707416732835        1.82198435789783
C           -3.04943179065046        1.65876271220325        0.60691350368269
O           -3.92661810058681        2.35362409442173        0.11488678734728
C           -2.44491107639149        0.46420714861461       -0.02658265908053
C           -2.82289006245393        0.09042758546644       -1.32227261005821
O           -3.83634157448202        0.72159210096564       -2.03994202305056
C           -2.08922105536953       -0.92650201132435       -2.00195624490264
O           -2.24191791406424       -1.30657348348783       -3.17293086695616
N           -1.01457657218157       -1.44717622979649       -1.25919485001697
C           -1.08096259549833       -1.44912302923122        0.19990718306319
C           -2.04468844034202       -2.55910519011952        0.67828874138113
C            0.37108949855178       -1.65261938629070        0.74672601488339
C            0.96429971029711       -3.02406371661506        0.40628955628989
C            0.41735154063833       -1.42072817778742        2.26141514227563
N            1.15690184457183       -0.61047486716249        0.07410487927605
C            2.46339382932235       -0.38685303971227        0.23631037337602
O            3.20962324657061       -0.96500254441689        1.01549838053184
C            2.93339660722952        0.70423623806406       -0.66891264198574
N            2.20333000325502        1.37437277710127       -1.50742541604830
N            3.03156742931054        2.26436084484498       -2.12838767580232
C            4.21298373579710        2.07891286576020       -1.62762596657326
C            5.46177235316809        2.79436765574109       -1.97154064095323
O            4.21798191126443        1.10861588482917       -0.70041388946247
N           -1.54140935237853       -0.17688152281557        0.70868194354526
H           -2.61616896126540        3.13649598703583        3.45797401020166
H           -4.18873627065057        2.91399442324262        2.63794973401388
H           -2.95429715054668        3.97272105093279        1.91440853362144
H           -4.21963750416113        1.43048692998755       -1.49243066320942
H           -0.66886124605494       -2.31248348934716       -1.65022730096952
H           -1.74486954908272       -3.53102960426425        0.29251727838168
H           -3.04758164972051       -2.33568799522685        0.31507861753099
H           -2.07028987444484       -2.59325228127199        1.76519718832572
H            0.39784904870934       -3.81076572215159        0.90002292499621
H            1.99536015243335       -3.07699306791209        0.75400319443092
H            0.95343477209023       -3.19964598563758       -0.66806827751270
H           -0.13486841246166       -2.20568692887259        2.77499867156630
H           -0.03245237924745       -0.45681129010799        2.50112874457266
H            1.44649648309928       -1.43570911085034        2.61657683320109
H            0.66450036349967       -0.09125383319252       -0.64740560501844
H            5.25732186004626        3.53884602137180       -2.73659143496538
H            6.20690732948552        2.08967148593634       -2.33926019396390
H            5.86889610809071        3.28306643724488       -1.08697331695389

          :  Hamiltonian                  GFN1-xTB          :
         :: total energy             -83.886276649194 Eh    ::
         :: gradient norm              0.000473359949 Eh/a0 ::
         :: HOMO-LUMO gap              0.664924269844 eV    ::
         :: SCC energy               -84.640676827139 Eh    ::
         :: -> Gsolv                  -0.111443155674 Eh    ::
         :: repulsion energy           0.782163591700 Eh    ::

    * Orbital Energies and Occupations

         #    Occupation            Energy/Eh            Energy/eV
      -------------------------------------------------------------
         1        2.0000           -0.8567927             -23.3145
       ...           ...                  ...                  ...
        56        2.0000           -0.4782972             -13.0151
        57        2.0000           -0.4749470             -12.9240
        58        2.0000           -0.4635251             -12.6132
        59        2.0000           -0.4524875             -12.3128
        60        2.0000           -0.4516053             -12.2888
        61        2.0000           -0.4453621             -12.1189
        62        2.0000           -0.4399110             -11.9706
        63        2.0000           -0.4292994             -11.6818
        64        2.0000           -0.4286176             -11.6633
        65        2.0000           -0.4083836             -11.1127
        66        2.0000           -0.3933350             -10.7032
        67        2.0000           -0.3783348             -10.2950
        68        2.0000           -0.3224352              -8.7739 (HOMO)
        69        0.0000           -0.2979996              -8.1090 (LUMO)
        70                         -0.2736819              -7.4473
        71                         -0.2511498              -6.8341
        72                         -0.1932745              -5.2593
        73                         -0.1864757              -5.0743
        74                         -0.1410602              -3.8384
        75                         -0.1277475              -3.4762
        76                         -0.1191520              -3.2423
        77                         -0.1133281              -3.0838
        78                         -0.1084432              -2.9509
        79                         -0.0987507              -2.6871
       ...                                ...                  ...
       136                          0.7311054              19.8944
      -------------------------------------------------------------
                  HL-Gap            0.0244355 Eh            0.6649 eV

Wiberg/Mayer (AO) data.
largest (>0.10) Wiberg bond orders for each atom

     #   Z sym  total        # sym  WBO       # sym  WBO       # sym  WBO
 ---------------------------------------------------------------------------
     1   6 C    3.889 --    26 H    0.987    28 H    0.980    27 H    0.980
                             2 O    0.914
     2   8 O    2.189 --     3 C    1.092     1 C    0.914     4 O    0.118
     3   6 C    3.820 --     4 O    1.601     2 O    1.092     5 C    1.024
     4   8 O    1.920 --     3 C    1.601     2 O    0.118
     5   6 C    3.971 --    25 N    1.403     6 C    1.325     3 C    1.024
     6   6 C    3.877 --     5 C    1.325     8 C    1.190     7 O    0.989
                            25 N    0.184
     7   8 O    1.959 --     6 C    0.989    29 H    0.829
     8   6 C    3.914 --     9 O    1.500     6 C    1.190    10 N    1.066
     9   8 O    1.803 --     8 C    1.500    10 N    0.102
    10   7 N    3.195 --     8 C    1.066    11 C    0.941    30 H    0.919
                             9 O    0.102
    11   6 C    3.946 --    25 N    1.002    12 C    0.974    13 C    0.949
                            10 N    0.941
    12   6 C    3.995 --    31 H    0.984    32 H    0.984    33 H    0.983
                            11 C    0.974
    13   6 C    3.922 --    15 C    0.997    14 C    0.996    11 C    0.949
                            16 N    0.913
    14   6 C    3.994 --    13 C    0.996    34 H    0.984    36 H    0.982
                            35 H    0.981
    15   6 C    3.994 --    13 C    0.997    37 H    0.984    39 H    0.983
                            38 H    0.980
    16   7 N    3.393 --    17 C    1.305    13 C    0.913    40 H    0.890
                            18 O    0.189
    17   6 C    3.925 --    18 O    1.560    16 N    1.305    19 C    0.979
    18   8 O    1.884 --    17 C    1.560    16 N    0.189
    19   6 C    3.869 --    20 N    1.619    24 O    1.061    17 C    0.979
    20   7 N    3.011 --    19 C    1.619    21 N    1.190
    21   7 N    2.980 --    22 C    1.615    20 N    1.190
    22   6 C    3.874 --    21 N    1.615    24 O    1.080    23 C    1.030
    23   6 C    3.988 --    22 C    1.030    41 H    0.983    43 H    0.965
                            42 H    0.965
    24   8 O    2.324 --    22 C    1.080    19 C    1.061
    25   7 N    2.915 --     5 C    1.403    11 C    1.002     6 C    0.184
    26   1 H    1.014 --     1 C    0.987
    27   1 H    1.011 --     1 C    0.980
    28   1 H    1.011 --     1 C    0.980
    29   1 H    0.891 --     7 O    0.829
    30   1 H    0.967 --    10 N    0.919
    31   1 H    1.005 --    12 C    0.984
    32   1 H    1.007 --    12 C    0.984
    33   1 H    1.010 --    12 C    0.983
    34   1 H    1.005 --    14 C    0.984
    35   1 H    1.011 --    14 C    0.981
    36   1 H    1.004 --    14 C    0.982
    37   1 H    1.006 --    15 C    0.984
    38   1 H    1.030 --    15 C    0.980
    39   1 H    1.013 --    15 C    0.983
    40   1 H    0.984 --    16 N    0.890
    41   1 H    0.999 --    23 C    0.983
    42   1 H    0.998 --    23 C    0.965
    43   1 H    0.998 --    23 C    0.965
 ---------------------------------------------------------------------------

           -------------------------------------------------
          | TOTAL ENERGY              -83.886276649194 Eh   |
          | GRADIENT NORM               0.000473359949 Eh/α |
          | HOMO-LUMO GAP               0.664924269844 eV   |
           -------------------------------------------------

 * finished run on 2023/06/20 at 15:00:51.780
