   * xtb version 6.5.1 (579679a) compiled by 'ehlert@majestix' on 2022-07-11
          program call               : /lustre/hpc/kemi/ree/PhD/git/ReactivityQM/dep/xtb-6.5.1/bin/xtb --gfn 1 /lustre/hpc/kemi/ree/PhD/git/ReactivityQM/calculations/R02/reac01prodE04/conf16/R02_reac01prodE04_conf16_gfn1.xyz --opt --vfukui --chrg -1 --uhf 0 --alpb DMSO

   ID    Z sym.   atoms
    1    6 C      1, 3, 5, 6, 8-11, 13, 15, 18, 19, 22, 24
    2    8 O      2, 4, 14, 20, 23, 25
    3    7 N      7, 12, 16, 17, 21
    4    1 H      26-43

      * Solvation model:               ALPB
        Solvent                        DMSO
        Solvent mass                       7.8130E+01 g/mol
          :  Hamiltonian                  GFN1-xTB          :
 * total energy  :   -83.8427161 Eh     change       -0.2641372E-09 Eh
 * total energy  :   -83.8573441 Eh     change       -0.1462798E-01 Eh
 * total energy  :   -83.8634113 Eh     change       -0.6067219E-02 Eh
 * total energy  :   -83.8646640 Eh     change       -0.1252667E-02 Eh
 * total energy  :   -83.8654467 Eh     change       -0.7827058E-03 Eh
 * total energy  :   -83.8657786 Eh     change       -0.3319579E-03 Eh
 * total energy  :   -83.8659849 Eh     change       -0.2062691E-03 Eh
 * total energy  :   -83.8661259 Eh     change       -0.1409862E-03 Eh
 * total energy  :   -83.8662596 Eh     change       -0.1337190E-03 Eh
 * total energy  :   -83.8664105 Eh     change       -0.1508597E-03 Eh
 * total energy  :   -83.8716634 Eh     change       -0.8982385E-05 Eh
 * total energy  :   -83.8716717 Eh     change       -0.8310437E-05 Eh
 * total energy  :   -83.8716795 Eh     change       -0.7803386E-05 Eh
 * total energy  :   -83.8716870 Eh     change       -0.7515800E-05 Eh
 * total energy  :   -83.8716945 Eh     change       -0.7491254E-05 Eh
 * total energy  :   -83.8717017 Eh     change       -0.7173426E-05 Eh
 * total energy  :   -83.8717080 Eh     change       -0.6325128E-05 Eh
 * total energy  :   -83.8717132 Eh     change       -0.5162521E-05 Eh
 * total energy  :   -83.8717175 Eh     change       -0.4382806E-05 Eh
   *** GEOMETRY OPTIMIZATION CONVERGED AFTER 83 ITERATIONS ***

 final structure:
================
43
 xtb: 6.5.1 (579679a)
C           -2.49513989413810        3.31082692790795        0.33049005148670
O           -2.33542027896719        1.89872101525501        0.45212367715608
C           -3.44914664445057        1.16462183931304        0.26226947312671
O           -4.52443625536994        1.68244675944289       -0.00305905521456
C           -3.21554342720903       -0.33949043868140        0.20715534767687
C           -4.38987562896990       -1.08452097235423        0.85780018513105
N           -1.98794092146383       -0.73038912044702        0.88131133482262
C           -0.92225029677396       -0.87170053025651        0.19031946471123
C            0.34925987685545       -1.30456578381568        0.91185694938803
C            0.57672919746953       -2.79776267250873        0.63597458170889
C            0.22503547717069       -1.03687647497477        2.41440170400279
N            1.46241922989856       -0.52077525150949        0.36097926268492
C            2.74623187728108       -0.67529204309548        0.72309302537121
O            3.17297690014500       -1.47991128327024        1.53602640130701
C            3.62269038876499        0.27822273694160       -0.01387192601656
N            3.23195719000219        1.17026229983660       -0.87295278241139
N            4.35277395335909        1.81059299796228       -1.31333635013826
C            5.35492696041825        1.26715546202684       -0.69397287871822
C            6.78923002767865        1.60525579396470       -0.82623619610094
O            4.95979592620658        0.29432838921668        0.14120713837733
N           -0.82354736901194       -0.68288975470847       -1.14942235451507
C           -2.00982928495715       -0.64304302176444       -2.00792085772069
O           -1.79284551511955       -0.78749443935841       -3.23613106861233
C           -3.17314230680619       -0.52004673875078       -1.30200815874009
O           -4.42937055066838       -0.48059617468878       -1.94464264809322
H           -1.52937916047649        3.76268692013052        0.54997270996765
H           -3.24385986341363        3.67133352667070        1.04154090545736
H           -2.81179590059424        3.57596428867974       -0.68237973156279
H           -5.33380377205022       -0.73045659510371        0.44650775039684
H           -4.38268951728789       -0.91604214653178        1.93414673335524
H           -4.29477253196684       -2.15275711843877        0.66699642866911
H            1.46061832225650       -3.15480591565073        1.16084439615356
H            0.70644300762012       -2.96549999855373       -0.43240101911679
H           -0.28947614798215       -3.36124948944394        0.98039265955955
H            1.11537873656783       -1.37878351500535        2.93862210173962
H           -0.64433917139179       -1.56683992712941        2.80122764663746
H            0.09008868202915        0.02957221194671        2.59168588688911
H            1.24604365447331        0.21227301426673       -0.30129759871545
H            7.18797641875390        1.92422657982095        0.13637410962853
H            6.91088707460267        2.40388570605624       -1.55353890726750
H            7.35058529918789        0.72890220977010       -1.14935226814156
H            0.00698804166530       -0.99775723408304       -1.62450629536068
H           -4.84042880333553        0.38826696091715       -1.80548382895628

          :  Hamiltonian                  GFN1-xTB          :
         :: total energy             -83.871717545806 Eh    ::
         :: gradient norm              0.000200124560 Eh/a0 ::
         :: HOMO-LUMO gap              0.461599166976 eV    ::
         :: SCC energy               -84.635543936187 Eh    ::
         :: -> Gsolv                  -0.116951368575 Eh    ::
         :: repulsion energy           0.790996628180 Eh    ::

    * Orbital Energies and Occupations

         #    Occupation            Energy/Eh            Energy/eV
      -------------------------------------------------------------
         1        2.0000           -0.8585880             -23.3634
       ...           ...                  ...                  ...
        56        2.0000           -0.4760254             -12.9533
        57        2.0000           -0.4715949             -12.8328
        58        2.0000           -0.4639637             -12.6251
        59        2.0000           -0.4595579             -12.5052
        60        2.0000           -0.4552766             -12.3887
        61        2.0000           -0.4532909             -12.3347
        62        2.0000           -0.4446672             -12.1000
        63        2.0000           -0.4367756             -11.8853
        64        2.0000           -0.4337004             -11.8016
        65        2.0000           -0.3967591             -10.7964
        66        2.0000           -0.3916936             -10.6585
        67        2.0000           -0.3775358             -10.2733
        68        1.9997           -0.3194377              -8.6923 (HOMO)
        69        0.0003           -0.3024743              -8.2307 (LUMO)
        70                         -0.2524004              -6.8682
        71                         -0.2344269              -6.3791
        72                         -0.2220068              -6.0411
        73                         -0.1908331              -5.1928
        74                         -0.1404761              -3.8225
        75                         -0.1330167              -3.6196
        76                         -0.1275878              -3.4718
        77                         -0.1132236              -3.0810
        78                         -0.1091632              -2.9705
        79                         -0.0979011              -2.6640
       ...                                ...                  ...
       136                          0.7304579              19.8768
      -------------------------------------------------------------
                  HL-Gap            0.0169635 Eh            0.4616 eV

Wiberg/Mayer (AO) data.
largest (>0.10) Wiberg bond orders for each atom

     #   Z sym  total        # sym  WBO       # sym  WBO       # sym  WBO
 ---------------------------------------------------------------------------
     1   6 C    3.890 --    26 H    0.987    27 H    0.981    28 H    0.981
                             2 O    0.913
     2   8 O    2.169 --     3 C    1.075     1 C    0.913     4 O    0.112
     3   6 C    3.817 --     4 O    1.600     2 O    1.075     5 C    0.934
     4   8 O    1.895 --     3 C    1.600     2 O    0.112
     5   6 C    3.962 --     6 C    0.984     7 N    0.977     3 C    0.934
                            24 C    0.931
     6   6 C    3.997 --    30 H    0.988    31 H    0.987    29 H    0.985
                             5 C    0.984
     7   7 N    2.981 --     8 C    1.680     5 C    0.977    21 N    0.166
     8   6 C    3.952 --     7 N    1.680    21 N    1.191     9 C    0.967
     9   6 C    3.927 --    11 C    0.994    10 C    0.983     8 C    0.967
                            12 N    0.913
    10   6 C    3.993 --    34 H    0.986    33 H    0.985     9 C    0.983
                            32 H    0.981
    11   6 C    3.993 --     9 C    0.994    37 H    0.986    35 H    0.984
                            36 H    0.983
    12   7 N    3.366 --    13 C    1.277     9 C    0.913    38 H    0.896
                            14 O    0.183
    13   6 C    3.921 --    14 O    1.579    12 N    1.277    15 C    0.983
    14   8 O    1.898 --    13 C    1.579    12 N    0.183
    15   6 C    3.872 --    16 N    1.615    20 O    1.063    13 C    0.983
    16   7 N    3.015 --    15 C    1.615    17 N    1.194
    17   7 N    2.980 --    18 C    1.611    16 N    1.194
    18   6 C    3.873 --    17 N    1.611    20 O    1.081    19 C    1.031
    19   6 C    3.987 --    18 C    1.031    40 H    0.983    41 H    0.964
                            39 H    0.964
    20   8 O    2.327 --    18 C    1.081    15 C    1.063
    21   7 N    3.311 --     8 C    1.191    42 H    0.911    22 C    0.894
                             7 N    0.166
    22   6 C    3.913 --    24 C    1.497    23 O    1.399    21 N    0.894
    23   8 O    1.724 --    22 C    1.399    24 C    0.173
    24   6 C    3.785 --    22 C    1.497    25 O    0.951     5 C    0.931
                            23 O    0.173
    25   8 O    1.910 --    24 C    0.951    43 H    0.860
    26   1 H    1.015 --     1 C    0.987
    27   1 H    1.012 --     1 C    0.981
    28   1 H    1.011 --     1 C    0.981
    29   1 H    1.016 --     6 C    0.985
    30   1 H    1.010 --     6 C    0.988
    31   1 H    1.012 --     6 C    0.987
    32   1 H    1.011 --    10 C    0.981
    33   1 H    1.004 --    10 C    0.985
    34   1 H    1.004 --    10 C    0.986
    35   1 H    1.010 --    11 C    0.984
    36   1 H    1.019 --    11 C    0.983
    37   1 H    1.010 --    11 C    0.986
    38   1 H    0.961 --    12 N    0.896
    39   1 H    0.997 --    19 C    0.964
    40   1 H    0.999 --    19 C    0.983
    41   1 H    0.997 --    19 C    0.964
    42   1 H    0.961 --    21 N    0.911
    43   1 H    0.900 --    25 O    0.860
 ---------------------------------------------------------------------------

           -------------------------------------------------
          | TOTAL ENERGY              -83.871717545806 Eh   |
          | GRADIENT NORM               0.000200124560 Eh/α |
          | HOMO-LUMO GAP               0.461599166976 eV   |
           -------------------------------------------------

 * finished run on 2023/06/20 at 14:57:16.827
