   * xtb version 6.5.1 (579679a) compiled by 'ehlert@majestix' on 2022-07-11
          program call               : /lustre/hpc/kemi/ree/PhD/git/ReactivityQM/dep/xtb-6.5.1/bin/xtb --gfn 1 /lustre/hpc/kemi/ree/PhD/git/ReactivityQM/calculations/R03/reac02prodE07/conf04/R03_reac02prodE07_conf04_gfn1.xyz --opt --vfukui --chrg -1 --uhf 0 --alpb DMSO

   ID    Z sym.   atoms
    1    6 C      1, 3, 5, 7-10, 12, 14, 15, 18, 19, 22, 23, 25
    2    8 O      2, 4, 13, 20, 24, 26
    3    7 N      6, 11, 16, 17, 21
    4    1 H      27-46

      * Solvation model:               ALPB
        Solvent                        DMSO
        Solvent mass                       7.8130E+01 g/mol
          :  Hamiltonian                  GFN1-xTB          :
 * total energy  :   -86.9892701 Eh     change       -0.7413803E-10 Eh
 * total energy  :   -87.0018163 Eh     change       -0.1254621E-01 Eh
 * total energy  :   -87.0072627 Eh     change       -0.5446398E-02 Eh
 * total energy  :   -87.0084635 Eh     change       -0.1200733E-02 Eh
 * total energy  :   -87.0091400 Eh     change       -0.6764997E-03 Eh
 * total energy  :   -87.0093657 Eh     change       -0.2257058E-03 Eh
 * total energy  :   -87.0095735 Eh     change       -0.2078096E-03 Eh
 * total energy  :   -87.0098259 Eh     change       -0.2524019E-03 Eh
 * total energy  :   -87.0101417 Eh     change       -0.3158242E-03 Eh
 * total energy  :   -87.0105211 Eh     change       -0.3794122E-03 Eh
 * total energy  :   -87.0150609 Eh     change       -0.1605594E-04 Eh
 * total energy  :   -87.0150756 Eh     change       -0.1476303E-04 Eh
 * total energy  :   -87.0150922 Eh     change       -0.1657952E-04 Eh
 * total energy  :   -87.0150991 Eh     change       -0.6893119E-05 Eh
 * total energy  :   -87.0151092 Eh     change       -0.1008723E-04 Eh
 * total energy  :   -87.0151151 Eh     change       -0.5902673E-05 Eh
 * total energy  :   -87.0151223 Eh     change       -0.7221507E-05 Eh
 * total energy  :   -87.0151303 Eh     change       -0.7989332E-05 Eh
 * total energy  :   -87.0151342 Eh     change       -0.3873132E-05 Eh
   *** GEOMETRY OPTIMIZATION CONVERGED AFTER 86 ITERATIONS ***

 final structure:
================
46
 xtb: 6.5.1 (579679a)
C            5.01592268271643        1.44747050540121        3.42309864150721
O            4.61223938006524        0.55778672820996        2.39015335401588
C            3.40254500430174        0.81484200204244        1.82615340179891
O            2.71592566207973        1.75965333903699        2.19841247817322
C            3.03434104402950       -0.11832238881722        0.76769097645536
N            1.79014706769136        0.09211032360219        0.22075282061010
C            1.32368641449966       -0.62957010792505       -0.74154687104179
C           -0.07805173117451       -0.26216017247343       -1.23764178647418
C            0.04141857844865        0.53276243446043       -2.54917596651301
C           -1.00186096391627       -1.48568824202476       -1.38895161568808
N           -0.62409700687152        0.63776258747950       -0.19861265554602
C           -1.98602809137822        1.02353548318422       -0.31214014167256
O           -2.29970178689606        1.81561863816352       -1.41128608013690
C           -3.55428566877952        1.57531618424029       -2.02917881997264
C           -2.79729769343436        0.83991914817247        0.78022858589322
N           -2.45099948493719        0.14949456617876        1.88922839054703
N           -3.55880099291519        0.15859735232155        2.70164351060916
C           -4.48909680354099        0.80970052160993        2.09578728600463
C           -5.87126156537444        1.06781725679002        2.57343050981706
O           -4.10128455404482        1.28575447879562        0.87217265038053
N            2.06608474719388       -1.65243979021577       -1.30721282972151
C            1.63329889769279       -2.48764825894772       -2.42159912464966
C            3.32464943847746       -1.98646780356939       -0.78667575368243
O            3.98471486220118       -2.93486111571893       -1.24453483950451
C            3.80288657548989       -1.16893701763311        0.27894711926458
O            5.03535603481042       -1.49050593069948        0.75667368226041
H            5.98307296569514        1.09878134524562        3.78191555478613
H            4.29185063584975        1.44228432973713        4.24406828792352
H            5.10888185178696        2.46833426473587        3.03928700511144
H            0.37780129509054        1.54585169101520       -2.32864070013659
H            0.75531908769404        0.07049341227127       -3.22715571272970
H           -0.92226884048866        0.58453482427378       -3.05028077655502
H           -2.03665694021050       -1.16181215759615       -1.26758777637020
H           -0.91463988845114       -1.94023832492185       -2.37137636007443
H           -0.78331928422440       -2.23181340696265       -0.62625601234463
H           -0.51308285703020        0.18287997290158        0.71250189022189
H           -3.71668962483965        0.50295165141038       -2.19317866972168
H           -4.38020605127947        1.97049775094372       -1.42579622555123
H           -3.53850552707738        2.08768039070254       -2.99308005638423
H           -6.59791728071062        0.61410494424915        1.89851409909778
H           -6.07133951682226        2.13932836774956        2.61080297433598
H           -5.99522816792280        0.64466079407078        3.56826879277557
H            1.08221289553078       -1.90622646382462       -3.15340510678545
H            1.01929061536605       -3.31401985339303       -2.06197414310449
H            2.52374741186845       -2.89815096135526       -2.89876546197101
H            5.35722717373753       -2.25166229292700        0.24125447475490

          :  Hamiltonian                  GFN1-xTB          :
         :: total energy             -87.015134173943 Eh    ::
         :: gradient norm              0.000765008305 Eh/a0 ::
         :: HOMO-LUMO gap              0.064687201650 eV    ::
         :: SCC energy               -87.798564791677 Eh    ::
         :: -> Gsolv                  -0.117729235043 Eh    ::
         :: repulsion energy           0.812475365486 Eh    ::

    * Orbital Energies and Occupations

         #    Occupation            Energy/Eh            Energy/eV
      -------------------------------------------------------------
         1        2.0000           -0.8077781             -21.9808
       ...           ...                  ...                  ...
        59        2.0000           -0.4719538             -12.8425
        60        2.0000           -0.4583385             -12.4720
        61        2.0000           -0.4519600             -12.2985
        62        2.0000           -0.4442402             -12.0884
        63        2.0000           -0.4419552             -12.0262
        64        2.0000           -0.4290985             -11.6764
        65        2.0000           -0.4209857             -11.4556
        66        2.0000           -0.4187625             -11.3951
        67        2.0000           -0.4149887             -11.2924
        68        2.0000           -0.3976258             -10.8199
        69        2.0000           -0.3971533             -10.8071
        70        2.0000           -0.3944417             -10.7333
        71        1.5550           -0.3016390              -8.2080 (HOMO)
        72        0.4450           -0.2992618              -8.1433 (LUMO)
        73                         -0.2507612              -6.8236
        74                         -0.2092203              -5.6932
        75                         -0.2061460              -5.6095
        76                         -0.1614051              -4.3921
        77                         -0.1327833              -3.6132
        78                         -0.1278720              -3.4796
        79                         -0.1257268              -3.4212
        80                         -0.1233053              -3.3553
        81                         -0.1174624              -3.1963
        82                         -0.1133231              -3.0837
       ...                                ...                  ...
       144                          0.7045417              19.1716
      -------------------------------------------------------------
                  HL-Gap            0.0023772 Eh            0.0647 eV

Wiberg/Mayer (AO) data.
largest (>0.10) Wiberg bond orders for each atom

     #   Z sym  total        # sym  WBO       # sym  WBO       # sym  WBO
 ---------------------------------------------------------------------------
     1   6 C    3.894 --    27 H    0.987    29 H    0.980    28 H    0.980
                             2 O    0.921
     2   8 O    2.133 --     3 C    1.041     1 C    0.921     4 O    0.110
     3   6 C    3.764 --     4 O    1.569     5 C    1.087     2 O    1.041
     4   8 O    1.798 --     3 C    1.569     2 O    0.110
     5   6 C    3.845 --    25 C    1.361     6 N    1.164     3 C    1.087
     6   7 N    3.014 --     7 C    1.599     5 C    1.164
     7   6 C    3.900 --     6 N    1.599    21 N    1.131     8 C    0.976
     8   6 C    3.953 --    10 C    0.984     9 C    0.984     7 C    0.976
                            11 N    0.949
     9   6 C    3.992 --     8 C    0.984    30 H    0.984    32 H    0.982
                            31 H    0.980
    10   6 C    3.988 --    35 H    0.985     8 C    0.984    34 H    0.982
                            33 H    0.975
    11   7 N    3.035 --    12 C    1.022     8 C    0.949    36 H    0.926
    12   6 C    3.582 --    15 C    1.412    11 N    1.022    13 O    0.959
    13   8 O    2.030 --    12 C    0.959    14 C    0.934
    14   6 C    3.906 --    39 H    0.985    37 H    0.981    38 H    0.980
                            13 O    0.934
    15   6 C    3.850 --    12 C    1.412    16 N    1.301    20 O    0.972
    16   7 N    2.700 --    15 C    1.301    17 N    1.167
    17   7 N    2.982 --    18 C    1.656    16 N    1.167
    18   6 C    3.822 --    17 N    1.656    19 C    1.023    20 O    1.010
    19   6 C    3.994 --    18 C    1.023    42 H    0.986    41 H    0.973
                            40 H    0.971
    20   8 O    2.186 --    18 C    1.010    15 C    0.972
    21   7 N    3.384 --     7 C    1.131    23 C    1.072    22 C    0.942
                            24 O    0.110
    22   6 C    3.938 --    43 H    0.978    44 H    0.978    45 H    0.974
                            21 N    0.942
    23   6 C    3.850 --    24 O    1.477    25 C    1.173    21 N    1.072
    24   8 O    1.796 --    23 C    1.477    21 N    0.110
    25   6 C    3.774 --     5 C    1.361    23 C    1.173    26 O    1.051
    26   8 O    2.005 --    25 C    1.051    46 H    0.824
    27   1 H    1.015 --     1 C    0.987
    28   1 H    1.012 --     1 C    0.980
    29   1 H    1.012 --     1 C    0.980
    30   1 H    1.015 --     9 C    0.984
    31   1 H    1.006 --     9 C    0.980
    32   1 H    1.010 --     9 C    0.982
    33   1 H    1.012 --    10 C    0.975
    34   1 H    1.005 --    10 C    0.982
    35   1 H    1.003 --    10 C    0.985
    36   1 H    0.998 --    11 N    0.926
    37   1 H    1.012 --    14 C    0.981
    38   1 H    1.023 --    14 C    0.980
    39   1 H    1.017 --    14 C    0.985
    40   1 H    1.002 --    19 C    0.971
    41   1 H    1.002 --    19 C    0.973
    42   1 H    1.005 --    19 C    0.986
    43   1 H    1.010 --    22 C    0.978
    44   1 H    1.003 --    22 C    0.978
    45   1 H    1.012 --    22 C    0.974
    46   1 H    0.869 --    26 O    0.824
 ---------------------------------------------------------------------------

           -------------------------------------------------
          | TOTAL ENERGY              -87.015134173943 Eh   |
          | GRADIENT NORM               0.000765008305 Eh/α |
          | HOMO-LUMO GAP               0.064687201650 eV   |
           -------------------------------------------------

 * finished run on 2023/06/20 at 15:22:47.683
