   * xtb version 6.5.1 (579679a) compiled by 'ehlert@majestix' on 2022-07-11
          program call               : /lustre/hpc/kemi/ree/PhD/git/ReactivityQM/dep/xtb-6.5.1/bin/xtb --gfn 1 /lustre/hpc/kemi/ree/PhD/git/ReactivityQM/calculations/R01/reac01prodE05/conf05/R01_reac01prodE05_conf05_gfn1.xyz --opt --vfukui --chrg -1 --uhf 0 --alpb DMSO

   ID    Z sym.   atoms
    1    6 C      1, 3, 5, 8-10
    2    8 O      2, 4, 11
    3    7 N      6, 7
    4    1 H      12-20

      * Solvation model:               ALPB
        Solvent                        DMSO
        Solvent mass                       7.8130E+01 g/mol
          :  Hamiltonian                  GFN1-xTB          :
 * total energy  :   -38.2528121 Eh     change       -0.2700062E-11 Eh
 * total energy  :   -38.2704338 Eh     change       -0.1762170E-01 Eh
 * total energy  :   -38.2762635 Eh     change       -0.5829726E-02 Eh
 * total energy  :   -38.2769565 Eh     change       -0.6929790E-03 Eh
 * total energy  :   -38.2773424 Eh     change       -0.3859222E-03 Eh
 * total energy  :   -38.2773976 Eh     change       -0.5515446E-04 Eh
 * total energy  :   -38.2774311 Eh     change       -0.3356040E-04 Eh
 * total energy  :   -38.2774451 Eh     change       -0.1395905E-04 Eh
 * total energy  :   -38.2774519 Eh     change       -0.6832253E-05 Eh
 * total energy  :   -38.2774624 Eh     change       -0.1047232E-04 Eh
 * total energy  :   -38.2774669 Eh     change       -0.4538010E-05 Eh
 * total energy  :   -38.2774752 Eh     change       -0.8288383E-05 Eh
 * total energy  :   -38.2774811 Eh     change       -0.5933992E-05 Eh
 * total energy  :   -38.2774914 Eh     change       -0.1022551E-04 Eh
 * total energy  :   -38.2775015 Eh     change       -0.1008235E-04 Eh
 * total energy  :   -38.2775084 Eh     change       -0.6907614E-05 Eh
 * total energy  :   -38.2775124 Eh     change       -0.4002621E-05 Eh
   *** GEOMETRY OPTIMIZATION CONVERGED AFTER 17 ITERATIONS ***

 final structure:
================
20
 xtb: 6.5.1 (579679a)
C            4.11405732485284       -0.56151512734484       -0.46672419763900
O            2.82070059830635       -0.02004848440986       -0.36055076611017
C            1.77276306745822       -1.03003600430504       -0.32317244781529
O            2.11671442610651       -2.25498829554158       -0.40762568065894
C            0.54479427725006       -0.47249073770364       -0.18365479733150
N            0.18641850083946        0.90456515593541       -0.10283856762280
N           -1.13623173998750        0.86674446179824       -0.01577108493953
C           -1.86230792676545        2.11003105220242        0.07730434637840
C           -1.66593444123768       -0.33682161072028       -0.04345654820535
C           -3.10063773974842       -0.70147877202499        0.07956807055450
O           -0.68084435932050       -1.28385802386540       -0.13550279117243
H            4.36296932528860       -1.20357110113265        0.39193327568539
H            4.82086230944876        0.27259190183681       -0.49638568774673
H            4.23608808775787       -1.15925228072894       -1.38283763968566
H           -2.47563701584790        2.25090079948286       -0.81302539877674
H           -2.50636515053993        2.09879541787776        0.95604519112698
H           -1.13830385380783        2.91823369693340        0.15745052921355
H           -3.21093399285693       -1.77199827417944       -0.08638209621017
H           -3.49243336848103       -0.46032150064738        1.07182451124184
H           -3.70574132871558       -0.16548327346288       -0.65434722028621

          :  Hamiltonian                  GFN1-xTB          :
         :: total energy             -38.277512365694 Eh    ::
         :: gradient norm              0.000953674397 Eh/a0 ::
         :: HOMO-LUMO gap              0.966114881757 eV    ::
         :: SCC energy               -38.590635705677 Eh    ::
         :: -> Gsolv                  -0.121498813314 Eh    ::
         :: repulsion energy           0.321274798836 Eh    ::

    * Orbital Energies and Occupations

         #    Occupation            Energy/Eh            Energy/eV
      -------------------------------------------------------------
         1        2.0000           -0.8003871             -21.7796
       ...           ...                  ...                  ...
        19        2.0000           -0.5146238             -14.0036
        20        2.0000           -0.5093124             -13.8591
        21        2.0000           -0.5041731             -13.7192
        22        2.0000           -0.4877723             -13.2730
        23        2.0000           -0.4667572             -12.7011
        24        2.0000           -0.4596758             -12.5084
        25        2.0000           -0.4554746             -12.3941
        26        2.0000           -0.4386780             -11.9370
        27        2.0000           -0.4071807             -11.0800
        28        2.0000           -0.4025530             -10.9540
        29        2.0000           -0.3699503             -10.0669
        30        2.0000           -0.3648951              -9.9293
        31        2.0000           -0.2579301              -7.0186 (HOMO)
        32                         -0.2224260              -6.0525 (LUMO)
        33                         -0.1400017              -3.8096
        34                         -0.1241906              -3.3794
        35                         -0.0997672              -2.7148
        36                         -0.0993810              -2.7043
        37                         -0.0828151              -2.2535
        38                         -0.0700023              -1.9049
        39                         -0.0520476              -1.4163
        40                         -0.0485956              -1.3224
        41                         -0.0389916              -1.0610
        42                         -0.0354383              -0.9643
       ...                                ...                  ...
        62                          0.7102238              19.3262
      -------------------------------------------------------------
                  HL-Gap            0.0355041 Eh            0.9661 eV

Wiberg/Mayer (AO) data.
largest (>0.10) Wiberg bond orders for each atom

     #   Z sym  total        # sym  WBO       # sym  WBO       # sym  WBO
 ---------------------------------------------------------------------------
     1   6 C    3.932 --    13 H    0.986    12 H    0.980    14 H    0.979
                             2 O    0.970
     2   8 O    1.993 --     1 C    0.970     3 C    0.849
     3   6 C    3.876 --     5 C    1.543     4 O    1.317     2 O    0.849
     4   8 O    1.649 --     3 C    1.317     5 C    0.166
     5   6 C    3.708 --     3 C    1.543     6 N    1.057    11 O    0.837
                             4 O    0.166
     6   7 N    2.754 --     7 N    1.183     5 C    1.057     9 C    0.327
     7   7 N    3.635 --     9 C    1.376     6 N    1.183     8 C    0.952
     8   6 C    3.956 --    17 H    0.985    16 H    0.982    15 H    0.981
                             7 N    0.952
     9   6 C    3.868 --     7 N    1.376    11 O    1.031    10 C    1.024
                             6 N    0.327
    10   6 C    3.994 --     9 C    1.024    18 H    0.983    20 H    0.975
                            19 H    0.970
    11   8 O    2.088 --     9 C    1.031     5 C    0.837
    12   1 H    1.027 --     1 C    0.980
    13   1 H    1.023 --     1 C    0.986
    14   1 H    1.028 --     1 C    0.979
    15   1 H    1.003 --     8 C    0.981
    16   1 H    1.003 --     8 C    0.982
    17   1 H    1.014 --     8 C    0.985
    18   1 H    1.003 --    10 C    0.983
    19   1 H    1.004 --    10 C    0.970
    20   1 H    1.005 --    10 C    0.975
 ---------------------------------------------------------------------------

           -------------------------------------------------
          | TOTAL ENERGY              -38.277512365694 Eh   |
          | GRADIENT NORM               0.000953674397 Eh/α |
          | HOMO-LUMO GAP               0.966114881757 eV   |
           -------------------------------------------------

 * finished run on 2023/06/20 at 14:54:00.011
