                         Program Version 5.0.1 -  RELEASE  -
|  1> # ORCA input file
|  2> ! SP r2SCAN-3c CPCM
|  3>
|  4> %maxcore 1875.0
|  5> %pal nprocs 4 end
|  6> %cpcm smd true SMDsolvent "DMSO" end
|  7>
|  8> *xyz -2 1
|  9> C      -5.079555   -1.682698   -1.108498
| 10> O      -3.869842   -1.091157   -0.675441
| 11> C      -3.729261   -1.003911    0.719331
| 12> O      -4.679116   -1.440619    1.436615
| 13> C      -2.547309   -0.442059    1.210327
| 14> C      -2.381255   -0.174635    2.604649
| 15> O      -3.307300   -0.672758    3.495538
| 16> C      -1.328232    0.618456    3.098099
| 17> O      -1.101058    0.875440    4.313855
| 18> N      -0.493146    1.202937    2.112447
| 19> C      -0.551381    0.870132    0.870681
| 20> C       0.416055    1.608979   -0.070268
| 21> C       1.088446    2.750211    0.715522
| 22> C      -0.364860    2.203040   -1.253837
| 23> N       1.438289    0.659020   -0.530029
| 24> C       2.488832    1.099443   -1.361007
| 25> O       2.408630    2.135516   -2.063421
| 26> C       3.608943    0.222709   -1.376182
| 27> N       4.750364    0.355986   -2.068886
| 28> N       5.532405   -0.714775   -1.734992
| 29> C       4.873536   -1.433943   -0.887094
| 30> C       5.320160   -2.698722   -0.250698
| 31> O       3.648338   -0.925311   -0.594720
| 32> N      -1.475429   -0.007119    0.357979
| 33> C      -1.198442   -0.811059   -0.830678
| 34> H      -5.182236   -2.705755   -0.726416
| 35> H      -5.056532   -1.706762   -2.199134
| 36> H      -5.948496   -1.099949   -0.778081
| 37> H      -4.023750   -1.091644    2.944128
| 38> H       1.653527    2.348401    1.556316
| 39> H       1.764113    3.303999    0.065121
| 40> H       0.329751    3.431071    1.100617
| 41> H       0.200129    3.008469   -1.720370
| 42> H      -1.314048    2.605955   -0.899572
| 43> H      -0.564460    1.449190   -2.012276
| 44> H       1.758559    0.040490    0.205900
| 45> H       4.664504   -3.522702   -0.536963
| 46> H       5.295561   -2.610387    0.836288
| 47> H       6.335382   -2.923922   -0.570208
| 48> H      -0.139012   -0.763349   -1.080329
| 49> H      -1.780693   -0.465132   -1.687133
| 50> H      -1.460116   -1.851163   -0.627179
| 51> **                         ****END OF INPUT****

CARTESIAN COORDINATES (ANGSTROEM)
---------------------------------
  C     -5.079555   -1.682698   -1.108498
  O     -3.869842   -1.091157   -0.675441
  C     -3.729261   -1.003911    0.719331
  O     -4.679116   -1.440619    1.436615
  C     -2.547309   -0.442059    1.210327
  C     -2.381255   -0.174635    2.604649
  O     -3.307300   -0.672758    3.495538
  C     -1.328232    0.618456    3.098099
  O     -1.101058    0.875440    4.313855
  N     -0.493146    1.202937    2.112447
  C     -0.551381    0.870132    0.870681
  C      0.416055    1.608979   -0.070268
  C      1.088446    2.750211    0.715522
  C     -0.364860    2.203040   -1.253837
  N      1.438289    0.659020   -0.530029
  C      2.488832    1.099443   -1.361007
  O      2.408630    2.135516   -2.063421
  C      3.608943    0.222709   -1.376182
  N      4.750364    0.355986   -2.068886
  N      5.532405   -0.714775   -1.734992
  C      4.873536   -1.433943   -0.887094
  C      5.320160   -2.698722   -0.250698
  O      3.648338   -0.925311   -0.594720
  N     -1.475429   -0.007119    0.357979
  C     -1.198442   -0.811059   -0.830678
  H     -5.182236   -2.705755   -0.726416
  H     -5.056532   -1.706762   -2.199134
  H     -5.948496   -1.099949   -0.778081
  H     -4.023750   -1.091644    2.944128
  H      1.653527    2.348401    1.556316
  H      1.764113    3.303999    0.065121
  H      0.329751    3.431071    1.100617
  H      0.200129    3.008469   -1.720370
  H     -1.314048    2.605955   -0.899572
  H     -0.564460    1.449190   -2.012276
  H      1.758559    0.040490    0.205900
  H      4.664504   -3.522702   -0.536963
  H      5.295561   -2.610387    0.836288
  H      6.335382   -2.923922   -0.570208
  H     -0.139012   -0.763349   -1.080329
  H     -1.780693   -0.465132   -1.687133
  H     -1.460116   -1.851163   -0.627179

 Total Charge           Charge          ....   -2
 Multiplicity           Mult            ....    1
 Number of Electrons    NEL             ....  186
 Basis Dimension        Dim             ....  615

ORBITAL ENERGIES
----------------

  NO   OCC          E(Eh)            E(eV)
   0   2.0000     -19.013632      -517.3872
   1   2.0000     -18.952523      -515.7244
   2   2.0000     -18.928528      -515.0714
   3   2.0000     -18.886333      -513.9232
   4   2.0000     -18.883228      -513.8388
   5   2.0000     -18.851218      -512.9677
   6   2.0000     -14.182925      -385.9370
   7   2.0000     -14.166441      -385.4885
   8   2.0000     -14.154003      -385.1500
   9   2.0000     -14.153589      -385.1387
  10   2.0000     -14.110658      -383.9705
  11   2.0000     -10.105739      -274.9911
  12   2.0000     -10.097510      -274.7672
  13   2.0000     -10.095992      -274.7259
  14   2.0000     -10.086144      -274.4579
  15   2.0000     -10.080664      -274.3088
  16   2.0000     -10.070619      -274.0355
  17   2.0000     -10.056994      -273.6647
  18   2.0000     -10.054943      -273.6089
  19   2.0000     -10.047177      -273.3976
  20   2.0000     -10.033073      -273.0138
  21   2.0000     -10.032790      -273.0061
  22   2.0000     -10.030290      -272.9381
  23   2.0000     -10.001288      -272.1489
  24   2.0000      -9.998175      -272.0642
  25   2.0000      -1.091889       -29.7118
  26   2.0000      -1.012045       -27.5391
  27   2.0000      -0.972121       -26.4528
  28   2.0000      -0.957405       -26.0523
  29   2.0000      -0.932880       -25.3850
  30   2.0000      -0.927437       -25.2368
  31   2.0000      -0.917670       -24.9711
  32   2.0000      -0.905527       -24.6406
  33   2.0000      -0.861109       -23.4320
  34   2.0000      -0.821864       -22.3641
  35   2.0000      -0.785397       -21.3718
  36   2.0000      -0.736314       -20.0361
  37   2.0000      -0.706103       -19.2140
  38   2.0000      -0.684108       -18.6155
  39   2.0000      -0.659571       -17.9478
  40   2.0000      -0.645397       -17.5621
  41   2.0000      -0.637930       -17.3589
  42   2.0000      -0.629490       -17.1293
  43   2.0000      -0.598302       -16.2806
  44   2.0000      -0.580605       -15.7991
  45   2.0000      -0.557084       -15.1590
  46   2.0000      -0.534845       -14.5539
  47   2.0000      -0.509120       -13.8539
  48   2.0000      -0.498507       -13.5651
  49   2.0000      -0.493170       -13.4198
  50   2.0000      -0.485796       -13.2192
  51   2.0000      -0.453968       -12.3531
  52   2.0000      -0.446673       -12.1546
  53   2.0000      -0.439253       -11.9527
  54   2.0000      -0.425931       -11.5902
  55   2.0000      -0.416414       -11.3312
  56   2.0000      -0.413631       -11.2555
  57   2.0000      -0.408658       -11.1201
  58   2.0000      -0.403151       -10.9703
  59   2.0000      -0.396516       -10.7897
  60   2.0000      -0.389079       -10.5874
  61   2.0000      -0.379100       -10.3158
  62   2.0000      -0.377405       -10.2697
  63   2.0000      -0.370201       -10.0737
  64   2.0000      -0.361800        -9.8451
  65   2.0000      -0.361530        -9.8377
  66   2.0000      -0.356317        -9.6959
  67   2.0000      -0.353260        -9.6127
  68   2.0000      -0.347367        -9.4523
  69   2.0000      -0.341392        -9.2897
  70   2.0000      -0.331799        -9.0287
  71   2.0000      -0.326697        -8.8899
  72   2.0000      -0.322236        -8.7685
  73   2.0000      -0.319343        -8.6898
  74   2.0000      -0.314565        -8.5598
  75   2.0000      -0.303420        -8.2565
  76   2.0000      -0.300028        -8.1642
  77   2.0000      -0.293707        -7.9922
  78   2.0000      -0.292815        -7.9679
  79   2.0000      -0.283796        -7.7225
  80   2.0000      -0.280017        -7.6197
  81   2.0000      -0.263992        -7.1836
  82   2.0000      -0.233406        -6.3513
  83   2.0000      -0.232616        -6.3298
  84   2.0000      -0.220146        -5.9905
  85   2.0000      -0.217145        -5.9088
  86   2.0000      -0.215795        -5.8721
  87   2.0000      -0.210438        -5.7263
  88   2.0000      -0.202136        -5.5004
  89   2.0000      -0.193747        -5.2721
  90   2.0000      -0.168628        -4.5886
  91   2.0000      -0.158069        -4.3013
  92   2.0000      -0.064713        -1.7609
  93   0.0000      -0.063888        -1.7385
  94   0.0000      -0.007716        -0.2100
  95   0.0000       0.010172         0.2768
  96   0.0000       0.060986         1.6595
  97   0.0000       0.062352         1.6967

MULLIKEN ATOMIC CHARGES
-----------------------
   0 C :   -0.360624
   1 O :   -0.195954
   2 C :    0.162624
   3 O :   -0.549532
   4 C :   -0.278152
   5 C :   -0.032692
   6 O :   -0.403639
   7 C :   -0.288931
   8 O :   -0.423886
   9 N :   -0.153547
  10 C :    0.075257
  11 C :    0.200022
  12 C :   -0.720729
  13 C :   -0.609736
  14 N :   -0.181071
  15 C :   -0.261243
  16 O :   -0.467781
  17 C :    0.294361
  18 N :   -0.258698
  19 N :   -0.290768
  20 C :    0.322729
  21 C :   -0.649823
  22 O :   -0.096863
  23 N :    0.315876
  24 C :   -0.476703
  25 H :    0.156462
  26 H :    0.156482
  27 H :    0.155813
  28 H :    0.365937
  29 H :    0.187699
  30 H :    0.181909
  31 H :    0.177363
  32 H :    0.189184
  33 H :    0.176101
  34 H :    0.174809
  35 H :    0.305649
  36 H :    0.184259
  37 H :    0.183335
  38 H :    0.192933
  39 H :    0.192523
  40 H :    0.183961
  41 H :    0.165085
Sum of atomic charges:   -2.0000000

LOEWDIN ATOMIC CHARGES
----------------------
   0 C :   -0.063934
   1 O :   -0.671686
   2 C :    0.334160
   3 O :   -0.625696
   4 C :    0.122455
   5 C :    0.199387
   6 O :   -0.536139
   7 C :    0.253596
   8 O :   -0.601864
   9 N :   -0.606737
  10 C :    0.337633
  11 C :    0.104563
  12 C :   -0.359363
  13 C :   -0.359857
  14 N :   -0.672862
  15 C :    0.320242
  16 O :   -0.564484
  17 C :    0.350888
  18 N :   -0.432668
  19 N :   -0.435270
  20 C :    0.330214
  21 C :   -0.333425
  22 O :   -0.453767
  23 N :   -0.745114
  24 C :   -0.107197
  25 H :    0.168081
  26 H :    0.172822
  27 H :    0.167540
  28 H :    0.300181
  29 H :    0.170232
  30 H :    0.166638
  31 H :    0.166266
  32 H :    0.175575
  33 H :    0.163730
  34 H :    0.170700
  35 H :    0.286089
  36 H :    0.179255
  37 H :    0.178956
  38 H :    0.183088
  39 H :    0.199928
  40 H :    0.179007
  41 H :    0.188838

  Mayer bond orders larger than 0.100000
B(  0-C ,  1-O ) :   0.8541 B(  0-C , 25-H ) :   0.9650 B(  0-C , 26-H ) :   0.9686
B(  0-C , 27-H ) :   0.9651 B(  1-O ,  2-C ) :   1.0322 B(  2-C ,  3-O ) :   1.4891
B(  2-C ,  4-C ) :   1.3959 B(  3-O , 28-H ) :   0.1428 B(  4-C ,  5-C ) :   0.9976
B(  4-C , 23-N ) :   0.9163 B(  5-C ,  6-O ) :   1.0784 B(  5-C ,  7-C ) :   1.1492
B(  5-C ,  8-O ) :  -0.1195 B(  6-O , 28-H ) :   0.7252 B(  7-C ,  8-O ) :   2.1017
B(  7-C ,  9-N ) :   1.0236 B(  8-O ,  9-N ) :  -0.1351 B(  9-N , 10-C ) :   1.7403
B(  9-N , 23-N ) :   0.1100 B( 10-C , 11-C ) :   0.9459 B( 10-C , 23-N ) :   1.2076
B( 11-C , 12-C ) :   0.8486 B( 11-C , 13-C ) :   0.8352 B( 11-C , 14-N ) :   0.8759
B( 12-C , 29-H ) :   0.9852 B( 12-C , 30-H ) :   0.9711 B( 12-C , 31-H ) :   0.9713
B( 13-C , 32-H ) :   0.9631 B( 13-C , 33-H ) :   0.9774 B( 13-C , 34-H ) :   0.9649
B( 14-N , 15-C ) :   1.0057 B( 14-N , 35-H ) :   0.8647 B( 15-C , 16-O ) :   1.8793
B( 15-C , 17-C ) :   0.8893 B( 16-O , 17-C ) :  -0.1534 B( 17-C , 18-N ) :   1.5295
B( 17-C , 22-O ) :   1.0110 B( 18-N , 19-N ) :   1.3418 B( 19-N , 20-C ) :   1.7007
B( 20-C , 21-C ) :   0.8113 B( 20-C , 22-O ) :   1.0230 B( 21-C , 36-H ) :   0.9476
B( 21-C , 37-H ) :   0.9528 B( 21-C , 38-H ) :   1.0007 B( 23-N , 24-C ) :   0.8481
B( 24-C , 39-H ) :   0.9358 B( 24-C , 40-H ) :   0.9663 B( 24-C , 41-H ) :   0.9348

Dispersion correction           -0.019642248
FINAL SINGLE POINT ENERGY     -1268.798333814134

DIPOLE MOMENT
-------------
                                X             Y             Z
Electronic contribution:      4.46745      -0.14132       6.34750
Nuclear contribution   :     -4.67837      -3.04404      -9.66526
                        -----------------------------------------
Total Dipole Moment    :     -0.21092      -3.18536      -3.31777
                        -----------------------------------------
Magnitude (a.u.)       :      4.60419
Magnitude (Debye)      :     11.70292

Rotational constants in cm-1:     0.011861     0.003640     0.003506
Rotational constants in MHz :   355.590229   109.132386   105.115605

                             ****ORCA TERMINATED NORMALLY****
TOTAL RUN TIME: 0 days 0 hours 3 minutes 20 seconds 82 msec
