   * xtb version 6.5.1 (579679a) compiled by 'ehlert@majestix' on 2022-07-11
          program call               : /lustre/hpc/kemi/ree/PhD/git/ReactivityQM/dep/xtb-6.5.1/bin/xtb --gfn 1 /lustre/hpc/kemi/ree/PhD/git/ReactivityQM/calculations/R02deprot/reac01prodE05/conf12/R02deprot_reac01prodE05_conf12_gfn1.xyz --opt --vfukui --chrg -2 --uhf 0 --alpb DMSO

   ID    Z sym.   atoms
    1    6 C      1, 3, 5, 6, 8, 11-14, 16, 18, 21, 22, 25
    2    8 O      2, 4, 7, 9, 17, 23
    3    7 N      10, 15, 19, 20, 24
    4    1 H      26-42

      * Solvation model:               ALPB
        Solvent                        DMSO
        Solvent mass                       7.8130E+01 g/mol
          :  Hamiltonian                  GFN1-xTB          :
 * total energy  :   -83.5651974 Eh     change       -0.3107914E-10 Eh
 * total energy  :   -83.5782007 Eh     change       -0.1300334E-01 Eh
 * total energy  :   -83.5830947 Eh     change       -0.4893972E-02 Eh
 * total energy  :   -83.5839945 Eh     change       -0.8997892E-03 Eh
 * total energy  :   -83.5848704 Eh     change       -0.8759201E-03 Eh
 * total energy  :   -83.5852215 Eh     change       -0.3511417E-03 Eh
 * total energy  :   -83.5854954 Eh     change       -0.2738772E-03 Eh
 * total energy  :   -83.5856666 Eh     change       -0.1712388E-03 Eh
 * total energy  :   -83.5857718 Eh     change       -0.1051827E-03 Eh
 * total energy  :   -83.5858396 Eh     change       -0.6779298E-04 Eh
 * total energy  :   -83.5863644 Eh     change       -0.9160092E-05 Eh
 * total energy  :   -83.5863760 Eh     change       -0.1158644E-04 Eh
 * total energy  :   -83.5863850 Eh     change       -0.9013285E-05 Eh
 * total energy  :   -83.5863941 Eh     change       -0.9144054E-05 Eh
 * total energy  :   -83.5864020 Eh     change       -0.7857111E-05 Eh
 * total energy  :   -83.5864089 Eh     change       -0.6916919E-05 Eh
 * total energy  :   -83.5864134 Eh     change       -0.4515380E-05 Eh
 * total energy  :   -83.5864156 Eh     change       -0.2212926E-05 Eh
 * total energy  :   -83.5864188 Eh     change       -0.3183944E-05 Eh
   *** GEOMETRY OPTIMIZATION CONVERGED AFTER 39 ITERATIONS ***

 final structure:
================
42
 xtb: 6.5.1 (579679a)
C           -5.07955533435074       -1.68269823435483       -1.10849785299771
O           -3.86984221231513       -1.09115671046343       -0.67544101526788
C           -3.72926101644074       -1.00391132637903        0.71933100938129
O           -4.67911561443536       -1.44061892889901        1.43661504407536
C           -2.54730898575382       -0.44205923125590        1.21032693480702
C           -2.38125540695881       -0.17463520398015        2.60464855467100
O           -3.30729993276805       -0.67275802273496        3.49553809948570
C           -1.32823208182636        0.61845597528434        3.09809856824251
O           -1.10105775708371        0.87544042892162        4.31385491876686
N           -0.49314599314855        1.20293663944004        2.11244685084279
C           -0.55138078182238        0.87013166311342        0.87068098470231
C            0.41605472117802        1.60897862789388       -0.07026769405924
C            1.08844608129478        2.75021128042934        0.71552197818828
C           -0.36485969970416        2.20303964002095       -1.25383734387015
N            1.43828872373732        0.65902016737184       -0.53002852322947
C            2.48883188839376        1.09944302530771       -1.36100668993551
O            2.40862975806583        2.13551601057194       -2.06342139151413
C            3.60894291526926        0.22270920757685       -1.37618213758734
N            4.75036391439625        0.35598553422216       -2.06888563472684
N            5.53240544692466       -0.71477517513009       -1.73499157029057
C            4.87353638174649       -1.43394317194883       -0.88709434863604
C            5.32015967158377       -2.69872174871470       -0.25069799457020
O            3.64833782510017       -0.92531143652762       -0.59471997060711
N           -1.47542859218674       -0.00711853412057        0.35797861149862
C           -1.19844157644838       -0.81105926784749       -0.83067845608040
H           -5.18223645178048       -2.70575463234966       -0.72641594712037
H           -5.05653163108661       -1.70676199856350       -2.19913439293538
H           -5.94849575116558       -1.09994892545707       -0.77808110199005
H           -4.02375035757586       -1.09164417769557        2.94412780550890
H            1.65352698402249        2.34840111568584        1.55631596637509
H            1.76411257504459        3.30399913560872        0.06512069595424
H            0.32975133243754        3.43107086302656        1.10061728189470
H            0.20012875989804        3.00846927845570       -1.72036965545441
H           -1.31404797220983        2.60595534620293       -0.89957213309394
H           -0.56446021723017        1.44919032847591       -2.01227577587786
H            1.75855942580724        0.04048959082878        0.20590001933485
H            4.66450381721175       -3.52270153626110       -0.53696259661939
H            5.29556130309258       -2.61038737624148        0.83628768025802
H            6.33538247211574       -2.92392182233182       -0.57020798592493
H           -0.13901229507694       -0.76334857716513       -1.08032877630889
H           -1.78069256189844       -0.46513189494877       -1.68713314817837
H           -1.46011577404798       -1.85116292506283       -0.62717886711139

          :  Hamiltonian                  GFN1-xTB          :
         :: total energy             -83.586418814888 Eh    ::
         :: gradient norm              0.000768919106 Eh/a0 ::
         :: HOMO-LUMO gap              0.025557013729 eV    ::
         :: SCC energy               -84.304479015799 Eh    ::
         :: -> Gsolv                  -0.257526064442 Eh    ::
         :: repulsion energy           0.744775536145 Eh    ::

    * Orbital Energies and Occupations

         #    Occupation            Energy/Eh            Energy/eV
      -------------------------------------------------------------
         1        2.0000           -0.7968534             -21.6835
       ...           ...                  ...                  ...
        56        2.0000           -0.4374291             -11.9031
        57        2.0000           -0.4349862             -11.8366
        58        2.0000           -0.4232988             -11.5185
        59        2.0000           -0.4043667             -11.0034
        60        2.0000           -0.4020637             -10.9407
        61        2.0000           -0.3986327             -10.8473
        62        2.0000           -0.3943279             -10.7302
        63        2.0000           -0.3927420             -10.6871
        64        2.0000           -0.3906578             -10.6303
        65        2.0000           -0.3828146             -10.4169
        66        2.0000           -0.3510032              -9.5513
        67        2.0000           -0.3465460              -9.4300
        68        1.2422           -0.2649443              -7.2095 (HOMO)
        69        0.7578           -0.2640051              -7.1839 (LUMO)
        70                         -0.2178919              -5.9291
        71                         -0.2059936              -5.6054
        72                         -0.1559328              -4.2431
        73                         -0.1361674              -3.7053
        74                         -0.1223210              -3.3285
        75                         -0.1084114              -2.9500
        76                         -0.1019477              -2.7741
        77                         -0.0943737              -2.5680
        78                         -0.0876408              -2.3848
        79                         -0.0788984              -2.1469
       ...                                ...                  ...
       134                          0.7081307              19.2692
      -------------------------------------------------------------
                  HL-Gap            0.0009392 Eh            0.0256 eV

Wiberg/Mayer (AO) data.
largest (>0.10) Wiberg bond orders for each atom

     #   Z sym  total        # sym  WBO       # sym  WBO       # sym  WBO
 ---------------------------------------------------------------------------
     1   6 C    3.912 --    27 H    0.987    28 H    0.981    26 H    0.980
                             2 O    0.942
     2   8 O    2.060 --     1 C    0.942     3 C    0.936
     3   6 C    3.726 --     4 O    1.359     5 C    1.333     2 O    0.936
     4   8 O    1.715 --     3 C    1.359    29 H    0.103
     5   6 C    3.767 --     3 C    1.333     6 C    1.216    24 N    0.973
     6   6 C    3.720 --     8 C    1.278     5 C    1.216     7 O    1.025
     7   8 O    1.944 --     6 C    1.025    29 H    0.779
     8   6 C    3.825 --     9 O    1.404     6 C    1.278    10 N    1.032
     9   8 O    1.616 --     8 C    1.404
    10   7 N    2.980 --    11 C    1.618     8 C    1.032    24 N    0.126
    11   6 C    3.923 --    10 N    1.618    24 N    1.170    12 C    0.963
    12   6 C    3.950 --    14 C    0.992    13 C    0.991    11 C    0.963
                            15 N    0.941
    13   6 C    3.993 --    12 C    0.991    32 H    0.987    30 H    0.985
                            31 H    0.984
    14   6 C    3.994 --    12 C    0.992    34 H    0.988    35 H    0.982
                            33 H    0.981
    15   7 N    3.146 --    16 C    1.060    12 C    0.941    36 H    0.921
                            17 O    0.101
    16   6 C    3.738 --    17 O    1.428    18 C    1.179    15 N    1.060
    17   8 O    1.667 --    16 C    1.428    15 N    0.101
    18   6 C    3.686 --    19 N    1.377    16 C    1.179    23 O    0.960
    19   7 N    2.704 --    18 C    1.377    20 N    1.190
    20   7 N    2.982 --    21 C    1.628    19 N    1.190
    21   6 C    3.808 --    20 N    1.628    23 O    1.037    22 C    1.023
    22   6 C    3.994 --    21 C    1.023    39 H    0.986    38 H    0.972
                            37 H    0.971
    23   8 O    2.167 --    21 C    1.037    18 C    0.960
    24   7 N    3.317 --    11 C    1.170     5 C    0.973    25 C    0.946
                            10 N    0.126
    25   6 C    3.954 --    42 H    0.982    41 H    0.981    40 H    0.976
                            24 N    0.946
    26   1 H    1.019 --     1 C    0.980
    27   1 H    1.018 --     1 C    0.987
    28   1 H    1.019 --     1 C    0.981
    29   1 H    0.893 --     7 O    0.779     4 O    0.103
    30   1 H    1.022 --    13 C    0.985
    31   1 H    1.015 --    13 C    0.984
    32   1 H    1.017 --    13 C    0.987
    33   1 H    1.025 --    14 C    0.981
    34   1 H    1.008 --    14 C    0.988
    35   1 H    1.010 --    14 C    0.982
    36   1 H    0.967 --    15 N    0.921
    37   1 H    1.001 --    22 C    0.971
    38   1 H    1.001 --    22 C    0.972
    39   1 H    1.005 --    22 C    0.986
    40   1 H    1.022 --    25 C    0.976
    41   1 H    1.025 --    25 C    0.981
    42   1 H    1.014 --    25 C    0.982
 ---------------------------------------------------------------------------

           -------------------------------------------------
          | TOTAL ENERGY              -83.586418814888 Eh   |
          | GRADIENT NORM               0.000768919106 Eh/α |
          | HOMO-LUMO GAP               0.025557013729 eV   |
           -------------------------------------------------

 * finished run on 2023/06/20 at 17:41:26.096
