   * xtb version 6.5.1 (579679a) compiled by 'ehlert@majestix' on 2022-07-11
          program call               : /lustre/hpc/kemi/ree/PhD/git/ReactivityQM/dep/xtb-6.5.1/bin/xtb --gfn 1 /lustre/hpc/kemi/ree/PhD/git/ReactivityQM/calculations/R01/reac02prodE03/conf08/R01_reac02prodE03_conf08_gfn1.xyz --opt --vfukui --chrg -1 --uhf 0 --alpb DMSO

   ID    Z sym.   atoms
    1    6 C      1, 3, 5, 6, 8-11, 14, 16
    2    8 O      2, 4, 15, 17
    3    7 N      7, 12, 13
    4    1 H      18-33

      * Solvation model:               ALPB
        Solvent                        DMSO
        Solvent mass                       7.8130E+01 g/mol
          :  Hamiltonian                  GFN1-xTB          :
 * total energy  :   -58.5310460 Eh     change       -0.4781953E-11 Eh
 * total energy  :   -58.5448994 Eh     change       -0.1385341E-01 Eh
 * total energy  :   -58.5487958 Eh     change       -0.3896396E-02 Eh
 * total energy  :   -58.5493856 Eh     change       -0.5898562E-03 Eh
 * total energy  :   -58.5497539 Eh     change       -0.3683117E-03 Eh
 * total energy  :   -58.5498624 Eh     change       -0.1084291E-03 Eh
 * total energy  :   -58.5499475 Eh     change       -0.8516001E-04 Eh
 * total energy  :   -58.5500067 Eh     change       -0.5912952E-04 Eh
 * total energy  :   -58.5500689 Eh     change       -0.6220116E-04 Eh
 * total energy  :   -58.5501432 Eh     change       -0.7431117E-04 Eh
 * total energy  :   -58.5515082 Eh     change       -0.1109129E-04 Eh
 * total energy  :   -58.5515145 Eh     change       -0.6303267E-05 Eh
 * total energy  :   -58.5515235 Eh     change       -0.9010097E-05 Eh
 * total energy  :   -58.5515327 Eh     change       -0.9190727E-05 Eh
 * total energy  :   -58.5515419 Eh     change       -0.9154574E-05 Eh
 * total energy  :   -58.5515513 Eh     change       -0.9389417E-05 Eh
 * total energy  :   -58.5515574 Eh     change       -0.6138495E-05 Eh
 * total energy  :   -58.5515567 Eh     change        0.7499030E-06 Eh
 * total energy  :   -58.5515616 Eh     change       -0.4899583E-05 Eh
   *** GEOMETRY OPTIMIZATION CONVERGED AFTER 44 ITERATIONS ***

 final structure:
================
33
 xtb: 6.5.1 (579679a)
C           -3.10312253652192        1.61529936468701        1.25123234943114
O           -2.04303039971068        0.90816898776281        0.61431992221834
C           -2.41100372830499       -0.06364893414032       -0.24579439947791
O           -3.58421958471122       -0.30077364792114       -0.47669298584226
C           -1.23601412610670       -0.90533331915670       -0.75964723336879
C           -1.62456385766860       -1.55155622496432       -2.09662343114783
N           -0.05482375902988       -0.07065320111486       -0.96277136733956
C            0.79955460989052        0.04310438996760       -0.01603990807361
C            2.00686161677788        0.94785828601802       -0.23003164999300
C            3.26842975572890        0.07668236895990       -0.37510398877561
C            2.16682363098745        1.92994652882908        0.93695100300570
N            1.78702544916875        1.72942488033647       -1.44455286369559
N            0.71120577007642       -0.58739883921820        1.18748230097480
C           -0.10757723796498       -1.78323296887371        1.32064436222828
O            0.15572489451623       -2.55837950712638        2.28432335362768
C           -1.03656207817388       -1.91801631249686        0.33748665268851
O           -1.90113607661287       -3.04477198274767        0.30775860776900
H           -3.71034395697180        0.93586667941868        1.85696790148846
H           -3.74569696699647        2.09513477851635        0.50668055449969
H           -2.64664262747276        2.37137421498767        1.88827709714051
H           -2.54912526698023       -2.11726539426353       -1.98559694718975
H           -1.76541969632705       -0.78140894297677       -2.85466810290642
H           -0.83175292590011       -2.22375570347657       -2.42123008580192
H            3.42581860844766       -0.52196264072978        0.52147144885662
H            4.14114839244569        0.70915749472968       -0.53039851831059
H            3.16430304410860       -0.58939420087929       -1.23102230388600
H            2.34997144196812        1.40276056547903        1.87173970665511
H            3.01019322978879        2.59220623825950        0.74544765130650
H            1.26528053172630        2.53463534008905        1.03967372202584
H            1.58454143292176        1.09387816011339       -2.21051734429598
H            2.63774963024026        2.22316135802997       -1.67294352323501
H            1.51477452114365       -0.58273277082089        1.79435032363298
H           -1.63837373448246       -3.60837704527285        1.04882869578792

          :  Hamiltonian                  GFN1-xTB          :
         :: total energy             -58.551561572734 Eh    ::
         :: gradient norm              0.000583100156 Eh/a0 ::
         :: HOMO-LUMO gap              1.969948319837 eV    ::
         :: SCC energy               -59.094670629416 Eh    ::
         :: -> Gsolv                  -0.111486241856 Eh    ::
         :: repulsion energy           0.562795592424 Eh    ::

    * Orbital Energies and Occupations

         #    Occupation            Energy/Eh            Energy/eV
      -------------------------------------------------------------
         1        2.0000           -0.8107203             -22.0608
       ...           ...                  ...                  ...
        36        2.0000           -0.4834344             -13.1549
        37        2.0000           -0.4778359             -13.0026
        38        2.0000           -0.4761347             -12.9563
        39        2.0000           -0.4700759             -12.7914
        40        2.0000           -0.4634770             -12.6118
        41        2.0000           -0.4538945             -12.3511
        42        2.0000           -0.4492925             -12.2259
        43        2.0000           -0.4337251             -11.8023
        44        2.0000           -0.3927004             -10.6859
        45        2.0000           -0.3909848             -10.6392
        46        2.0000           -0.3828604             -10.4182
        47        2.0000           -0.3720666             -10.1244
        48        2.0000           -0.3070109              -8.3542 (HOMO)
        49                         -0.2346166              -6.3842 (LUMO)
        50                         -0.2115142              -5.7556
        51                         -0.1300328              -3.5384
        52                         -0.1262319              -3.4349
        53                         -0.1141568              -3.1064
        54                         -0.1082463              -2.9455
        55                         -0.0963672              -2.6223
        56                         -0.0916164              -2.4930
        57                         -0.0684037              -1.8614
        58                         -0.0664850              -1.8091
        59                         -0.0659135              -1.7936
       ...                                ...                  ...
       100                          0.7071181              19.2417
      -------------------------------------------------------------
                  HL-Gap            0.0723943 Eh            1.9699 eV

Wiberg/Mayer (AO) data.
largest (>0.10) Wiberg bond orders for each atom

     #   Z sym  total        # sym  WBO       # sym  WBO       # sym  WBO
 ---------------------------------------------------------------------------
     1   6 C    3.894 --    20 H    0.987    19 H    0.981    18 H    0.981
                             2 O    0.916
     2   8 O    2.169 --     3 C    1.073     1 C    0.916     4 O    0.115
     3   6 C    3.809 --     4 O    1.627     2 O    1.073     5 C    0.922
     4   8 O    1.895 --     3 C    1.627     2 O    0.115
     5   6 C    3.967 --     6 C    0.988     7 N    0.973    16 C    0.955
                             3 C    0.922
     6   6 C    3.997 --    22 H    0.988     5 C    0.988    23 H    0.987
                            21 H    0.985
     7   7 N    2.973 --     8 C    1.679     5 C    0.973    13 N    0.157
     8   6 C    3.946 --     7 N    1.679    13 N    1.180     9 C    0.971
     9   6 C    3.968 --    11 C    0.992    12 N    0.988    10 C    0.979
                             8 C    0.971
    10   6 C    3.995 --    26 H    0.986    25 H    0.985    24 H    0.984
                             9 C    0.979
    11   6 C    3.996 --     9 C    0.992    29 H    0.986    28 H    0.985
                            27 H    0.984
    12   7 N    2.955 --     9 C    0.988    31 H    0.953    30 H    0.944
    13   7 N    3.301 --     8 C    1.180    32 H    0.914    14 C    0.909
                             7 N    0.157
    14   6 C    3.919 --    16 C    1.516    15 O    1.359    13 N    0.909
    15   8 O    1.703 --    14 C    1.359    16 C    0.170
    16   6 C    3.790 --    14 C    1.516     5 C    0.955    17 O    0.941
                            15 O    0.170
    17   8 O    1.913 --    16 C    0.941    33 H    0.859
    18   1 H    1.012 --     1 C    0.981
    19   1 H    1.013 --     1 C    0.981
    20   1 H    1.015 --     1 C    0.987
    21   1 H    1.017 --     6 C    0.985
    22   1 H    1.011 --     6 C    0.988
    23   1 H    1.012 --     6 C    0.987
    24   1 H    1.004 --    10 C    0.984
    25   1 H    1.005 --    10 C    0.985
    26   1 H    1.006 --    10 C    0.986
    27   1 H    1.005 --    11 C    0.984
    28   1 H    1.004 --    11 C    0.985
    29   1 H    1.010 --    11 C    0.986
    30   1 H    0.983 --    12 N    0.944
    31   1 H    0.967 --    12 N    0.953
    32   1 H    0.967 --    13 N    0.914
    33   1 H    0.892 --    17 O    0.859
 ---------------------------------------------------------------------------

           -------------------------------------------------
          | TOTAL ENERGY              -58.551561572734 Eh   |
          | GRADIENT NORM               0.000583100156 Eh/α |
          | HOMO-LUMO GAP               1.969948319837 eV   |
           -------------------------------------------------

 * finished run on 2023/06/20 at 14:58:47.166
