   * xtb version 6.5.1 (579679a) compiled by 'ehlert@majestix' on 2022-07-11
          program call               : /lustre/hpc/kemi/ree/PhD/git/ReactivityQM/dep/xtb-6.5.1/bin/xtb --gfn 1 /lustre/hpc/kemi/ree/PhD/git/ReactivityQM/calculations/R03/reac02prodE05/conf10/R03_reac02prodE05_conf10_gfn1.xyz --opt --vfukui --chrg -1 --uhf 0 --alpb DMSO

   ID    Z sym.   atoms
    1    6 C      1, 3, 5, 6, 8, 11-15, 17, 19, 22, 23, 26
    2    8 O      2, 4, 7, 9, 18, 24
    3    7 N      10, 16, 20, 21, 25
    4    1 H      27-46

      * Solvation model:               ALPB
        Solvent                        DMSO
        Solvent mass                       7.8130E+01 g/mol
          :  Hamiltonian                  GFN1-xTB          :
 * total energy  :   -86.9727782 Eh     change       -0.1207113E-08 Eh
 * total energy  :   -86.9850673 Eh     change       -0.1228906E-01 Eh
 * total energy  :   -86.9908065 Eh     change       -0.5739239E-02 Eh
 * total energy  :   -86.9921154 Eh     change       -0.1308915E-02 Eh
 * total energy  :   -86.9935872 Eh     change       -0.1471714E-02 Eh
 * total energy  :   -86.9943736 Eh     change       -0.7864468E-03 Eh
 * total energy  :   -86.9951357 Eh     change       -0.7620910E-03 Eh
 * total energy  :   -86.9958851 Eh     change       -0.7494356E-03 Eh
 * total energy  :   -86.9964902 Eh     change       -0.6050510E-03 Eh
 * total energy  :   -86.9969831 Eh     change       -0.4929034E-03 Eh
 * total energy  :   -87.0096232 Eh     change       -0.2208263E-04 Eh
 * total energy  :   -87.0096478 Eh     change       -0.2453299E-04 Eh
 * total energy  :   -87.0096637 Eh     change       -0.1593969E-04 Eh
 * total energy  :   -87.0096772 Eh     change       -0.1348344E-04 Eh
 * total energy  :   -87.0096840 Eh     change       -0.6797340E-05 Eh
 * total energy  :   -87.0096927 Eh     change       -0.8710122E-05 Eh
 * total energy  :   -87.0096953 Eh     change       -0.2592475E-05 Eh
 * total energy  :   -87.0097016 Eh     change       -0.6270052E-05 Eh
 * total energy  :   -87.0097064 Eh     change       -0.4841438E-05 Eh
   *** GEOMETRY OPTIMIZATION CONVERGED AFTER 84 ITERATIONS ***

 final structure:
================
46
 xtb: 6.5.1 (579679a)
C           -3.86487972657749        1.96951714497545        2.71527381206750
O           -3.10092546808104        1.92099741659502        1.51460722064783
C           -2.82703269496245        0.65496127292338        1.04251660812602
O           -3.22938452234568       -0.32918853909376        1.65892366297295
C           -2.10278407455525        0.63666207708138       -0.19588631646926
C           -1.46094704974789        1.69067501972865       -0.83014800248240
O           -1.49852360908192        2.98352853562821       -0.39241860260636
C           -0.54111466898332        1.44235664931232       -1.91800837642014
O           -0.09228074007731        2.31980988023487       -2.69851437475768
N           -0.09053315744792        0.13729069245908       -1.96175640016293
C            1.04654371989841       -0.14200884896295       -2.83783157912322
C           -0.72066329353840       -0.93011151347181       -1.31981593079980
C            0.10582174048320       -1.84273471049866       -0.42129005168919
C            0.75232282222630       -2.97229116206797       -1.24854274124111
C           -0.78330924268102       -2.47258088172807        0.66053978224184
N            1.17845406243082       -1.05776578058719        0.24188673717046
C            2.15337732486264       -1.58049829670371        0.99340485840218
O            2.26736424243626       -2.75772408972483        1.31595563440899
C            3.14748624401812       -0.56647975952259        1.44907243468269
N            4.14955380292190       -0.75728779230348        2.25238815284686
N            4.77853512332957        0.44686973064246        2.39158775198532
C            4.12148628051964        1.29602907846495        1.66588133654924
C            4.40811261452385        2.73614883417310        1.48307465346549
O            3.07752768593140        0.72173612196848        1.04389034329504
N           -2.05777063067642       -0.64400105386697       -0.86710595972686
C           -3.02854542910392       -0.71108064547470       -1.97843745518639
H           -3.31706063550723        1.50333705111205        3.54059981493785
H           -4.04416526314050        3.01992653044909        2.93869813591564
H           -4.81993446816510        1.45099156145689        2.58455387411774
H           -2.10104277427591        3.07712469530584        0.36275389434273
H            0.81998153101523       -1.00140101763644       -3.46821975482541
H            1.94281811015803       -0.34892170878715       -2.25023905248203
H            1.22863402682837        0.72960488169407       -3.46801801707415
H            1.14072907102472       -3.75923265760397       -0.60300291422583
H            1.56947856619880       -2.59232228638214       -1.85710287254125
H           -0.00479071272705       -3.39746327198576       -1.90517090118448
H           -0.20763675868568       -3.17872140274563        1.25803282137578
H           -1.19463724021114       -1.70586914909277        1.31533706597108
H           -1.60860352606234       -3.00116655908664        0.18546007860338
H            1.19897451018994       -0.06517023376744        0.05572005348701
H            4.56387967554282        2.95582891738218        0.42737766164776
H            3.56645487146952        3.33344757118633        1.83298813129161
H            5.29933035017206        3.00246337493935        2.04531213050642
H           -2.83662529599508        0.05594439407259       -2.73961853947237
H           -4.03410321815703       -0.57358385313119       -1.57903995430217
H           -2.94957617542529       -1.69765021759639       -2.43567085424697

          :  Hamiltonian                  GFN1-xTB          :
         :: total energy             -87.009706396029 Eh    ::
         :: gradient norm              0.000724144602 Eh/a0 ::
         :: HOMO-LUMO gap              0.306402526729 eV    ::
         :: SCC energy               -87.791367584426 Eh    ::
         :: -> Gsolv                  -0.107171309435 Eh    ::
         :: repulsion energy           0.812876169362 Eh    ::

    * Orbital Energies and Occupations

         #    Occupation            Energy/Eh            Energy/eV
      -------------------------------------------------------------
         1        2.0000           -0.8553612             -23.2756
       ...           ...                  ...                  ...
        59        2.0000           -0.4679060             -12.7324
        60        2.0000           -0.4644467             -12.6382
        61        2.0000           -0.4622319             -12.5780
        62        2.0000           -0.4495406             -12.2326
        63        2.0000           -0.4480944             -12.1933
        64        2.0000           -0.4378834             -11.9154
        65        2.0000           -0.4340915             -11.8122
        66        2.0000           -0.4263506             -11.6016
        67        2.0000           -0.4116234             -11.2008
        68        2.0000           -0.3974353             -10.8148
        69        2.0000           -0.3852367             -10.4828
        70        2.0000           -0.3663075              -9.9677
        71        1.9947           -0.3068451              -8.3497 (HOMO)
        72        0.0053           -0.2955850              -8.0433 (LUMO)
        73                         -0.2702481              -7.3538
        74                         -0.2486880              -6.7671
        75                         -0.1900355              -5.1711
        76                         -0.1840711              -5.0088
        77                         -0.1389054              -3.7798
        78                         -0.1334757              -3.6321
        79                         -0.1200580              -3.2669
        80                         -0.1179623              -3.2099
        81                         -0.1010996              -2.7511
        82                         -0.0991449              -2.6979
       ...                                ...                  ...
       144                          0.7334921              19.9593
      -------------------------------------------------------------
                  HL-Gap            0.0112601 Eh            0.3064 eV

Wiberg/Mayer (AO) data.
largest (>0.10) Wiberg bond orders for each atom

     #   Z sym  total        # sym  WBO       # sym  WBO       # sym  WBO
 ---------------------------------------------------------------------------
     1   6 C    3.893 --    28 H    0.987    27 H    0.981    29 H    0.981
                             2 O    0.917
     2   8 O    2.140 --     3 C    0.994     1 C    0.917
     3   6 C    3.854 --     4 O    1.547     5 C    1.166     2 O    0.994
     4   8 O    1.861 --     3 C    1.547
     5   6 C    3.925 --     6 C    1.425     3 C    1.166    25 N    0.970
     6   6 C    3.899 --     5 C    1.425     8 C    1.133     7 O    1.039
                            12 C    0.129
     7   8 O    2.026 --     6 C    1.039    30 H    0.827
     8   6 C    3.926 --     9 O    1.408    10 N    1.154     6 C    1.133
                            12 C    0.119
     9   8 O    1.747 --     8 C    1.408    10 N    0.142
    10   7 N    3.470 --     8 C    1.154    12 C    1.090    11 C    0.949
                             9 O    0.142
    11   6 C    3.956 --    31 H    0.985    32 H    0.981    33 H    0.975
                            10 N    0.949
    12   6 C    3.690 --    10 N    1.090    13 C    0.980    25 N    0.975
                             6 C    0.129     8 C    0.119
    13   6 C    3.916 --    15 C    0.993    14 C    0.984    12 C    0.980
                            16 N    0.886
    14   6 C    3.990 --    36 H    0.986    13 C    0.984    35 H    0.983
                            34 H    0.982
    15   6 C    3.993 --    13 C    0.993    39 H    0.985    37 H    0.984
                            38 H    0.981
    16   7 N    3.382 --    17 C    1.303    40 H    0.901    13 C    0.886
                            18 O    0.185
    17   6 C    3.922 --    18 O    1.552    16 N    1.303    19 C    0.984
    18   8 O    1.872 --    17 C    1.552    16 N    0.185
    19   6 C    3.861 --    20 N    1.622    24 O    1.046    17 C    0.984
    20   7 N    2.986 --    19 C    1.622    21 N    1.190
    21   7 N    2.980 --    22 C    1.619    20 N    1.190
    22   6 C    3.870 --    21 N    1.619    24 O    1.071    23 C    1.030
    23   6 C    3.988 --    22 C    1.030    43 H    0.983    41 H    0.965
                            42 H    0.964
    24   8 O    2.312 --    22 C    1.071    19 C    1.046
    25   7 N    3.053 --    12 C    0.975     5 C    0.970    26 C    0.961
    26   6 C    3.983 --    46 H    0.989    45 H    0.988    44 H    0.983
                            25 N    0.961
    27   1 H    1.013 --     1 C    0.981
    28   1 H    1.014 --     1 C    0.987
    29   1 H    1.014 --     1 C    0.981
    30   1 H    0.881 --     7 O    0.827
    31   1 H    1.014 --    11 C    0.985
    32   1 H    1.011 --    11 C    0.981
    33   1 H    1.020 --    11 C    0.975
    34   1 H    1.014 --    14 C    0.982
    35   1 H    1.010 --    14 C    0.983
    36   1 H    1.016 --    14 C    0.986
    37   1 H    1.013 --    15 C    0.984
    38   1 H    1.025 --    15 C    0.981
    39   1 H    1.016 --    15 C    0.985
    40   1 H    0.955 --    16 N    0.901
    41   1 H    0.998 --    23 C    0.965
    42   1 H    0.998 --    23 C    0.964
    43   1 H    1.000 --    23 C    0.983
    44   1 H    1.008 --    26 C    0.983
    45   1 H    1.017 --    26 C    0.988
    46   1 H    1.027 --    26 C    0.989
 ---------------------------------------------------------------------------

           -------------------------------------------------
          | TOTAL ENERGY              -87.009706396029 Eh   |
          | GRADIENT NORM               0.000724144602 Eh/α |
          | HOMO-LUMO GAP               0.306402526729 eV   |
           -------------------------------------------------

 * finished run on 2023/06/20 at 15:20:17.801
