   * xtb version 6.5.1 (579679a) compiled by 'ehlert@majestix' on 2022-07-11
          program call               : /lustre/hpc/kemi/ree/PhD/git/ReactivityQM/dep/xtb-6.5.1/bin/xtb --gfn 1 /lustre/hpc/kemi/ree/PhD/git/ReactivityQM/calculations/R02methylcation/reac01prodN11/conf16/R02methylcation_reac01prodN11_conf16_gfn1.xyz --opt --vfukui --chrg 0 --uhf 0 --alpb DMSO

   ID    Z sym.   atoms
    1    6 C      1, 3, 5, 7-10, 12, 13, 15, 18, 19, 22, 24
    2    8 O      2, 4, 14, 20, 23, 25
    3    7 N      6, 11, 16, 17, 21
    4    1 H      26-42

      * Solvation model:               ALPB
        Solvent                        DMSO
        Solvent mass                       7.8130E+01 g/mol
          :  Hamiltonian                  GFN1-xTB          :
 * total energy  :   -82.8630297 Eh     change       -0.1254961E-09 Eh
 * total energy  :   -82.8768021 Eh     change       -0.1377240E-01 Eh
 * total energy  :   -82.8835542 Eh     change       -0.6752133E-02 Eh
 * total energy  :   -82.8847404 Eh     change       -0.1186247E-02 Eh
 * total energy  :   -82.8853752 Eh     change       -0.6347399E-03 Eh
 * total energy  :   -82.8857358 Eh     change       -0.3606182E-03 Eh
 * total energy  :   -82.8859764 Eh     change       -0.2405660E-03 Eh
 * total energy  :   -82.8861494 Eh     change       -0.1730258E-03 Eh
 * total energy  :   -82.8862791 Eh     change       -0.1296742E-03 Eh
 * total energy  :   -82.8863764 Eh     change       -0.9737620E-04 Eh
 * total energy  :   -82.8877801 Eh     change       -0.1472664E-04 Eh
 * total energy  :   -82.8877933 Eh     change       -0.1327036E-04 Eh
 * total energy  :   -82.8878077 Eh     change       -0.1438539E-04 Eh
 * total energy  :   -82.8878220 Eh     change       -0.1425946E-04 Eh
 * total energy  :   -82.8878310 Eh     change       -0.9010868E-05 Eh
 * total energy  :   -82.8878528 Eh     change       -0.2182958E-04 Eh
 * total energy  :   -82.8878620 Eh     change       -0.9221103E-05 Eh
 * total energy  :   -82.8878703 Eh     change       -0.8256903E-05 Eh
 * total energy  :   -82.8878743 Eh     change       -0.4027292E-05 Eh
   *** GEOMETRY OPTIMIZATION CONVERGED AFTER 68 ITERATIONS ***

 final structure:
================
42
 xtb: 6.5.1 (579679a)
C            6.67453874821881        0.28399336017980       -1.66928587650981
O            5.32828717532717        0.72381733726740       -1.46613480039552
C            4.55022624079445       -0.06596021000087       -0.73849019464619
O            4.91954645350862       -1.11205108371719       -0.25438137630563
C            3.15692850784571        0.45584871752108       -0.56765108407764
N            2.32125281771643       -0.41360251440997       -0.00687509687040
C            1.06242963543245       -0.10643815772748        0.22635057646851
C            0.20439320455934       -1.06260300934486        1.02319924342908
C            0.81567128522175       -2.47309798301038        0.96043868523284
C            0.15588659933401       -0.56589988324464        2.47466089910294
N           -1.07771575741016       -1.07997553723557        0.36540538804105
C           -2.41653770889041       -0.98170890428949        0.95872845102249
C           -3.22088645149428       -2.16760869011285        0.27667807658152
O           -2.52118355706070       -0.98825640316036        2.23139608458400
C           -2.99941086086891        0.29418868219355        0.29675771283626
N           -2.32395720179897        1.33420698378384       -0.06823470240908
N           -3.23833425895667        2.25072866008392       -0.51657633112111
C           -4.40338618186745        1.70202479145527       -0.39406082377897
C           -5.72157230984710        2.27626780439044       -0.74085017501418
O           -4.31498737587471        0.45634978688641        0.11746137953667
N            0.51254433943061        1.02665733524390       -0.24635212423879
C            1.22940217432517        2.03224093866627       -0.87483015430796
O            0.67794909636034        3.04242594025231       -1.25145095106245
C            2.72366974455465        1.77498651711969       -1.00093357502332
O            3.44987840224398        2.63955377939670       -1.46484487255537
H            7.14073693853043        1.00602165763792       -2.33634094512668
H            7.20402673789285        0.24968868927228       -0.71449884365139
H            6.67904528703487       -0.71082132262081       -2.12015973093493
H            0.19256228692076       -3.15913984663256        1.52922832922708
H            1.81898398878516       -2.44835195882152        1.38239448029702
H            0.87184002406127       -2.81054149599816       -0.07225277736382
H           -0.34289892539446       -1.29606160658257        3.10718010321004
H            1.17803481317794       -0.43148444173542        2.82708773249981
H           -0.37163728863584        0.38397923797394        2.53531496893949
H           -1.05214841525894       -1.21232244295269       -0.63207250819918
H           -4.25005600915042       -2.07924217564110        0.61227468724666
H           -2.78421709584299       -3.09697736744142        0.62835400801973
H           -3.16316806291751       -2.09668370475427       -0.80396155284432
H           -6.19619105095067        1.67383996636547       -1.51521581822683
H           -5.59263350516333        3.29472147541468       -1.09979777876200
H           -6.37188946088531        2.27388302108600        0.13369494166513
H           -0.50502302301105        1.18340205724301       -0.14190365451415

          :  Hamiltonian                  GFN1-xTB          :
         :: total energy             -82.887874315881 Eh    ::
         :: gradient norm              0.000382688512 Eh/a0 ::
         :: HOMO-LUMO gap              0.142315916879 eV    ::
         :: SCC energy               -83.649969854563 Eh    ::
         :: -> Gsolv                  -0.061727980081 Eh    ::
         :: repulsion energy           0.789009178368 Eh    ::

    * Orbital Energies and Occupations

         #    Occupation            Energy/Eh            Energy/eV
      -------------------------------------------------------------
         1        2.0000           -0.8708064             -23.6958
       ...           ...                  ...                  ...
        55        2.0000           -0.5126591             -13.9502
        56        2.0000           -0.5091479             -13.8546
        57        2.0000           -0.5048208             -13.7369
        58        2.0000           -0.5000966             -13.6083
        59        2.0000           -0.4904296             -13.3453
        60        2.0000           -0.4881221             -13.2825
        61        2.0000           -0.4807384             -13.0816
        62        2.0000           -0.4678068             -12.7297
        63        2.0000           -0.4617899             -12.5659
        64        2.0000           -0.4504690             -12.2579
        65        2.0000           -0.4467266             -12.1560
        66        2.0000           -0.4393586             -11.9556
        67        1.8801           -0.4232592             -11.5175 (HOMO)
        68        0.1199           -0.4180292             -11.3752 (LUMO)
        69                         -0.3245265              -8.8308
        70                         -0.3025819              -8.2337
        71                         -0.2768148              -7.5325
        72                         -0.2602810              -7.0826
        73                         -0.2494597              -6.7881
        74                         -0.1768960              -4.8136
        75                         -0.1440962              -3.9211
        76                         -0.1394515              -3.7947
        77                         -0.1362304              -3.7070
        78                         -0.1309562              -3.5635
       ...                                ...                  ...
       134                          0.7473671              20.3369
      -------------------------------------------------------------
                  HL-Gap            0.0052300 Eh            0.1423 eV

Wiberg/Mayer (AO) data.
largest (>0.10) Wiberg bond orders for each atom

     #   Z sym  total        # sym  WBO       # sym  WBO       # sym  WBO
 ---------------------------------------------------------------------------
     1   6 C    3.866 --    26 H    0.986    28 H    0.978    27 H    0.978
                             2 O    0.893
     2   8 O    2.208 --     3 C    1.129     1 C    0.893     4 O    0.140
     3   6 C    3.847 --     4 O    1.653     2 O    1.129     5 C    0.993
     4   8 O    1.902 --     3 C    1.653     2 O    0.140
     5   6 C    3.786 --     6 N    1.399    24 C    1.107     3 C    0.993
     6   7 N    3.006 --     5 C    1.399     7 C    1.380
     7   6 C    3.883 --     6 N    1.380    21 N    1.253     8 C    0.974
     8   6 C    3.931 --     7 C    0.974    10 C    0.964    11 N    0.963
                             9 C    0.952
     9   6 C    3.974 --    31 H    0.984    29 H    0.983    30 H    0.979
                             8 C    0.952
    10   6 C    3.980 --    33 H    0.985    34 H    0.983    32 H    0.976
                             8 C    0.964
    11   7 N    3.273 --     8 C    0.963    12 C    0.912    35 H    0.904
                            14 O    0.164
    12   6 C    3.889 --    14 O    1.268    11 N    0.912    15 C    0.841
                            13 C    0.793
    13   6 C    3.843 --    38 H    0.987    37 H    0.982    36 H    0.978
                            12 C    0.793
    14   8 O    1.628 --    12 C    1.268    11 N    0.164
    15   6 C    3.800 --    16 N    1.635    20 O    1.086    12 C    0.841
    16   7 N    3.086 --    15 C    1.635    17 N    1.157
    17   7 N    2.982 --    18 C    1.637    16 N    1.157
    18   6 C    3.859 --    17 N    1.637    20 O    1.052    19 C    1.031
    19   6 C    3.984 --    18 C    1.031    40 H    0.982    41 H    0.964
                            39 H    0.962
    20   8 O    2.325 --    15 C    1.086    18 C    1.052
    21   7 N    3.475 --     7 C    1.253    22 C    1.102    42 H    0.811
                            23 O    0.105
    22   6 C    3.854 --    23 O    1.677    21 N    1.102    24 C    0.935
    23   8 O    1.918 --    22 C    1.677    21 N    0.105
    24   6 C    3.860 --    25 O    1.670     5 C    1.107    22 C    0.935
    25   8 O    1.833 --    24 C    1.670
    26   1 H    1.010 --     1 C    0.986
    27   1 H    1.005 --     1 C    0.978
    28   1 H    1.005 --     1 C    0.978
    29   1 H    0.999 --     9 C    0.983
    30   1 H    1.007 --     9 C    0.979
    31   1 H    1.000 --     9 C    0.984
    32   1 H    1.013 --    10 C    0.976
    33   1 H    1.001 --    10 C    0.985
    34   1 H    1.007 --    10 C    0.983
    35   1 H    0.937 --    11 N    0.904
    36   1 H    1.001 --    13 C    0.978
    37   1 H    0.996 --    13 C    0.982
    38   1 H    0.996 --    13 C    0.987
    39   1 H    0.997 --    19 C    0.962
    40   1 H    0.997 --    19 C    0.982
    41   1 H    0.996 --    19 C    0.964
    42   1 H    0.957 --    21 N    0.811
 ---------------------------------------------------------------------------

           -------------------------------------------------
          | TOTAL ENERGY              -82.887874315881 Eh   |
          | GRADIENT NORM               0.000382688512 Eh/α |
          | HOMO-LUMO GAP               0.142315916879 eV   |
           -------------------------------------------------

 * finished run on 2023/06/21 at 17:44:03.369
