   * xtb version 6.5.1 (579679a) compiled by 'ehlert@majestix' on 2022-07-11
          program call               : /lustre/hpc/kemi/ree/PhD/git/ReactivityQM/dep/xtb-6.5.1/bin/xtb --gfn 1 /lustre/hpc/kemi/ree/PhD/git/ReactivityQM/calculations/RaltegravirCLI/reac02prodE01/conf18/RaltegravirCLI_reac02prodE01_conf18_gfn1.xyz --opt --vfukui --chrg -1 --uhf 0 --alpb DMSO

   ID    Z sym.   atoms
    1    6 C      1, 3-6, 9-11, 14-18, 20-22, 24
    2    7 N      2, 7, 8, 13
    3    8 O      12, 23, 25
    4    9 F      19
    5    1 H      26-47

      * Solvation model:               ALPB
        Solvent                        DMSO
        Solvent mass                       7.8130E+01 g/mol
          :  Hamiltonian                  GFN1-xTB          :
 * total energy  :   -80.1844328 Eh     change       -0.1445244E-10 Eh
 * total energy  :   -80.1958024 Eh     change       -0.1136963E-01 Eh
 * total energy  :   -80.1984610 Eh     change       -0.2658579E-02 Eh
 * total energy  :   -80.1990313 Eh     change       -0.5702871E-03 Eh
 * total energy  :   -80.1992949 Eh     change       -0.2636201E-03 Eh
 * total energy  :   -80.1994392 Eh     change       -0.1443274E-03 Eh
 * total energy  :   -80.1995457 Eh     change       -0.1065406E-03 Eh
 * total energy  :   -80.1996193 Eh     change       -0.7357601E-04 Eh
 * total energy  :   -80.1996711 Eh     change       -0.5182334E-04 Eh
 * total energy  :   -80.1996960 Eh     change       -0.2481906E-04 Eh
 * total energy  :   -80.1999122 Eh     change       -0.1302989E-04 Eh
 * total energy  :   -80.1999442 Eh     change       -0.3203008E-04 Eh
 * total energy  :   -80.1999424 Eh     change        0.1761819E-05 Eh
 * total energy  :   -80.1999789 Eh     change       -0.3647636E-04 Eh
 * total energy  :   -80.1999723 Eh     change        0.6550963E-05 Eh
 * total energy  :   -80.1999842 Eh     change       -0.1184632E-04 Eh
 * total energy  :   -80.1999881 Eh     change       -0.3937276E-05 Eh
 * total energy  :   -80.1999935 Eh     change       -0.5320302E-05 Eh
 * total energy  :   -80.1999952 Eh     change       -0.1706498E-05 Eh
   *** GEOMETRY OPTIMIZATION CONVERGED AFTER 44 ITERATIONS ***

 final structure:
================
47
 xtb: 6.5.1 (579679a)
C           -3.91787843418740        0.39870060656783        2.36024959213442
N           -2.76924779284728       -0.08159830516392        1.59489024154531
C           -2.63465954493916        0.01831648267987        0.23176411688832
C           -3.69845011482157        0.67547241906973       -0.64521484670064
C           -3.35248925566552        0.43381153773745       -2.12384868610469
C           -3.72663326510562        2.18666376527038       -0.37706030389677
N           -5.02073093987814        0.11513206132500       -0.35651212209276
N           -1.57060837047422       -0.39923457702791       -0.37517809930331
C           -0.51881703064433       -0.96629141527263        0.28401627418466
C            0.68948269002209       -1.42527589443145       -0.62889378445215
C            0.80300104453909       -2.98094224481175       -0.41257906795463
O            0.59468084096754       -1.06452645900683       -1.87143907613523
N            1.90943322043759       -0.80039510203696        0.10137286021126
C            3.13190848002400       -1.02819395820936       -0.68690932593664
C            4.14858394403766        0.03609276971526       -0.37210139203988
C            3.95134965598272        1.34317338441572       -0.82085965130221
C            4.86366387717457        2.34530872840563       -0.52436663754167
C            5.97643610799150        2.01582630267641        0.22857390031830
F            6.87005944001581        2.98335199428815        0.52184774225006
C            6.21074050138718        0.73406320955897        0.68926651469790
C            5.28390209087212       -0.25444175593307        0.38300479913794
C           -0.60755696981733       -1.10470703424477        1.64072721947604
O            0.36764570398429       -1.66774458192026        2.41803634124289
C           -1.76127252325363       -0.64346427121658        2.36442633518800
O           -1.86401990071823       -0.73299365220901        3.59783197364439
H           -3.70027330728717        1.38735845279506        2.76748306219621
H           -4.09084346778981       -0.29118841468205        3.18750397775406
H           -4.80252101700640        0.43941318691345        1.73163946874382
H           -2.38692438731086        0.87737655616819       -2.36697768339877
H           -4.12039977418395        0.88173250142249       -2.75193189748820
H           -3.30746672220248       -0.63524497571075       -2.32896188200320
H           -2.73551246540776        2.61246616033082       -0.53244304519919
H           -4.42399363772742        2.66708473779424       -1.06185712828179
H           -4.04474255725989        2.40043965631690        0.64120762354438
H           -5.07911144870324       -0.83232153397871       -0.70634270754925
H           -5.72153261811454        0.65976415521471       -0.83699039595846
H           -0.14593091226299       -3.44128847015491       -0.68647407195945
H            1.57820758244536       -3.37026326147565       -1.07141078399425
H            1.04458901962682       -3.22959545997810        0.61926728249971
H            1.73033788154612        0.20579730766909        0.06189058672272
H            2.90093386472243       -1.00144937535124       -1.76675853877441
H            3.54210697700914       -2.01594695411380       -0.44431296493289
H            3.07531145081433        1.58203747866019       -1.41498491281026
H            4.72125543338343        3.36086823611607       -0.87033140895069
H            7.09605042855365        0.51690541298667        1.27245742782598
H            5.45615562443877       -1.26603950230572        0.73509949373067
H            0.05577859763160       -1.64401290486316        3.33872558082465

          :  Hamiltonian                  GFN1-xTB          :
         :: total energy             -80.199995157193 Eh    ::
         :: gradient norm              0.000249617171 Eh/a0 ::
         :: HOMO-LUMO gap              1.789695054564 eV    ::
         :: SCC energy               -81.054426429236 Eh    ::
         :: -> Gsolv                  -0.118569278988 Eh    ::
         :: repulsion energy           0.884418415304 Eh    ::

    * Orbital Energies and Occupations

         #    Occupation            Energy/Eh            Energy/eV
      -------------------------------------------------------------
         1        2.0000           -0.8511448             -23.1608
       ...           ...                  ...                  ...
        56        2.0000           -0.4518329             -12.2950
        57        2.0000           -0.4470868             -12.1659
        58        2.0000           -0.4388168             -11.9408
        59        2.0000           -0.4358206             -11.8593
        60        2.0000           -0.4303811             -11.7113
        61        2.0000           -0.4266494             -11.6097
        62        2.0000           -0.4193136             -11.4101
        63        2.0000           -0.4070485             -11.0764
        64        2.0000           -0.3995992             -10.8736
        65        2.0000           -0.3857111             -10.4957
        66        2.0000           -0.3659542              -9.9581
        67        2.0000           -0.3350091              -9.1161
        68        2.0000           -0.3303096              -8.9882 (HOMO)
        69                         -0.2645395              -7.1985 (LUMO)
        70                         -0.2581356              -7.0242
        71                         -0.2479509              -6.7471
        72                         -0.2385076              -6.4901
        73                         -0.1342752              -3.6538
        74                         -0.1288993              -3.5075
        75                         -0.1252947              -3.4094
        76                         -0.1138213              -3.0972
        77                         -0.1061990              -2.8898
        78                         -0.0993814              -2.7043
        79                         -0.0912616              -2.4834
       ...                                ...                  ...
       144                          0.6959473              18.9377
      -------------------------------------------------------------
                  HL-Gap            0.0657701 Eh            1.7897 eV

Wiberg/Mayer (AO) data.
largest (>0.10) Wiberg bond orders for each atom

     #   Z sym  total        # sym  WBO       # sym  WBO       # sym  WBO
 ---------------------------------------------------------------------------
     1   6 C    3.934 --    26 H    0.979    27 H    0.978    28 H    0.971
                             2 N    0.937
     2   7 N    3.499 --     3 C    1.168    24 C    1.120     1 C    0.937
                            25 O    0.122
     3   6 C    3.931 --     8 N    1.567     2 N    1.168     4 C    0.974
     4   6 C    3.965 --     5 C    0.992     6 C    0.987     7 N    0.976
                             3 C    0.974
     5   6 C    3.996 --     4 C    0.992    30 H    0.987    31 H    0.984
                            29 H    0.983
     6   6 C    3.995 --     4 C    0.987    32 H    0.986    33 H    0.984
                            34 H    0.983
     7   7 N    2.992 --     4 C    0.976    36 H    0.943    35 H    0.943
     8   7 N    3.037 --     3 C    1.567     9 C    1.213
     9   6 C    3.918 --    22 C    1.509     8 N    1.213    10 C    0.888
    10   6 C    3.937 --    12 O    1.235    11 C    0.924     9 C    0.888
                            13 N    0.837
    11   6 C    3.987 --    39 H    0.989    37 H    0.988    38 H    0.985
                            10 C    0.924
    12   8 O    1.523 --    10 C    1.235
    13   7 N    2.957 --    14 C    0.980    40 H    0.961    10 C    0.837
    14   6 C    3.983 --    15 C    1.009    13 N    0.980    42 H    0.980
                            41 H    0.956
    15   6 C    3.985 --    21 C    1.414    16 C    1.405    14 C    1.009
    16   6 C    3.994 --    17 C    1.448    15 C    1.405    43 H    0.972
                            20 C    0.110
    17   6 C    3.992 --    16 C    1.448    18 C    1.398    44 H    0.971
                            21 C    0.108
    18   6 C    3.854 --    20 C    1.406    17 C    1.398    19 F    0.911
    19   9 F    1.035 --    18 C    0.911
    20   6 C    3.992 --    21 C    1.439    18 C    1.406    45 H    0.971
                            16 C    0.110
    21   6 C    3.993 --    20 C    1.439    15 C    1.414    46 H    0.972
                            17 C    0.108
    22   6 C    3.909 --     9 C    1.509    24 C    1.141    23 O    1.030
    23   8 O    2.018 --    22 C    1.030    47 H    0.832
    24   6 C    3.914 --    25 O    1.488    22 C    1.141     2 N    1.120
    25   8 O    1.837 --    24 C    1.488     2 N    0.122
    26   1 H    1.007 --     1 C    0.979
    27   1 H    1.014 --     1 C    0.978
    28   1 H    1.032 --     1 C    0.971
    29   1 H    1.017 --     5 C    0.983
    30   1 H    1.005 --     5 C    0.987
    31   1 H    1.012 --     5 C    0.984
    32   1 H    1.004 --     6 C    0.986
    33   1 H    1.001 --     6 C    0.984
    34   1 H    1.005 --     6 C    0.983
    35   1 H    0.959 --     7 N    0.943
    36   1 H    0.958 --     7 N    0.943
    37   1 H    1.017 --    11 C    0.988
    38   1 H    1.017 --    11 C    0.985
    39   1 H    1.019 --    11 C    0.989
    40   1 H    0.998 --    13 N    0.961
    41   1 H    1.030 --    14 C    0.956
    42   1 H    1.023 --    14 C    0.980
    43   1 H    1.003 --    16 C    0.972
    44   1 H    1.000 --    17 C    0.971
    45   1 H    1.000 --    20 C    0.971
    46   1 H    1.003 --    21 C    0.972
    47   1 H    0.876 --    23 O    0.832
 ---------------------------------------------------------------------------

           -------------------------------------------------
          | TOTAL ENERGY              -80.199995157193 Eh   |
          | GRADIENT NORM               0.000249617171 Eh/α |
          | HOMO-LUMO GAP               1.789695054564 eV   |
           -------------------------------------------------

 * finished run on 2023/06/20 at 14:56:17.214
