   * xtb version 6.5.1 (579679a) compiled by 'ehlert@majestix' on 2022-07-11
          program call               : /lustre/hpc/kemi/ree/PhD/git/ReactivityQM/dep/xtb-6.5.1/bin/xtb --gfn 1 /lustre/hpc/kemi/ree/PhD/git/ReactivityQM/calculations/RaltegravirCLI/reac01prodN06/conf09/RaltegravirCLI_reac01prodN06_conf09_gfn1.xyz --opt --vfukui --chrg 1 --uhf 0 --alpb DMSO

   ID    Z sym.   atoms
    1    6 C      1, 2, 5-7
    2    7 N      3, 4
    3    8 O      8, 10
    4   17 Cl     9
    5    1 H      11-16

      * Solvation model:               ALPB
        Solvent                        DMSO
        Solvent mass                       7.8130E+01 g/mol
          :  Hamiltonian                  GFN1-xTB          :
 * total energy  :   -33.2677070 Eh     change       -0.4777334E-09 Eh
 * total energy  :   -33.2767125 Eh     change       -0.9005443E-02 Eh
 * total energy  :   -33.2831439 Eh     change       -0.6431414E-02 Eh
 * total energy  :   -33.2849017 Eh     change       -0.1757855E-02 Eh
 * total energy  :   -33.2876099 Eh     change       -0.2708170E-02 Eh
 * total energy  :   -33.2894218 Eh     change       -0.1811913E-02 Eh
 * total energy  :   -33.2939186 Eh     change       -0.4496726E-02 Eh
 * total energy  :   -33.3017220 Eh     change       -0.7803403E-02 Eh
 * total energy  :   -33.3175743 Eh     change       -0.1585236E-01 Eh
 * total energy  :   -33.3366628 Eh     change       -0.1908843E-01 Eh
 * total energy  :   -33.3942244 Eh     change       -0.1859650E-04 Eh
 * total energy  :   -33.3942376 Eh     change       -0.1318076E-04 Eh
 * total energy  :   -33.3942494 Eh     change       -0.1177948E-04 Eh
 * total energy  :   -33.3942623 Eh     change       -0.1296384E-04 Eh
 * total energy  :   -33.3942743 Eh     change       -0.1196503E-04 Eh
 * total energy  :   -33.3942823 Eh     change       -0.7966368E-05 Eh
 * total energy  :   -33.3942895 Eh     change       -0.7235151E-05 Eh
 * total energy  :   -33.3942932 Eh     change       -0.3657695E-05 Eh
 * total energy  :   -33.3942971 Eh     change       -0.3949868E-05 Eh
   *** GEOMETRY OPTIMIZATION CONVERGED AFTER 56 ITERATIONS ***

 final structure:
================
16
 xtb: 6.5.1 (579679a)
C            2.40010342888282       -1.05043597397619        0.08319795095309
C            1.58395325932455        0.16486275749768       -0.06378094021652
N            1.99878336856597        1.39647385768115       -0.24280606789942
N            0.92122041000286        2.17183558919614       -0.33003972818347
C           -0.12584795745993        1.38994295450052       -0.20225669185734
C           -1.48409897972954        1.83052968598350       -0.23111264445132
C           -2.21984845449174       -1.11050799036203        0.23113939563966
O           -1.91731597755615        2.91987858709846       -0.36754608658413
Cl          -2.80463071665783        0.55819689401174       -0.03734747838692
O            0.25081328317245        0.10497206902023       -0.03078748291951
H            3.44548975955506       -0.78310289424599        0.22265939998765
H            2.29934028822346       -1.66685928541921       -0.81173518392242
H            2.04227013124280       -1.63520324466660        0.92959931394102
H           -3.12378944467583       -1.70244162773646        0.35409510994733
H           -1.65433198684135       -1.44398962047741       -0.63365032243793
H           -1.61211141155747       -1.14415275810560        1.13037045639037

          :  Hamiltonian                  GFN1-xTB          :
         :: total energy             -33.394297109492 Eh    ::
         :: gradient norm              0.000745347872 Eh/a0 ::
         :: HOMO-LUMO gap              2.773903420190 eV    ::
         :: SCC energy               -33.688464976311 Eh    ::
         :: -> Gsolv                  -0.093282555443 Eh    ::
         :: repulsion energy           0.301474804656 Eh    ::

    * Orbital Energies and Occupations

         #    Occupation            Energy/Eh            Energy/eV
      -------------------------------------------------------------
         1        2.0000           -1.0658872             -29.0043
       ...           ...                  ...                  ...
        15        2.0000           -0.6297911             -17.1375
        16        2.0000           -0.6109174             -16.6239
        17        2.0000           -0.6049138             -16.4605
        18        2.0000           -0.5926950             -16.1281
        19        2.0000           -0.5778047             -15.7229
        20        2.0000           -0.5725992             -15.5812
        21        2.0000           -0.5589283             -15.2092
        22        2.0000           -0.5567257             -15.1493
        23        2.0000           -0.5433752             -14.7860
        24        2.0000           -0.5418907             -14.7456
        25        2.0000           -0.5271021             -14.3432
        26        2.0000           -0.5015510             -13.6479
        27        2.0000           -0.4969663             -13.5231 (HOMO)
        28                         -0.3950273             -10.7492 (LUMO)
        29                         -0.3161537              -8.6030
        30                         -0.3041495              -8.2763
        31                         -0.3007882              -8.1849
        32                         -0.2723979              -7.4123
        33                         -0.1839577              -5.0057
        34                         -0.1835094              -4.9935
        35                         -0.1621035              -4.4111
        36                         -0.1619308              -4.4064
        37                         -0.1565596              -4.2602
        38                         -0.1117015              -3.0396
       ...                                ...                  ...
        57                          0.7534168              20.5015
      -------------------------------------------------------------
                  HL-Gap            0.1019391 Eh            2.7739 eV

Wiberg/Mayer (AO) data.
largest (>0.10) Wiberg bond orders for each atom

     #   Z sym  total        # sym  WBO       # sym  WBO       # sym  WBO
 ---------------------------------------------------------------------------
     1   6 C    3.974 --     2 C    1.046    11 H    0.977    13 H    0.957
                            12 H    0.943
     2   6 C    3.845 --     3 N    1.503    10 O    1.099     1 C    1.046
     3   7 N    3.001 --     2 C    1.503     4 N    1.304
     4   7 N    3.022 --     5 C    1.500     3 N    1.304
     5   6 C    3.884 --     4 N    1.500     6 C    1.113    10 O    1.038
     6   6 C    3.869 --     8 O    1.841     5 C    1.113     9 Cl   0.776
     7   6 C    3.864 --    15 H    0.980    16 H    0.980    14 H    0.969
                             9 Cl   0.898
     8   8 O    2.156 --     6 C    1.841     9 Cl   0.138
     9  17 Cl   1.892 --     7 C    0.898     6 C    0.776     8 O    0.138
    10   8 O    2.337 --     2 C    1.099     5 C    1.038
    11   1 H    0.992 --     1 C    0.977
    12   1 H    0.988 --     1 C    0.943
    13   1 H    0.990 --     1 C    0.957
    14   1 H    0.992 --     7 C    0.969
    15   1 H    1.000 --     7 C    0.980
    16   1 H    1.000 --     7 C    0.980
 ---------------------------------------------------------------------------

           -------------------------------------------------
          | TOTAL ENERGY              -33.394297109492 Eh   |
          | GRADIENT NORM               0.000745347872 Eh/α |
          | HOMO-LUMO GAP               2.773903420190 eV   |
           -------------------------------------------------

 * finished run on 2023/06/20 at 14:55:31.635
