   * xtb version 6.5.1 (579679a) compiled by 'ehlert@majestix' on 2022-07-11
          program call               : /lustre/hpc/kemi/ree/PhD/git/ReactivityQM/dep/xtb-6.5.1/bin/xtb --gfn 1 /lustre/hpc/kemi/ree/PhD/git/ReactivityQM/calculations/R02/reac01prodN03/conf10/R02_reac01prodN03_conf10_gfn1.xyz --opt --vfukui --chrg 1 --uhf 0 --alpb DMSO

   ID    Z sym.   atoms
    1    6 C      1, 3, 5, 6, 8-11, 13, 15, 18, 19, 22, 24
    2    8 O      2, 4, 14, 20, 23, 25
    3    7 N      7, 12, 16, 17, 21
    4    1 H      26-43

      * Solvation model:               ALPB
        Solvent                        DMSO
        Solvent mass                       7.8130E+01 g/mol
          :  Hamiltonian                  GFN1-xTB          :
 * total energy  :   -83.1227780 Eh     change       -0.7830181E-11 Eh
 * total energy  :   -83.1490421 Eh     change       -0.2626403E-01 Eh
 * total energy  :   -83.1575128 Eh     change       -0.8470780E-02 Eh
 * total energy  :   -83.1601778 Eh     change       -0.2664983E-02 Eh
 * total energy  :   -83.1620097 Eh     change       -0.1831911E-02 Eh
 * total energy  :   -83.1629948 Eh     change       -0.9851210E-03 Eh
 * total energy  :   -83.1637889 Eh     change       -0.7940138E-03 Eh
 * total energy  :   -83.1644299 Eh     change       -0.6410155E-03 Eh
 * total energy  :   -83.1647724 Eh     change       -0.3425398E-03 Eh
 * total energy  :   -83.1649460 Eh     change       -0.1735917E-03 Eh
 * total energy  :   -83.1664078 Eh     change       -0.2135431E-04 Eh
 * total energy  :   -83.1664353 Eh     change       -0.2752821E-04 Eh
 * total energy  :   -83.1664538 Eh     change       -0.1853195E-04 Eh
 * total energy  :   -83.1664620 Eh     change       -0.8126239E-05 Eh
 * total energy  :   -83.1664749 Eh     change       -0.1290896E-04 Eh
 * total energy  :   -83.1664866 Eh     change       -0.1178955E-04 Eh
 * total energy  :   -83.1664958 Eh     change       -0.9106135E-05 Eh
 * total energy  :   -83.1665041 Eh     change       -0.8347156E-05 Eh
 * total energy  :   -83.1665077 Eh     change       -0.3592415E-05 Eh
   *** GEOMETRY OPTIMIZATION CONVERGED AFTER 44 ITERATIONS ***

 final structure:
================
43
 xtb: 6.5.1 (579679a)
C           -5.05688078238393        1.66699712756200       -0.54786116482327
O           -4.29111674760627        0.45557840813726       -0.41487431458089
C           -3.00504036889454        0.49526066509451       -0.43907775585892
O           -2.47427805633636        1.66024426553095       -0.57854160909203
C           -1.07586415848508        1.95522110893803       -0.72432592528872
C           -2.29710118563250       -0.76257421555192       -0.31268372473011
N           -0.93109416566521       -0.70294971740427       -0.14287159575196
C           -0.24245124069162       -1.78850510340854       -0.03804306895322
C            1.25100277475570       -1.76685523225734        0.22042627199191
C            1.99878139810816       -2.67489864611131       -0.76795383112510
C            1.49475331065952       -2.21608790671244        1.66696882070179
N            1.75592258415996       -0.40435629721707        0.10182504203263
C            1.73973177784151        0.29051759216325       -1.05508847507159
O            1.19666052930363       -0.07461063769412       -2.08583838813904
C            2.43218114939169        1.59577974938818       -0.94004029338607
N            2.61264081811654        2.48897893721171       -1.86206932031959
N            3.29742254446527        3.51584069218246       -1.28626347934526
C            3.49178905537603        3.18850046133525       -0.04634607651143
C            4.18259641089007        3.96638676616538        1.00433235434910
O            2.96713347283889        1.98431971606913        0.23781711414185
N           -0.82339805136602       -3.02665931668145       -0.09147898244679
C           -2.16915086266405       -3.22467846402207       -0.23941858766010
O           -2.69413670650613       -4.31988886575438       -0.27548722522953
C           -2.94612279282488       -1.98047346913663       -0.35145722200183
O           -4.24657623099481       -2.12863266514849       -0.49948182174237
H           -4.79532478911265        2.35228733795326        0.25871194904869
H           -6.10008627551895        1.36683591398084       -0.48289692468321
H           -4.84053708356244        2.12905301638761       -1.51167987449103
H           -1.02460013550097        3.02926483550352       -0.89884634400402
H           -0.66813231212202        1.40227110543276       -1.57157770398447
H           -0.54180440677812        1.68694478041920        0.18643170157137
H            1.71590551916258       -2.43598795631611       -1.79209444320070
H            1.77097013933912       -3.71951427937715       -0.56764644337659
H            3.06961177321898       -2.52293550071070       -0.64631893417047
H            0.98861175507140       -1.54338974253623        2.35711485451766
H            1.11511352044451       -3.22490229875741        1.81434929363291
H            2.56267148475744       -2.20838405617023        1.87666623504115
H            2.25677521850172       -0.02594155892988        0.88901843797763
H            5.04004052158834        3.40589286037996        1.37686284529899
H            3.50595029811377        4.13776318820808        1.84104498115494
H            4.51497173245467        4.91938592674164        0.59919023307629
H           -0.26129680606059       -3.86053839272359        0.00553708397943
H           -4.47624362984067       -3.08056013215961       -0.50543368855224

          :  Hamiltonian                  GFN1-xTB          :
         :: total energy             -83.166507694845 Eh    ::
         :: gradient norm              0.000403891743 Eh/a0 ::
         :: HOMO-LUMO gap              2.044702718266 eV    ::
         :: SCC energy               -83.961457145106 Eh    ::
         :: -> Gsolv                  -0.108372103418 Eh    ::
         :: repulsion energy           0.822752227352 Eh    ::

    * Orbital Energies and Occupations

         #    Occupation            Energy/Eh            Energy/eV
      -------------------------------------------------------------
         1        2.0000           -0.9136259             -24.8610
       ...           ...                  ...                  ...
        55        2.0000           -0.5319483             -14.4750
        56        2.0000           -0.5229220             -14.2294
        57        2.0000           -0.5216158             -14.1939
        58        2.0000           -0.5141133             -13.9897
        59        2.0000           -0.5118955             -13.9294
        60        2.0000           -0.4957392             -13.4897
        61        2.0000           -0.4872519             -13.2588
        62        2.0000           -0.4817280             -13.1085
        63        2.0000           -0.4765923             -12.9687
        64        2.0000           -0.4704939             -12.8028
        65        2.0000           -0.4649519             -12.6520
        66        2.0000           -0.4592184             -12.4960
        67        2.0000           -0.4574938             -12.4490 (HOMO)
        68                         -0.3823524             -10.4043 (LUMO)
        69                         -0.3201043              -8.7105
        70                         -0.3163582              -8.6085
        71                         -0.2924871              -7.9590
        72                         -0.2626413              -7.1468
        73                         -0.2080229              -5.6606
        74                         -0.1996959              -5.4340
        75                         -0.1680939              -4.5741
        76                         -0.1557246              -4.2375
        77                         -0.1519967              -4.1360
        78                         -0.1445287              -3.9328
       ...                                ...                  ...
       136                          0.7156045              19.4726
      -------------------------------------------------------------
                  HL-Gap            0.0751414 Eh            2.0447 eV

Wiberg/Mayer (AO) data.
largest (>0.10) Wiberg bond orders for each atom

     #   Z sym  total        # sym  WBO       # sym  WBO       # sym  WBO
 ---------------------------------------------------------------------------
     1   6 C    3.824 --    27 H    0.981    26 H    0.973    28 H    0.972
                             2 O    0.854
     2   8 O    2.311 --     3 C    1.263     1 C    0.854
     3   6 C    3.815 --     2 O    1.263     4 O    1.254     6 C    1.113
     4   8 O    2.308 --     3 C    1.254     5 C    0.848
     5   6 C    3.813 --    29 H    0.980    31 H    0.971    30 H    0.968
                             4 O    0.848
     6   6 C    3.957 --    24 C    1.429     7 N    1.155     3 C    1.113
     7   7 N    3.035 --     8 C    1.591     6 C    1.155
     8   6 C    3.918 --     7 N    1.591    21 N    1.159     9 C    0.980
     9   6 C    3.938 --     8 C    0.980    11 C    0.979    10 C    0.978
                            12 N    0.939
    10   6 C    3.984 --    34 H    0.982    33 H    0.981    32 H    0.980
                             9 C    0.978
    11   6 C    3.985 --    35 H    0.983    36 H    0.982    37 H    0.980
                             9 C    0.979
    12   7 N    3.346 --    13 C    1.253     9 C    0.939    38 H    0.888
                            14 O    0.173
    13   6 C    3.916 --    14 O    1.579    12 N    1.253    15 C    0.996
    14   8 O    1.895 --    13 C    1.579    12 N    0.173
    15   6 C    3.875 --    16 N    1.620    20 O    1.047    13 C    0.996
    16   7 N    3.002 --    15 C    1.620    17 N    1.201
    17   7 N    2.982 --    18 C    1.608    16 N    1.201
    18   6 C    3.866 --    17 N    1.608    20 O    1.071    19 C    1.033
    19   6 C    3.985 --    18 C    1.033    41 H    0.982    40 H    0.962
                            39 H    0.961
    20   8 O    2.316 --    18 C    1.071    15 C    1.047
    21   7 N    3.475 --     8 C    1.159    22 C    1.153    42 H    0.873
                            23 O    0.143
    22   6 C    3.914 --    23 O    1.611    21 N    1.153    24 C    1.029
    23   8 O    1.937 --    22 C    1.611    21 N    0.143
    24   6 C    3.911 --     6 C    1.429    25 O    1.174    22 C    1.029
    25   8 O    2.146 --    24 C    1.174    43 H    0.782
    26   1 H    0.998 --     1 C    0.973
    27   1 H    1.002 --     1 C    0.981
    28   1 H    0.998 --     1 C    0.972
    29   1 H    1.003 --     5 C    0.980
    30   1 H    1.017 --     5 C    0.968
    31   1 H    1.018 --     5 C    0.971
    32   1 H    1.007 --    10 C    0.980
    33   1 H    0.997 --    10 C    0.981
    34   1 H    0.997 --    10 C    0.982
    35   1 H    0.996 --    11 C    0.983
    36   1 H    0.997 --    11 C    0.982
    37   1 H    0.994 --    11 C    0.980
    38   1 H    0.931 --    12 N    0.888
    39   1 H    0.996 --    19 C    0.961
    40   1 H    0.996 --    19 C    0.962
    41   1 H    0.997 --    19 C    0.982
    42   1 H    0.919 --    21 N    0.873
    43   1 H    0.822 --    25 O    0.782
 ---------------------------------------------------------------------------

           -------------------------------------------------
          | TOTAL ENERGY              -83.166507694845 Eh   |
          | GRADIENT NORM               0.000403891743 Eh/α |
          | HOMO-LUMO GAP               2.044702718266 eV   |
           -------------------------------------------------

 * finished run on 2023/06/20 at 15:21:13.898
