                         Program Version 5.0.1 -  RELEASE  -
|  1> # ORCA input file
|  2> ! SP r2SCAN-3c CPCM
|  3>
|  4> %maxcore 1875.0
|  5> %pal nprocs 4 end
|  6> %cpcm smd true SMDsolvent "DMSO" end
|  7>
|  8> *xyz 1 1
|  9> C      -2.410137    2.503615    1.569645
| 10> O      -2.573522    1.215173    0.928561
| 11> C      -3.234969    1.124442   -0.172948
| 12> O      -3.879408    1.932819   -0.757035
| 13> C      -3.066073   -0.368767   -0.804420
| 14> C      -4.106598   -0.520648   -1.913684
| 15> N      -1.743787   -0.272596   -1.320513
| 16> C      -0.713625   -0.724367   -0.708315
| 17> C       0.607665   -0.552013   -1.445512
| 18> C       0.452105    0.523267   -2.531049
| 19> C       1.010303   -1.882964   -2.090670
| 20> N       1.657155   -0.123690   -0.527354
| 21> C       1.445865    0.917151    0.312255
| 22> O       0.350237    1.427310    0.490186
| 23> C       2.666715    1.341596    1.025033
| 24> N       2.807333    2.308221    1.878015
| 25> N       4.114346    2.313365    2.253862
| 26> C       4.695064    1.348861    1.608106
| 27> C       6.113643    0.937665    1.669584
| 28> O       3.833520    0.695353    0.811998
| 29> N      -0.795862   -1.431809    0.490952
| 30> C       0.359041   -1.902390    1.258876
| 31> C      -2.000000   -1.732989    1.058851
| 32> O      -2.150306   -2.368828    2.086222
| 33> C      -3.194756   -1.274388    0.312545
| 34> O      -4.333026   -1.656695    0.751680
| 35> H      -1.375794    2.810256    1.414904
| 36> H      -3.101521    3.228675    1.141945
| 37> H      -2.608375    2.350627    2.628210
| 38> H      -3.949727   -1.471257   -2.417451
| 39> H      -3.984831    0.292559   -2.625838
| 40> H      -5.107106   -0.491674   -1.487839
| 41> H      -0.259561    0.191690   -3.284315
| 42> H       0.094711    1.451604   -2.087894
| 43> H       1.418434    0.695721   -3.000686
| 44> H       0.231370   -2.199491   -2.782429
| 45> H       1.155887   -2.662080   -1.346543
| 46> H       1.938777   -1.747986   -2.642513
| 47> H       2.597278   -0.433770   -0.710554
| 48> H       6.182056   -0.103450    1.984103
| 49> H       6.650826    1.570113    2.372413
| 50> H       6.565584    1.018929    0.681163
| 51> H       0.620932   -1.145710    1.998467
| 52> H       0.067232   -2.820472    1.766911
| 53> H       1.202064   -2.090068    0.607227
| 54> H      -4.249157   -2.220906    1.555851
| 55> **                         ****END OF INPUT****

CARTESIAN COORDINATES (ANGSTROEM)
---------------------------------
  C     -2.410137    2.503615    1.569645
  O     -2.573522    1.215173    0.928561
  C     -3.234969    1.124442   -0.172948
  O     -3.879408    1.932819   -0.757035
  C     -3.066073   -0.368767   -0.804420
  C     -4.106598   -0.520648   -1.913684
  N     -1.743787   -0.272596   -1.320513
  C     -0.713625   -0.724367   -0.708315
  C      0.607665   -0.552013   -1.445512
  C      0.452105    0.523267   -2.531049
  C      1.010303   -1.882964   -2.090670
  N      1.657155   -0.123690   -0.527354
  C      1.445865    0.917151    0.312255
  O      0.350237    1.427310    0.490186
  C      2.666715    1.341596    1.025033
  N      2.807333    2.308221    1.878015
  N      4.114346    2.313365    2.253862
  C      4.695064    1.348861    1.608106
  C      6.113643    0.937665    1.669584
  O      3.833520    0.695353    0.811998
  N     -0.795862   -1.431809    0.490952
  C      0.359041   -1.902390    1.258876
  C     -2.000000   -1.732989    1.058851
  O     -2.150306   -2.368828    2.086222
  C     -3.194756   -1.274388    0.312545
  O     -4.333026   -1.656695    0.751680
  H     -1.375794    2.810256    1.414904
  H     -3.101521    3.228675    1.141945
  H     -2.608375    2.350627    2.628210
  H     -3.949727   -1.471257   -2.417451
  H     -3.984831    0.292559   -2.625838
  H     -5.107106   -0.491674   -1.487839
  H     -0.259561    0.191690   -3.284315
  H      0.094711    1.451604   -2.087894
  H      1.418434    0.695721   -3.000686
  H      0.231370   -2.199491   -2.782429
  H      1.155887   -2.662080   -1.346543
  H      1.938777   -1.747986   -2.642513
  H      2.597278   -0.433770   -0.710554
  H      6.182056   -0.103450    1.984103
  H      6.650826    1.570113    2.372413
  H      6.565584    1.018929    0.681163
  H      0.620932   -1.145710    1.998467
  H      0.067232   -2.820472    1.766911
  H      1.202064   -2.090068    0.607227
  H     -4.249157   -2.220906    1.555851

 Total Charge           Charge          ....    1
 Multiplicity           Mult            ....    1
 Number of Electrons    NEL             ....  192
 Basis Dimension        Dim             ....  649

ORBITAL ENERGIES
----------------

  NO   OCC          E(Eh)            E(eV)
   0   2.0000     -19.096154      -519.6328
   1   2.0000     -19.071239      -518.9548
   2   2.0000     -19.048201      -518.3279
   3   2.0000     -18.993398      -516.8366
   4   2.0000     -18.984697      -516.5999
   5   2.0000     -18.949709      -515.6478
   6   2.0000     -14.273452      -388.4004
   7   2.0000     -14.211884      -386.7250
   8   2.0000     -14.211612      -386.7176
   9   2.0000     -14.202243      -386.4627
  10   2.0000     -14.187139      -386.0517
  11   2.0000     -10.215335      -277.9734
  12   2.0000     -10.215287      -277.9721
  13   2.0000     -10.194000      -277.3928
  14   2.0000     -10.168144      -276.6893
  15   2.0000     -10.157788      -276.4075
  16   2.0000     -10.152602      -276.2663
  17   2.0000     -10.149535      -276.1829
  18   2.0000     -10.145270      -276.0668
  19   2.0000     -10.117873      -275.3213
  20   2.0000     -10.093495      -274.6580
  21   2.0000     -10.078913      -274.2612
  22   2.0000     -10.048097      -273.4226
  23   2.0000     -10.048071      -273.4219
  24   2.0000     -10.036027      -273.0942
  25   2.0000     -10.024512      -272.7808
  26   2.0000      -1.161267       -31.5997
  27   2.0000      -1.155637       -31.4465
  28   2.0000      -1.129619       -30.7385
  29   2.0000      -1.071250       -29.1502
  30   2.0000      -1.045713       -28.4553
  31   2.0000      -1.038978       -28.2720
  32   2.0000      -0.999915       -27.2091
  33   2.0000      -0.982001       -26.7216
  34   2.0000      -0.926455       -25.2101
  35   2.0000      -0.923302       -25.1243
  36   2.0000      -0.839815       -22.8525
  37   2.0000      -0.826318       -22.4853
  38   2.0000      -0.770683       -20.9713
  39   2.0000      -0.751580       -20.4515
  40   2.0000      -0.731870       -19.9152
  41   2.0000      -0.718017       -19.5382
  42   2.0000      -0.691862       -18.8265
  43   2.0000      -0.686497       -18.6805
  44   2.0000      -0.676320       -18.4036
  45   2.0000      -0.671482       -18.2720
  46   2.0000      -0.632392       -17.2083
  47   2.0000      -0.625747       -17.0274
  48   2.0000      -0.608534       -16.5590
  49   2.0000      -0.595060       -16.1924
  50   2.0000      -0.582842       -15.8599
  51   2.0000      -0.566037       -15.4026
  52   2.0000      -0.560205       -15.2440
  53   2.0000      -0.542082       -14.7508
  54   2.0000      -0.538397       -14.6505
  55   2.0000      -0.501606       -13.6494
  56   2.0000      -0.500692       -13.6245
  57   2.0000      -0.492410       -13.3992
  58   2.0000      -0.488288       -13.2870
  59   2.0000      -0.480158       -13.0658
  60   2.0000      -0.469347       -12.7716
  61   2.0000      -0.466300       -12.6887
  62   2.0000      -0.460085       -12.5196
  63   2.0000      -0.456984       -12.4352
  64   2.0000      -0.438538       -11.9332
  65   2.0000      -0.435419       -11.8484
  66   2.0000      -0.427126       -11.6227
  67   2.0000      -0.424352       -11.5472
  68   2.0000      -0.418360       -11.3842
  69   2.0000      -0.409122       -11.1328
  70   2.0000      -0.405322       -11.0294
  71   2.0000      -0.398449       -10.8423
  72   2.0000      -0.393312       -10.7026
  73   2.0000      -0.392274       -10.6743
  74   2.0000      -0.384523       -10.4634
  75   2.0000      -0.383375       -10.4322
  76   2.0000      -0.381819       -10.3898
  77   2.0000      -0.379123       -10.3165
  78   2.0000      -0.368597       -10.0300
  79   2.0000      -0.366050        -9.9607
  80   2.0000      -0.360959        -9.8222
  81   2.0000      -0.351620        -9.5681
  82   2.0000      -0.349992        -9.5238
  83   2.0000      -0.345597        -9.4042
  84   2.0000      -0.344298        -9.3688
  85   2.0000      -0.330463        -8.9923
  86   2.0000      -0.320101        -8.7104
  87   2.0000      -0.313820        -8.5395
  88   2.0000      -0.305726        -8.3192
  89   2.0000      -0.292112        -7.9488
  90   2.0000      -0.277483        -7.5507
  91   2.0000      -0.273713        -7.4481
  92   2.0000      -0.269015        -7.3203
  93   2.0000      -0.266828        -7.2608
  94   2.0000      -0.257795        -7.0150
  95   2.0000      -0.251323        -6.8388
  96   0.0000      -0.186689        -5.0801
  97   0.0000      -0.097537        -2.6541
  98   0.0000      -0.084113        -2.2888
  99   0.0000      -0.029421        -0.8006
 100   0.0000      -0.025297        -0.6884

MULLIKEN ATOMIC CHARGES
-----------------------
   0 C :   -0.319618
   1 O :   -0.105797
   2 C :    0.275083
   3 O :   -0.311826
   4 C :    0.026716
   5 C :   -0.484078
   6 N :   -0.175257
   7 C :    0.164966
   8 C :   -0.040455
   9 C :   -0.590335
  10 C :   -0.476791
  11 N :   -0.154534
  12 C :   -0.124133
  13 O :   -0.439828
  14 C :    0.424284
  15 N :   -0.149423
  16 N :   -0.289900
  17 C :    0.407884
  18 C :   -0.631427
  19 O :   -0.055476
  20 N :    0.305812
  21 C :   -0.420451
  22 C :    0.186685
  23 O :   -0.451019
  24 C :    0.345972
  25 O :   -0.277388
  26 H :    0.204769
  27 H :    0.193687
  28 H :    0.192200
  29 H :    0.208527
  30 H :    0.207064
  31 H :    0.201728
  32 H :    0.190535
  33 H :    0.200167
  34 H :    0.188438
  35 H :    0.203592
  36 H :    0.187998
  37 H :    0.198214
  38 H :    0.324145
  39 H :    0.202488
  40 H :    0.206431
  41 H :    0.203120
  42 H :    0.223276
  43 H :    0.201270
  44 H :    0.214689
  45 H :    0.407993
Sum of atomic charges:    1.0000000

LOEWDIN ATOMIC CHARGES
----------------------
   0 C :   -0.012769
   1 O :   -0.537054
   2 C :    0.435263
   3 O :   -0.327307
   4 C :    0.135613
   5 C :   -0.297515
   6 N :   -0.567281
   7 C :    0.398654
   8 C :    0.111547
   9 C :   -0.328087
  10 C :   -0.332086
  11 N :   -0.591147
  12 C :    0.387506
  13 O :   -0.440741
  14 C :    0.412478
  15 N :   -0.327914
  16 N :   -0.354753
  17 C :    0.383700
  18 C :   -0.315779
  19 O :   -0.388831
  20 N :   -0.600626
  21 C :   -0.051008
  22 C :    0.383114
  23 O :   -0.414037
  24 C :    0.425650
  25 O :   -0.282599
  26 H :    0.202800
  27 H :    0.195445
  28 H :    0.195933
  29 H :    0.184827
  30 H :    0.195197
  31 H :    0.186601
  32 H :    0.178743
  33 H :    0.182131
  34 H :    0.171917
  35 H :    0.182139
  36 H :    0.174258
  37 H :    0.180468
  38 H :    0.304694
  39 H :    0.192981
  40 H :    0.192021
  41 H :    0.193177
  42 H :    0.210708
  43 H :    0.214945
  44 H :    0.212341
  45 H :    0.344681

  Mayer bond orders larger than 0.100000
B(  0-C ,  1-O ) :   0.7949 B(  0-C , 26-H ) :   0.9379 B(  0-C , 27-H ) :   0.9569
B(  0-C , 28-H ) :   0.9484 B(  1-O ,  2-C ) :   1.1709 B(  2-C ,  3-O ) :   1.9325
B(  2-C ,  4-C ) :   0.8965 B(  2-C , 24-C ) :   0.1512 B(  4-C ,  5-C ) :   0.9134
B(  4-C ,  6-N ) :   0.7437 B(  4-C , 24-C ) :   1.0439 B(  5-C , 29-H ) :   0.9684
B(  5-C , 30-H ) :   0.9462 B(  5-C , 31-H ) :   0.9417 B(  6-N ,  7-C ) :   1.7370
B(  7-C ,  8-C ) :   0.7988 B(  7-C , 13-O ) :   0.1218 B(  7-C , 20-N ) :   1.1255
B(  8-C ,  9-C ) :   0.9183 B(  8-C , 10-C ) :   1.0113 B(  8-C , 11-N ) :   0.7378
B(  9-C , 32-H ) :   0.9586 B(  9-C , 33-H ) :   0.9596 B(  9-C , 34-H ) :   0.9683
B( 10-C , 35-H ) :   0.9625 B( 10-C , 36-H ) :   0.9222 B( 10-C , 37-H ) :   0.9618
B( 11-N , 12-C ) :   1.1593 B( 11-N , 38-H ) :   0.8987 B( 12-C , 13-O ) :   1.7361
B( 12-C , 14-C ) :   0.8159 B( 12-C , 16-N ) :   0.1219 B( 14-C , 15-N ) :   1.7529
B( 14-C , 17-C ) :   0.1345 B( 14-C , 19-O ) :   1.0851 B( 15-N , 16-N ) :   1.2619
B( 16-N , 17-C ) :   1.5994 B( 17-C , 18-C ) :   0.8210 B( 17-C , 19-O ) :   1.0673
B( 18-C , 39-H ) :   0.9426 B( 18-C , 40-H ) :   0.9889 B( 18-C , 41-H ) :   0.9421
B( 20-N , 21-C ) :   0.8537 B( 20-N , 22-C ) :   1.1374 B( 21-C , 42-H ) :   0.9148
B( 21-C , 43-H ) :   0.9298 B( 21-C , 44-H ) :   0.9189 B( 22-C , 23-O ) :   1.7973
B( 22-C , 24-C ) :   0.9074 B( 24-C , 25-O ) :   1.2887 B( 25-O , 45-H ) :   0.7806

Dispersion correction           -0.022546050
FINAL SINGLE POINT ENERGY     -1308.333468716887

DIPOLE MOMENT
-------------
                                X             Y             Z
Electronic contribution:     -7.38522       2.07207       9.27277
Nuclear contribution   :      7.23633      -6.19415     -10.47729
                        -----------------------------------------
Total Dipole Moment    :     -0.14889      -4.12208      -1.20452
                        -----------------------------------------
Magnitude (a.u.)       :      4.29705
Magnitude (Debye)      :     10.92222

Rotational constants in cm-1:     0.013012     0.004301     0.004126
Rotational constants in MHz :   390.101316   128.951566   123.686426

                             ****ORCA TERMINATED NORMALLY****
TOTAL RUN TIME: 0 days 0 hours 2 minutes 10 seconds 75 msec
