   * xtb version 6.5.1 (579679a) compiled by 'ehlert@majestix' on 2022-07-11
          program call               : /lustre/hpc/kemi/ree/PhD/git/ReactivityQM/dep/xtb-6.5.1/bin/xtb --gfn 1 /lustre/hpc/kemi/ree/PhD/git/ReactivityQM/calculations/R03/reac02prodN09/conf19/R03_reac02prodN09_conf19_gfn1.xyz --opt --vfukui --chrg 1 --uhf 0 --alpb DMSO

   ID    Z sym.   atoms
    1    6 C      1, 3, 5, 6, 8-11, 13, 15, 18, 19, 22, 23, 25
    2    8 O      2, 4, 14, 20, 24, 26
    3    7 N      7, 12, 16, 17, 21
    4    1 H      27-46

      * Solvation model:               ALPB
        Solvent                        DMSO
        Solvent mass                       7.8130E+01 g/mol
          :  Hamiltonian                  GFN1-xTB          :
 * total energy  :   -86.2814701 Eh     change       -0.1547562E-10 Eh
 * total energy  :   -86.3026351 Eh     change       -0.2116501E-01 Eh
 * total energy  :   -86.3116100 Eh     change       -0.8974846E-02 Eh
 * total energy  :   -86.3140139 Eh     change       -0.2403934E-02 Eh
 * total energy  :   -86.3160748 Eh     change       -0.2060881E-02 Eh
 * total energy  :   -86.3172877 Eh     change       -0.1212889E-02 Eh
 * total energy  :   -86.3182827 Eh     change       -0.9950731E-03 Eh
 * total energy  :   -86.3189133 Eh     change       -0.6305643E-03 Eh
 * total energy  :   -86.3192602 Eh     change       -0.3468512E-03 Eh
 * total energy  :   -86.3194846 Eh     change       -0.2244544E-03 Eh
 * total energy  :   -86.3213744 Eh     change       -0.1255779E-04 Eh
 * total energy  :   -86.3213904 Eh     change       -0.1604373E-04 Eh
 * total energy  :   -86.3213976 Eh     change       -0.7156909E-05 Eh
 * total energy  :   -86.3214154 Eh     change       -0.1783790E-04 Eh
 * total energy  :   -86.3214228 Eh     change       -0.7358494E-05 Eh
 * total energy  :   -86.3214267 Eh     change       -0.3913688E-05 Eh
 * total energy  :   -86.3214293 Eh     change       -0.2609923E-05 Eh
 * total energy  :   -86.3214322 Eh     change       -0.2889535E-05 Eh
 * total energy  :   -86.3214356 Eh     change       -0.3375005E-05 Eh
   *** GEOMETRY OPTIMIZATION CONVERGED AFTER 43 ITERATIONS ***

 final structure:
================
46
 xtb: 6.5.1 (579679a)
C           -2.41013684140849        2.50361503551499        1.56964461633564
O           -2.57352164271087        1.21517261121667        0.92856073996950
C           -3.23496882954291        1.12444195113217       -0.17294791371099
O           -3.87940848376155        1.93281892342744       -0.75703546473185
C           -3.06607272895611       -0.36876718400821       -0.80441973373470
C           -4.10659834927802       -0.52064775728990       -1.91368440848217
N           -1.74378724640255       -0.27259566398709       -1.32051283059728
C           -0.71362497549333       -0.72436716063697       -0.70831528186072
C            0.60766485998864       -0.55201306044400       -1.44551193099977
C            0.45210470086039        0.52326693809592       -2.53104912151957
C            1.01030340629842       -1.88296443115096       -2.09066992087021
N            1.65715545836048       -0.12369023401445       -0.52735422263352
C            1.44586494561525        0.91715067850785        0.31225517837337
O            0.35023669834882        1.42731021284831        0.49018553153259
C            2.66671466496672        1.34159620100701        1.02503251130318
N            2.80733250377669        2.30822132098372        1.87801519412454
N            4.11434611359256        2.31336541844292        2.25386174075983
C            4.69506405062962        1.34886080266553        1.60810597951587
C            6.11364278214567        0.93766459767321        1.66958379067567
O            3.83351952644196        0.69535288177779        0.81199766765119
N           -0.79586178760746       -1.43180896730470        0.49095178422244
C            0.35904108177963       -1.90239002238993        1.25887581649722
C           -1.99999951010838       -1.73298924530031        1.05885106720053
O           -2.15030587921435       -2.36882763613584        2.08622153003270
C           -3.19475638468826       -1.27438795982479        0.31254540675717
O           -4.33302636607100       -1.65669537859951        0.75168004852423
H           -1.37579365250477        2.81025592807900        1.41490440090619
H           -3.10152071025987        3.22867491230815        1.14194491034833
H           -2.60837495705913        2.35062681309410        2.62820993108631
H           -3.94972707910499       -1.47125685864793       -2.41745142451670
H           -3.98483060763859        0.29255923942299       -2.62583755456702
H           -5.10710586479245       -0.49167432358720       -1.48783864951129
H           -0.25956099302624        0.19168964778421       -3.28431487693301
H            0.09471084558680        1.45160449032550       -2.08789381162531
H            1.41843430189785        0.69572061802201       -3.00068558575524
H            0.23137002297320       -2.19949068622216       -2.78242860049739
H            1.15588686813494       -2.66207982192080       -1.34654268592652
H            1.93877727725253       -1.74798605101941       -2.64251321761040
H            2.59727754245577       -0.43376961259992       -0.71055412213624
H            6.18205639034375       -0.10345014047511        1.98410318728718
H            6.65082617976520        1.57011320575990        2.37241253354675
H            6.56558371162250        1.01892878034433        0.68116288071499
H            0.62093206532129       -1.14570995335842        1.99846671112167
H            0.06723181501204       -2.82047212274525        1.76691093522630
H            1.20206358437501       -2.09006792950557        0.60722662938258
H           -4.24915650791823       -2.22090600726668        1.55585063512012

          :  Hamiltonian                  GFN1-xTB          :
         :: total energy             -86.321435580959 Eh    ::
         :: gradient norm              0.000930164634 Eh/a0 ::
         :: HOMO-LUMO gap              1.029211346673 eV    ::
         :: SCC energy               -87.155451638688 Eh    ::
         :: -> Gsolv                  -0.105381895180 Eh    ::
         :: repulsion energy           0.866024111821 Eh    ::

    * Orbital Energies and Occupations

         #    Occupation            Energy/Eh            Energy/eV
      -------------------------------------------------------------
         1        2.0000           -0.9117557             -24.8101
       ...           ...                  ...                  ...
        58        2.0000           -0.5307466             -14.4424
        59        2.0000           -0.5273991             -14.3513
        60        2.0000           -0.5249925             -14.2858
        61        2.0000           -0.5158678             -14.0375
        62        2.0000           -0.5131585             -13.9638
        63        2.0000           -0.5068612             -13.7924
        64        2.0000           -0.4921330             -13.3916
        65        2.0000           -0.4901240             -13.3370
        66        2.0000           -0.4847247             -13.1900
        67        2.0000           -0.4788886             -13.0312
        68        2.0000           -0.4714012             -12.8275
        69        2.0000           -0.4607097             -12.5365
        70        2.0000           -0.4584953             -12.4763 (HOMO)
        71                         -0.4206725             -11.4471 (LUMO)
        72                         -0.3332252              -9.0675
        73                         -0.3242260              -8.8226
        74                         -0.3022582              -8.2249
        75                         -0.2661617              -7.2426
        76                         -0.2632597              -7.1637
        77                         -0.2107490              -5.7348
        78                         -0.1574138              -4.2834
        79                         -0.1566816              -4.2635
        80                         -0.1507343              -4.1017
        81                         -0.1492119              -4.0603
       ...                                ...                  ...
       144                          0.7570278              20.5998
      -------------------------------------------------------------
                  HL-Gap            0.0378228 Eh            1.0292 eV

Wiberg/Mayer (AO) data.
largest (>0.10) Wiberg bond orders for each atom

     #   Z sym  total        # sym  WBO       # sym  WBO       # sym  WBO
 ---------------------------------------------------------------------------
     1   6 C    3.817 --    28 H    0.983    29 H    0.979    27 H    0.970
                             2 O    0.836
     2   8 O    2.259 --     3 C    1.226     1 C    0.836     4 O    0.148
     3   6 C    3.857 --     4 O    1.742     2 O    1.226     5 C    0.708
     4   8 O    2.086 --     3 C    1.742     2 O    0.148
     5   6 C    3.958 --    25 C    1.111     7 N    1.010     6 C    0.955
                             3 C    0.708
     6   6 C    3.967 --    32 H    0.982    30 H    0.979    31 H    0.978
                             5 C    0.955
     7   7 N    3.034 --     8 C    1.673     5 C    1.010
     8   6 C    3.913 --     7 N    1.673    21 N    1.092     9 C    0.973
     9   6 C    3.935 --    10 C    0.986    11 C    0.979     8 C    0.973
                            12 N    0.934
    10   6 C    3.985 --     9 C    0.986    35 H    0.984    33 H    0.983
                            34 H    0.981
    11   6 C    3.985 --    36 H    0.982     9 C    0.979    38 H    0.979
                            37 H    0.978
    12   7 N    3.336 --    13 C    1.238     9 C    0.934    39 H    0.885
                            14 O    0.167
    13   6 C    3.912 --    14 O    1.575    12 N    1.238    15 C    1.005
    14   8 O    1.906 --    13 C    1.575    12 N    0.167
    15   6 C    3.877 --    16 N    1.614    20 O    1.047    13 C    1.005
    16   7 N    3.003 --    15 C    1.614    17 N    1.207
    17   7 N    2.982 --    18 C    1.601    16 N    1.207
    18   6 C    3.865 --    17 N    1.601    20 O    1.074    19 C    1.033
    19   6 C    3.985 --    18 C    1.033    41 H    0.982    40 H    0.961
                            42 H    0.961
    20   8 O    2.318 --    18 C    1.074    15 C    1.047
    21   7 N    3.537 --    23 C    1.196     8 C    1.092    22 C    0.917
                            24 O    0.170
    22   6 C    3.899 --    45 H    0.975    44 H    0.970    43 H    0.964
                            21 N    0.917
    23   6 C    3.926 --    24 O    1.599    21 N    1.196    25 C    0.999
    24   8 O    1.955 --    23 C    1.599    21 N    0.170
    25   6 C    3.817 --    26 O    1.347     5 C    1.111    23 C    0.999
    26   8 O    2.273 --    25 C    1.347    46 H    0.745
    27   1 H    1.017 --     1 C    0.970
    28   1 H    1.000 --     1 C    0.983
    29   1 H    1.003 --     1 C    0.979
    30   1 H    0.994 --     6 C    0.979
    31   1 H    1.001 --     6 C    0.978
    32   1 H    0.996 --     6 C    0.982
    33   1 H    1.007 --    10 C    0.983
    34   1 H    1.007 --    10 C    0.981
    35   1 H    0.999 --    10 C    0.984
    36   1 H    0.998 --    11 C    0.982
    37   1 H    0.998 --    11 C    0.978
    38   1 H    0.994 --    11 C    0.979
    39   1 H    0.927 --    12 N    0.885
    40   1 H    0.996 --    19 C    0.961
    41   1 H    0.997 --    19 C    0.982
    42   1 H    0.996 --    19 C    0.961
    43   1 H    0.996 --    22 C    0.964
    44   1 H    0.998 --    22 C    0.970
    45   1 H    1.006 --    22 C    0.975
    46   1 H    0.793 --    26 O    0.745
 ---------------------------------------------------------------------------

           -------------------------------------------------
          | TOTAL ENERGY              -86.321435580959 Eh   |
          | GRADIENT NORM               0.000930164634 Eh/α |
          | HOMO-LUMO GAP               1.029211346673 eV   |
           -------------------------------------------------

 * finished run on 2023/06/20 at 15:44:15.492
