   * xtb version 6.5.1 (579679a) compiled by 'ehlert@majestix' on 2022-07-11
          program call               : /lustre/hpc/kemi/ree/PhD/git/ReactivityQM/dep/xtb-6.5.1/bin/xtb --gfn 1 /lustre/hpc/kemi/ree/PhD/git/ReactivityQM/calculations/R02deprot/reac01prodE13/conf01/R02deprot_reac01prodE13_conf01_gfn1.xyz --opt --vfukui --chrg -2 --uhf 0 --alpb DMSO

   ID    Z sym.   atoms
    1    6 C      1, 3, 5, 6, 8, 10, 12-15, 17, 19, 22, 23
    2    8 O      2, 4, 7, 9, 18, 24
    3    7 N      11, 16, 20, 21, 25
    4    1 H      26-42

      * Solvation model:               ALPB
        Solvent                        DMSO
        Solvent mass                       7.8130E+01 g/mol
          :  Hamiltonian                  GFN1-xTB          :
 * total energy  :   -83.5738924 Eh     change       -0.9038104E-11 Eh
 * total energy  :   -83.5874954 Eh     change       -0.1360302E-01 Eh
 * total energy  :   -83.5920949 Eh     change       -0.4599484E-02 Eh
 * total energy  :   -83.5928563 Eh     change       -0.7613960E-03 Eh
 * total energy  :   -83.5934231 Eh     change       -0.5667706E-03 Eh
 * total energy  :   -83.5936091 Eh     change       -0.1860370E-03 Eh
 * total energy  :   -83.5937450 Eh     change       -0.1358959E-03 Eh
 * total energy  :   -83.5938417 Eh     change       -0.9665025E-04 Eh
 * total energy  :   -83.5939269 Eh     change       -0.8528977E-04 Eh
 * total energy  :   -83.5940092 Eh     change       -0.8227725E-04 Eh
 * total energy  :   -83.5955476 Eh     change       -0.1412521E-04 Eh
 * total energy  :   -83.5955575 Eh     change       -0.9928017E-05 Eh
 * total energy  :   -83.5955654 Eh     change       -0.7951248E-05 Eh
 * total energy  :   -83.5955730 Eh     change       -0.7533450E-05 Eh
 * total energy  :   -83.5955799 Eh     change       -0.6893196E-05 Eh
 * total energy  :   -83.5955864 Eh     change       -0.6493926E-05 Eh
 * total energy  :   -83.5955919 Eh     change       -0.5552144E-05 Eh
 * total energy  :   -83.5955971 Eh     change       -0.5172263E-05 Eh
 * total energy  :   -83.5956016 Eh     change       -0.4522997E-05 Eh
   *** GEOMETRY OPTIMIZATION CONVERGED AFTER 58 ITERATIONS ***

 final structure:
================
42
 xtb: 6.5.1 (579679a)
C           -5.38814010612743       -2.79261733261442       -0.98850306873154
O           -4.16660678325137       -2.09542069239612       -0.87650294441429
C           -4.16888919954455       -1.05323279573316        0.06537075521901
O           -5.24703673610754       -0.81137773212475        0.70133568155513
C           -2.96373062385979       -0.36983263513484        0.22064968371454
C           -2.84926488401806        0.70734332700593        1.17965394162008
O           -3.96049181466942        1.04827585638864        1.91392104794831
C           -1.64152710178537        1.33318801016117        1.31093477351944
O           -1.34224630281345        2.37704307045332        2.18108213511110
C           -2.38873243220122        3.13299446018372        2.75150447303359
N           -0.54925711914528        0.95901849180442        0.57408997059784
C           -0.73373608344739       -0.04533799446907       -0.29504984796132
C            0.49865512780768       -0.39883775440114       -1.13163827917236
C            0.62424818240971        0.65716675062144       -2.24767139468424
C            0.35993413029864       -1.80270941497207       -1.73080605975124
N            1.65011960595198       -0.34283343283942       -0.23389410231351
C            2.95871696163676       -0.44130651753806       -0.68535845795869
O            3.26555496891536       -0.90121133763271       -1.81035766690968
C            3.89721108700019       -0.02876102706168        0.31330258517439
N            3.60600733961773        0.46334274657527        1.52464683878185
N            4.80278650203446        0.71992456805625        2.13685836294647
C            5.73962519131853        0.38970047813047        1.31013417258500
C            7.20393042529828        0.48229200329344        1.53668478536069
O            5.26899676858103       -0.09131276474790        0.13268334326248
N           -1.83377167659349       -0.71425876106103       -0.52572976304964
H           -5.67069669605725       -3.26358173976508       -0.03785771793482
H           -5.25323830974797       -3.56799390238112       -1.74517875083515
H           -6.20420698985224       -2.12713879915252       -1.29807571504012
H           -4.68582349862177        0.41748831667829        1.59957848618349
H           -3.10691010033687        3.47527986399728        1.99611080138088
H           -2.92823874763811        2.57216390960544        3.52475627971469
H           -1.92662681219331        4.00828843627028        3.21675216628914
H           -0.27333505734628        0.64140177668405       -2.86572897988599
H            0.72831041350130        1.64827848303375       -1.80457755245600
H            1.48902766404709        0.45604162193570       -2.87916756898517
H           -0.57047878543403       -1.86560955197077       -2.29554766391611
H            1.19406839528568       -2.02609737858574       -2.39464959294596
H            0.33250782358753       -2.54652675880008       -0.93340880548045
H            1.51029037837475        0.28390971345820        0.55794556946418
H            7.66177870807927       -0.50546878074511        1.47576400176426
H            7.39265314531859        0.90316143016377        2.52141282886450
H            7.66856304173521        1.11515978963478        0.78035624832461

          :  Hamiltonian                  GFN1-xTB          :
         :: total energy             -83.595601614207 Eh    ::
         :: gradient norm              0.000548508333 Eh/a0 ::
         :: HOMO-LUMO gap              0.033578484780 eV    ::
         :: SCC energy               -84.312175776639 Eh    ::
         :: -> Gsolv                  -0.260415016616 Eh    ::
         :: repulsion energy           0.741207000942 Eh    ::

    * Orbital Energies and Occupations

         #    Occupation            Energy/Eh            Energy/eV
      -------------------------------------------------------------
         1        2.0000           -0.7968619             -21.6837
       ...           ...                  ...                  ...
        56        2.0000           -0.4360254             -11.8649
        57        2.0000           -0.4306905             -11.7197
        58        2.0000           -0.4260687             -11.5939
        59        2.0000           -0.4029274             -10.9642
        60        2.0000           -0.3994292             -10.8690
        61        2.0000           -0.3950353             -10.7495
        62        2.0000           -0.3916540             -10.6574
        63        2.0000           -0.3867017             -10.5227
        64        2.0000           -0.3823186             -10.4034
        65        2.0000           -0.3765573             -10.2466
        66        2.0000           -0.3594263              -9.7805
        67        2.0000           -0.3470264              -9.4431
        68        1.3138           -0.2615995              -7.1185 (HOMO)
        69        0.6862           -0.2603655              -7.0849 (LUMO)
        70                         -0.2071575              -5.6370
        71                         -0.1942896              -5.2869
        72                         -0.1586085              -4.3160
        73                         -0.1341019              -3.6491
        74                         -0.1241889              -3.3794
        75                         -0.1075369              -2.9262
        76                         -0.1057623              -2.8779
        77                         -0.0910654              -2.4780
        78                         -0.0853966              -2.3238
        79                         -0.0725189              -1.9733
       ...                                ...                  ...
       134                          0.6821796              18.5631
      -------------------------------------------------------------
                  HL-Gap            0.0012340 Eh            0.0336 eV

Wiberg/Mayer (AO) data.
largest (>0.10) Wiberg bond orders for each atom

     #   Z sym  total        # sym  WBO       # sym  WBO       # sym  WBO
 ---------------------------------------------------------------------------
     1   6 C    3.919 --    27 H    0.987    26 H    0.980    28 H    0.980
                             2 O    0.952
     2   8 O    2.044 --     1 C    0.952     3 C    0.938
     3   6 C    3.710 --     4 O    1.335     5 C    1.331     2 O    0.938
     4   8 O    1.708 --     3 C    1.335    29 H    0.126
     5   6 C    3.800 --     3 C    1.331     6 C    1.142    25 N    1.115
     6   6 C    3.826 --     8 C    1.486     5 C    1.142     7 O    1.024
     7   8 O    1.961 --     6 C    1.024    29 H    0.748
     8   6 C    3.800 --     6 C    1.486    11 N    1.183     9 O    0.956
     9   8 O    2.056 --     8 C    0.956    10 C    0.946
    10   6 C    3.916 --    32 H    0.985    30 H    0.981    31 H    0.980
                             9 O    0.946
    11   7 N    2.797 --    12 C    1.326     8 C    1.183
    12   6 C    3.956 --    25 N    1.508    11 N    1.326    13 C    0.966
    13   6 C    3.945 --    15 C    0.998    14 C    0.977    12 C    0.966
                            16 N    0.942
    14   6 C    3.992 --    33 H    0.988    34 H    0.986    35 H    0.983
                            13 C    0.977
    15   6 C    3.995 --    13 C    0.998    38 H    0.987    36 H    0.985
                            37 H    0.984
    16   7 N    3.167 --    17 C    1.117    13 C    0.942    39 H    0.903
                            18 O    0.117
    17   6 C    3.767 --    18 O    1.431    19 C    1.149    16 N    1.117
    18   8 O    1.679 --    17 C    1.431    16 N    0.117
    19   6 C    3.673 --    20 N    1.387    17 C    1.149    24 O    0.971
    20   7 N    2.735 --    19 C    1.387    21 N    1.185
    21   7 N    2.980 --    22 C    1.629    20 N    1.185
    22   6 C    3.817 --    21 N    1.629    24 O    1.047    23 C    1.023
    23   6 C    3.994 --    22 C    1.023    41 H    0.986    42 H    0.972
                            40 H    0.971
    24   8 O    2.173 --    22 C    1.047    19 C    0.971
    25   7 N    2.875 --    12 C    1.508     5 C    1.115
    26   1 H    1.019 --     1 C    0.980
    27   1 H    1.020 --     1 C    0.987
    28   1 H    1.020 --     1 C    0.980
    29   1 H    0.887 --     7 O    0.748     4 O    0.126
    30   1 H    1.017 --    10 C    0.981
    31   1 H    1.025 --    10 C    0.980
    32   1 H    1.020 --    10 C    0.985
    33   1 H    1.009 --    14 C    0.988
    34   1 H    1.014 --    14 C    0.986
    35   1 H    1.017 --    14 C    0.983
    36   1 H    1.027 --    15 C    0.985
    37   1 H    1.024 --    15 C    0.984
    38   1 H    1.015 --    15 C    0.987
    39   1 H    1.001 --    16 N    0.903
    40   1 H    1.001 --    23 C    0.971
    41   1 H    1.005 --    23 C    0.986
    42   1 H    1.001 --    23 C    0.972
 ---------------------------------------------------------------------------

           -------------------------------------------------
          | TOTAL ENERGY              -83.595601614207 Eh   |
          | GRADIENT NORM               0.000548508333 Eh/α |
          | HOMO-LUMO GAP               0.033578484780 eV   |
           -------------------------------------------------

 * finished run on 2023/06/20 at 18:01:04.816
