   * xtb version 6.5.1 (579679a) compiled by 'ehlert@majestix' on 2022-07-11
          program call               : /lustre/hpc/kemi/ree/PhD/git/ReactivityQM/dep/xtb-6.5.1/bin/xtb --gfn 1 /lustre/hpc/kemi/ree/PhD/git/ReactivityQM/calculations/R02methylcation/reac01prodE07/conf18/R02methylcation_reac01prodE07_conf18_gfn1.xyz --opt --vfukui --chrg -2 --uhf 0 --alpb DMSO

   ID    Z sym.   atoms
    1    6 C      1, 3, 5, 7-10, 12, 14, 15, 18, 19, 22, 24
    2    8 O      2, 4, 13, 20, 23, 25
    3    7 N      6, 11, 16, 17, 21
    4    1 H      26-42

      * Solvation model:               ALPB
        Solvent                        DMSO
        Solvent mass                       7.8130E+01 g/mol
          :  Hamiltonian                  GFN1-xTB          :
 * total energy  :   -83.5811923 Eh     change       -0.2135749E-09 Eh
 * total energy  :   -83.5961181 Eh     change       -0.1492585E-01 Eh
 * total energy  :   -83.6029096 Eh     change       -0.6791481E-02 Eh
 * total energy  :   -83.6043737 Eh     change       -0.1464089E-02 Eh
 * total energy  :   -83.6054713 Eh     change       -0.1097552E-02 Eh
 * total energy  :   -83.6059468 Eh     change       -0.4755374E-03 Eh
 * total energy  :   -83.6062734 Eh     change       -0.3265951E-03 Eh
 * total energy  :   -83.6064615 Eh     change       -0.1881032E-03 Eh
 * total energy  :   -83.6066175 Eh     change       -0.1560346E-03 Eh
 * total energy  :   -83.6067861 Eh     change       -0.1686202E-03 Eh
 * total energy  :   -83.6157070 Eh     change       -0.7832764E-05 Eh
 * total energy  :   -83.6157166 Eh     change       -0.9643828E-05 Eh
 * total energy  :   -83.6157253 Eh     change       -0.8644028E-05 Eh
 * total energy  :   -83.6157316 Eh     change       -0.6344036E-05 Eh
 * total energy  :   -83.6157369 Eh     change       -0.5276895E-05 Eh
 * total energy  :   -83.6157422 Eh     change       -0.5357279E-05 Eh
 * total energy  :   -83.6157480 Eh     change       -0.5798357E-05 Eh
 * total energy  :   -83.6157533 Eh     change       -0.5274809E-05 Eh
 * total energy  :   -83.6157551 Eh     change       -0.1774002E-05 Eh
   *** GEOMETRY OPTIMIZATION CONVERGED AFTER 94 ITERATIONS ***

 final structure:
================
42
 xtb: 6.5.1 (579679a)
C            6.54545942396254        1.76344370117089        1.15967700173693
O            5.58599830845950        1.30770685533535        0.21998360412410
C            4.36629576114938        0.98156151206143        0.73155129677283
O            4.15119145466011        1.10171910602845        1.93425720652852
C            3.40530027466174        0.49708553404726       -0.24289459946307
N            2.18745390128524        0.16110489821209        0.32848687263352
C            1.23331165723185       -0.29211681894019       -0.39832603950330
C           -0.08148330243432       -0.73868737635383        0.21091888472935
C           -0.40940049265327        0.12429713744147        1.43838611584293
C            0.07361173375436       -2.21138818224959        0.61999336347179
N           -1.11984847911059       -0.62261794449905       -0.83098553225848
C           -2.43171228940959       -1.08678416462253       -0.42969448828302
O           -2.69586560015004       -2.43172185651249       -0.83067350955605
C           -3.43511387545287       -3.18234847064852        0.10889369324022
C           -3.46482616972904       -0.20430495469977       -0.25173896897208
N           -4.78662932457690       -0.46767647772649       -0.09571817962582
N           -5.38052823024073        0.74254337659380        0.21073407105912
C           -4.46465570031932        1.64287561526004        0.23597590758315
C           -4.63336802819059        3.09648134476677        0.50666403237536
O           -3.20900749736823        1.14720095329585       -0.03955556211870
N            1.37855409047742       -0.47330576492558       -1.75677940269274
C            2.51545535868292       -0.18060764606639       -2.45188850875802
O            2.55833957304449       -0.36206006784019       -3.67100119198747
C            3.66637545606271        0.35601846411879       -1.63058728343975
O            4.73636598009222        0.63007092752785       -2.21336466553814
H            6.20541202030459        2.67982200046787        1.65318589816315
H            7.46430433625583        1.96334939791517        0.60953056506723
H            6.73320633443687        1.00319509716146        1.92504080088514
H            0.42107602946584        0.09781322266389        2.14402119190010
H           -0.58265623959281        1.15629885492032        1.13441172333047
H           -1.30767992133485       -0.25261321432907        1.92640378051848
H            0.94995360847297       -2.33035468249469        1.25679483505655
H           -0.80491366845481       -2.54471289725640        1.17055993217093
H            0.18960690091883       -2.83399972302071       -0.26729848949049
H           -1.20161137495608        0.36711228542836       -1.06637386946098
H           -2.96793360817023       -3.16399052496245        1.10509362907760
H           -3.46806868079774       -4.21603329503934       -0.24623639369232
H           -4.46491737681116       -2.80428913539638        0.20513552210814
H           -5.68833761934210        3.30958696738916        0.66783819592119
H           -4.27587046459845        3.69056092034760       -0.33625200866666
H           -4.07193059453596        3.39859337756881        1.39258203315890
H            0.57908333483036       -0.81882735213447       -2.27362246396133

          :  Hamiltonian                  GFN1-xTB          :
         :: total energy             -83.615755087458 Eh    ::
         :: gradient norm              0.000183622806 Eh/a0 ::
         :: HOMO-LUMO gap              0.469184838319 eV    ::
         :: SCC energy               -84.347046343128 Eh    ::
         :: -> Gsolv                  -0.255821056804 Eh    ::
         :: repulsion energy           0.757208113703 Eh    ::

    * Orbital Energies and Occupations

         #    Occupation            Energy/Eh            Energy/eV
      -------------------------------------------------------------
         1        2.0000           -0.7902062             -21.5026
       ...           ...                  ...                  ...
        56        2.0000           -0.4421809             -12.0324
        57        2.0000           -0.4272229             -11.6253
        58        2.0000           -0.4250050             -11.5650
        59        2.0000           -0.4237002             -11.5295
        60        2.0000           -0.4132622             -11.2454
        61        2.0000           -0.4007775             -10.9057
        62        2.0000           -0.3943285             -10.7302
        63        2.0000           -0.3791284             -10.3166
        64        2.0000           -0.3715521             -10.1104
        65        2.0000           -0.3659335              -9.9576
        66        2.0000           -0.3621231              -9.8539
        67        2.0000           -0.3522378              -9.5849
        68        1.9998           -0.2763267              -7.5192 (HOMO)
        69        0.0002           -0.2590845              -7.0500 (LUMO)
        70                         -0.2207140              -6.0059
        71                         -0.1860201              -5.0619
        72                         -0.1798975              -4.8953
        73                         -0.1373132              -3.7365
        74                         -0.1179066              -3.2084
        75                         -0.1119823              -3.0472
        76                         -0.1039798              -2.8294
        77                         -0.0967331              -2.6322
        78                         -0.0925789              -2.5192
        79                         -0.0904726              -2.4619
       ...                                ...                  ...
       134                          0.7574521              20.6113
      -------------------------------------------------------------
                  HL-Gap            0.0172422 Eh            0.4692 eV

Wiberg/Mayer (AO) data.
largest (>0.10) Wiberg bond orders for each atom

     #   Z sym  total        # sym  WBO       # sym  WBO       # sym  WBO
 ---------------------------------------------------------------------------
     1   6 C    3.903 --    27 H    0.987    28 H    0.980    26 H    0.980
                             2 O    0.930
     2   8 O    2.153 --     3 C    1.036     1 C    0.930     4 O    0.107
     3   6 C    3.848 --     4 O    1.567     5 C    1.126     2 O    1.036
     4   8 O    1.845 --     3 C    1.567     2 O    0.107
     5   6 C    3.919 --    24 C    1.279     6 N    1.145     3 C    1.126
                            25 O    0.130
     6   7 N    3.020 --     7 C    1.631     5 C    1.145
     7   6 C    3.926 --     6 N    1.631    21 N    1.099     8 C    0.978
     8   6 C    3.972 --     9 C    0.988    10 C    0.982     7 C    0.978
                            11 N    0.962
     9   6 C    3.996 --     8 C    0.988    31 H    0.985    30 H    0.985
                            29 H    0.985
    10   6 C    3.994 --    32 H    0.988    34 H    0.986     8 C    0.982
                            33 H    0.979
    11   7 N    3.039 --    12 C    0.962     8 C    0.962    35 H    0.943
    12   6 C    3.680 --    15 C    1.478    11 N    0.962    13 O    0.902
                            16 N    0.151
    13   8 O    2.000 --    14 C    0.962    12 C    0.902
    14   6 C    3.932 --    37 H    0.985    36 H    0.976    38 H    0.975
                            13 O    0.962
    15   6 C    3.862 --    12 C    1.478    16 N    1.283    20 O    0.955
    16   7 N    2.825 --    15 C    1.283    17 N    1.147    12 C    0.151
                            18 C    0.119
    17   7 N    2.987 --    18 C    1.678    16 N    1.147
    18   6 C    3.885 --    17 N    1.678    19 C    1.018    20 O    0.990
                            16 N    0.119
    19   6 C    3.996 --    18 C    1.018    39 H    0.987    40 H    0.976
                            41 H    0.975
    20   8 O    2.180 --    18 C    0.990    15 C    0.955
    21   7 N    3.440 --    22 C    1.180     7 C    1.099    42 H    0.888
                            23 O    0.136
    22   6 C    3.884 --    23 O    1.556    21 N    1.180    24 C    0.973
    23   8 O    1.837 --    22 C    1.556    21 N    0.136
    24   6 C    3.944 --    25 O    1.503     5 C    1.279    22 C    0.973
    25   8 O    1.808 --    24 C    1.503     5 C    0.130
    26   1 H    1.015 --     1 C    0.980
    27   1 H    1.016 --     1 C    0.987
    28   1 H    1.015 --     1 C    0.980
    29   1 H    1.018 --     9 C    0.985
    30   1 H    1.012 --     9 C    0.985
    31   1 H    1.015 --     9 C    0.985
    32   1 H    1.009 --    10 C    0.988
    33   1 H    1.014 --    10 C    0.979
    34   1 H    1.013 --    10 C    0.986
    35   1 H    0.980 --    11 N    0.943
    36   1 H    1.026 --    14 C    0.976
    37   1 H    1.023 --    14 C    0.985
    38   1 H    1.048 --    14 C    0.975
    39   1 H    1.008 --    19 C    0.987
    40   1 H    1.007 --    19 C    0.976
    41   1 H    1.007 --    19 C    0.975
    42   1 H    0.969 --    21 N    0.888
 ---------------------------------------------------------------------------

           -------------------------------------------------
          | TOTAL ENERGY              -83.615755087458 Eh   |
          | GRADIENT NORM               0.000183622806 Eh/α |
          | HOMO-LUMO GAP               0.469184838319 eV   |
           -------------------------------------------------

 * finished run on 2023/06/21 at 17:16:22.370
