   * xtb version 6.5.1 (579679a) compiled by 'ehlert@majestix' on 2022-07-11
          program call               : /lustre/hpc/kemi/ree/PhD/git/ReactivityQM/dep/xtb-6.5.1/bin/xtb --gfn 1 /lustre/hpc/kemi/ree/PhD/git/ReactivityQM/calculations/R02oxygendeprot/reac01prodN08/conf08/R02oxygendeprot_reac01prodN08_conf08_gfn1.xyz --opt --vfukui --chrg 0 --uhf 0 --alpb DMSO

   ID    Z sym.   atoms
    1    6 C      1, 3, 5, 7-10, 12, 14, 17, 18, 21, 23, 25
    2    8 O      2, 4, 13, 19, 22, 24
    3    7 N      6, 11, 15, 16, 20
    4    1 H      26-42

      * Solvation model:               ALPB
        Solvent                        DMSO
        Solvent mass                       7.8130E+01 g/mol
          :  Hamiltonian                  GFN1-xTB          :
 * total energy  :   -82.9946044 Eh     change       -0.1537614E-10 Eh
 * total energy  :   -83.0101536 Eh     change       -0.1554926E-01 Eh
 * total energy  :   -83.0154239 Eh     change       -0.5270269E-02 Eh
 * total energy  :   -83.0164706 Eh     change       -0.1046698E-02 Eh
 * total energy  :   -83.0168925 Eh     change       -0.4218984E-03 Eh
 * total energy  :   -83.0170365 Eh     change       -0.1439615E-03 Eh
 * total energy  :   -83.0171172 Eh     change       -0.8071216E-04 Eh
 * total energy  :   -83.0171662 Eh     change       -0.4908231E-04 Eh
 * total energy  :   -83.0172045 Eh     change       -0.3824457E-04 Eh
 * total energy  :   -83.0172413 Eh     change       -0.3679192E-04 Eh
 * total energy  :   -83.0174647 Eh     change       -0.1589865E-04 Eh
 * total energy  :   -83.0174757 Eh     change       -0.1101605E-04 Eh
 * total energy  :   -83.0174854 Eh     change       -0.9760262E-05 Eh
 * total energy  :   -83.0174989 Eh     change       -0.1350803E-04 Eh
 * total energy  :   -83.0175062 Eh     change       -0.7253631E-05 Eh
 * total energy  :   -83.0175121 Eh     change       -0.5932737E-05 Eh
 * total energy  :   -83.0175250 Eh     change       -0.1286351E-04 Eh
 * total energy  :   -83.0175297 Eh     change       -0.4662580E-05 Eh
 * total energy  :   -83.0175331 Eh     change       -0.3394909E-05 Eh
   *** GEOMETRY OPTIMIZATION CONVERGED AFTER 26 ITERATIONS ***

 final structure:
================
42
 xtb: 6.5.1 (579679a)
C           -6.11004019875500       -1.96750091046063        0.40823249294950
O           -5.03393035809482       -1.09365875968931        0.05496850688689
C           -3.86191804788514       -1.33300981890494        0.63782614988197
O           -3.69187513623163       -2.23285275633580        1.43008065441963
C           -2.77037027618686       -0.39187087037537        0.23768266184308
N           -1.60738388733846       -0.63263261235816        0.92321336274600
C           -0.57000699062046        0.09416482306749        0.69561322014696
C            0.70537025302440       -0.11988071526175        1.47998167719959
C            0.78472007939794        0.97559913001691        2.55465644245995
C            0.71461173562637       -1.51664933758076        2.10782915242629
N            1.82410905674203        0.01389571921836        0.54057323711366
C            3.12140225780373       -0.04101297908521        0.92154878083186
O            3.52269693873134       -0.10722340160175        2.06808071390706
C            4.01722033477869        0.00664364318709       -0.26219331923963
N            3.64326564857101        0.00302351767687       -1.50666671648614
N            4.77852788206011        0.05028253668036       -2.25786077213449
C            5.77340563170835        0.08111634630831       -1.42300041526138
C            7.21721955956550        0.14692407710046       -1.73830895598356
O            5.35659684660448        0.05356862341807       -0.14860728947362
N           -0.59659190590617        1.11520681000491       -0.20702061563226
C           -1.69434450459113        1.45195959275710       -0.97135140067978
O           -1.62034512993902        2.37941947370619       -1.76429760363095
C           -2.86422301440213        0.60831333534451       -0.70609712892113
O           -4.01899829134313        0.79213506654566       -1.35942194874942
C           -4.19912381458656        1.79347737835752       -2.36130124304839
H           -6.99136140965762       -1.60358018167338       -0.11582230384532
H           -6.27421823355845       -1.94521048827075        1.48828637518362
H           -5.87974787093221       -2.98973496328818        0.09846544337722
H           -0.11167696667877        0.93865467594073        3.17156668049117
H            1.65703905610340        0.82349542881606        3.18646863990532
H            0.85243820322740        1.95399470572983        2.08315320246112
H            1.61741371890783       -1.65024072628238        2.70061053623501
H            0.68080889228865       -2.27495909747991        1.32697042863626
H           -0.15776895841864       -1.63081144691028        2.74962702343710
H            1.62791970543169       -0.05105511479812       -0.44668601187868
H            7.74858706182500       -0.65317886512069       -1.22358519580553
H            7.62739202919938        1.09809105338253       -1.39742517607230
H            7.36256443293063        0.05512555082896       -2.81196765417629
H            0.22349201760456        1.68606211941894       -0.34715932187387
H           -3.51466088200298        1.64093970314155       -3.19873089010294
H           -5.22822238677713        1.67834208138662       -2.70387230768215
H           -4.05999007822800        2.79462865343699       -1.94745511186222

          :  Hamiltonian                  GFN1-xTB          :
         :: total energy             -83.017533054663 Eh    ::
         :: gradient norm              0.000513705689 Eh/a0 ::
         :: HOMO-LUMO gap              2.767740915368 eV    ::
         :: SCC energy               -83.801369550585 Eh    ::
         :: -> Gsolv                  -0.051997614049 Eh    ::
         :: repulsion energy           0.808751602427 Eh    ::

    * Orbital Energies and Occupations

         #    Occupation            Energy/Eh            Energy/eV
      -------------------------------------------------------------
         1        2.0000           -0.8647916             -23.5322
       ...           ...                  ...                  ...
        55        2.0000           -0.5069154             -13.7939
        56        2.0000           -0.5024893             -13.6734
        57        2.0000           -0.4971014             -13.5268
        58        2.0000           -0.4870873             -13.2543
        59        2.0000           -0.4840704             -13.1722
        60        2.0000           -0.4825294             -13.1303
        61        2.0000           -0.4682117             -12.7407
        62        2.0000           -0.4631649             -12.6034
        63        2.0000           -0.4584578             -12.4753
        64        2.0000           -0.4535274             -12.3411
        65        2.0000           -0.4524731             -12.3124
        66        2.0000           -0.4491229             -12.2213
        67        2.0000           -0.4290330             -11.6746 (HOMO)
        68                         -0.3273204              -8.9068 (LUMO)
        69                         -0.3128379              -8.5128
        70                         -0.2863731              -7.7926
        71                         -0.2578969              -7.0177
        72                         -0.2426235              -6.6021
        73                         -0.2011004              -5.4722
        74                         -0.1634246              -4.4470
        75                         -0.1424317              -3.8758
        76                         -0.1383980              -3.7660
        77                         -0.1333450              -3.6285
        78                         -0.1295535              -3.5253
       ...                                ...                  ...
       134                          0.7258613              19.7517
      -------------------------------------------------------------
                  HL-Gap            0.1017126 Eh            2.7677 eV

Wiberg/Mayer (AO) data.
largest (>0.10) Wiberg bond orders for each atom

     #   Z sym  total        # sym  WBO       # sym  WBO       # sym  WBO
 ---------------------------------------------------------------------------
     1   6 C    3.872 --    26 H    0.986    27 H    0.979    28 H    0.979
                             2 O    0.896
     2   8 O    2.206 --     3 C    1.117     1 C    0.896     4 O    0.134
     3   6 C    3.852 --     4 O    1.654     2 O    1.117     5 C    0.999
     4   8 O    1.916 --     3 C    1.654     2 O    0.134
     5   6 C    3.962 --    23 C    1.483     6 N    1.185     3 C    0.999
     6   7 N    3.028 --     7 C    1.589     5 C    1.185
     7   6 C    3.930 --     6 N    1.589    20 N    1.166     8 C    0.981
     8   6 C    3.933 --    10 C    0.990     7 C    0.981     9 C    0.975
                            11 N    0.922
     9   6 C    3.987 --    29 H    0.985    31 H    0.985    30 H    0.977
                             8 C    0.975
    10   6 C    3.989 --     8 C    0.990    33 H    0.985    34 H    0.983
                            32 H    0.982
    11   7 N    3.330 --    12 C    1.239     8 C    0.922    35 H    0.894
                            13 O    0.174
    12   6 C    3.915 --    13 O    1.603    11 N    1.239    14 C    0.989
    13   8 O    1.918 --    12 C    1.603    11 N    0.174
    14   6 C    3.876 --    15 N    1.609    19 O    1.065    12 C    0.989
    15   7 N    3.018 --    14 C    1.609    16 N    1.201
    16   7 N    2.981 --    17 C    1.603    15 N    1.201
    17   6 C    3.870 --    16 N    1.603    19 O    1.083    18 C    1.032
    18   6 C    3.986 --    17 C    1.032    38 H    0.982    36 H    0.966
                            37 H    0.960
    19   8 O    2.331 --    17 C    1.083    14 C    1.065
    20   7 N    3.465 --     7 C    1.166    21 C    1.129    39 H    0.883
                            22 O    0.132
    21   6 C    3.909 --    22 O    1.576    20 N    1.129    23 C    1.066
    22   8 O    1.904 --    21 C    1.576    20 N    0.132
    23   6 C    3.918 --     5 C    1.483    24 O    1.098    21 C    1.066
    24   8 O    2.194 --    23 C    1.098    25 C    0.895
    25   6 C    3.870 --    41 H    0.984    40 H    0.979    42 H    0.978
                            24 O    0.895
    26   1 H    1.011 --     1 C    0.986
    27   1 H    1.008 --     1 C    0.979
    28   1 H    1.007 --     1 C    0.979
    29   1 H    1.001 --     9 C    0.985
    30   1 H    1.009 --     9 C    0.977
    31   1 H    1.001 --     9 C    0.985
    32   1 H    1.006 --    10 C    0.982
    33   1 H    1.004 --    10 C    0.985
    34   1 H    1.010 --    10 C    0.983
    35   1 H    0.951 --    11 N    0.894
    36   1 H    0.996 --    18 C    0.966
    37   1 H    0.996 --    18 C    0.960
    38   1 H    0.998 --    18 C    0.982
    39   1 H    0.929 --    20 N    0.883
    40   1 H    1.014 --    25 C    0.979
    41   1 H    1.012 --    25 C    0.984
    42   1 H    1.014 --    25 C    0.978
 ---------------------------------------------------------------------------

           -------------------------------------------------
          | TOTAL ENERGY              -83.017533054663 Eh   |
          | GRADIENT NORM               0.000513705689 Eh/α |
          | HOMO-LUMO GAP               2.767740915368 eV   |
           -------------------------------------------------

 * finished run on 2023/06/21 at 17:23:46.187
