   * xtb version 6.5.1 (579679a) compiled by 'ehlert@majestix' on 2022-07-11
          program call               : /lustre/hpc/kemi/ree/PhD/git/ReactivityQM/dep/xtb-6.5.1/bin/xtb --gfn 1 /lustre/hpc/kemi/ree/PhD/git/ReactivityQM/calculations/R02deprot/reac01prodE04/conf13/R02deprot_reac01prodE04_conf13_gfn1.xyz --opt --vfukui --chrg -2 --uhf 0 --alpb DMSO

   ID    Z sym.   atoms
    1    6 C      1, 3, 5, 6, 8-11, 13, 15, 18, 19, 22, 24
    2    8 O      2, 4, 14, 20, 23, 25
    3    7 N      7, 12, 16, 17, 21
    4    1 H      26-42

      * Solvation model:               ALPB
        Solvent                        DMSO
        Solvent mass                       7.8130E+01 g/mol
          :  Hamiltonian                  GFN1-xTB          :
 * total energy  :   -83.5631376 Eh     change       -0.1314504E-10 Eh
 * total energy  :   -83.5791208 Eh     change       -0.1598321E-01 Eh
 * total energy  :   -83.5846248 Eh     change       -0.5503977E-02 Eh
 * total energy  :   -83.5857034 Eh     change       -0.1078629E-02 Eh
 * total energy  :   -83.5865492 Eh     change       -0.8457727E-03 Eh
 * total energy  :   -83.5872052 Eh     change       -0.6559782E-03 Eh
 * total energy  :   -83.5878125 Eh     change       -0.6073243E-03 Eh
 * total energy  :   -83.5885150 Eh     change       -0.7024597E-03 Eh
 * total energy  :   -83.5894113 Eh     change       -0.8963527E-03 Eh
 * total energy  :   -83.5903163 Eh     change       -0.9049417E-03 Eh
 * total energy  :   -83.5988963 Eh     change       -0.8692731E-05 Eh
 * total energy  :   -83.5989039 Eh     change       -0.7568302E-05 Eh
 * total energy  :   -83.5989104 Eh     change       -0.6505126E-05 Eh
 * total energy  :   -83.5989163 Eh     change       -0.5920337E-05 Eh
 * total energy  :   -83.5989220 Eh     change       -0.5701927E-05 Eh
 * total energy  :   -83.5989275 Eh     change       -0.5471543E-05 Eh
 * total energy  :   -83.5989329 Eh     change       -0.5435188E-05 Eh
 * total energy  :   -83.5989386 Eh     change       -0.5632112E-05 Eh
 * total energy  :   -83.5989418 Eh     change       -0.3250950E-05 Eh
   *** GEOMETRY OPTIMIZATION CONVERGED AFTER 122 ITERATIONS ***

 final structure:
================
42
 xtb: 6.5.1 (579679a)
C            3.81883395785472       -1.76284873934965        1.34610395536228
O            2.69358730254238       -0.97617838744114        0.98930999782751
C            2.56563020409384        0.20688743270409        1.66550622875659
O            3.34611767494850        0.49807970515505        2.58500296687163
C            1.58648778150184        1.19510296227535        1.05592569612972
C            0.93864413039553        2.08061131627317        2.12806716663763
N            0.57274586854792        0.59380217282356        0.22451342661389
C            0.88659072334903        0.41658446109742       -1.03657060970262
C           -0.14876708405954       -0.34696807376233       -1.88087798248515
C           -0.46278240818571        0.45016523637298       -3.15466891785290
C            0.44625416783378       -1.71846407902712       -2.23461313858265
N           -1.36021329174274       -0.50878150341861       -1.07877946661049
C           -2.47719792748396       -1.12763092536553       -1.49420347966575
O           -2.61819120309533       -1.67321727085204       -2.59797790747162
C           -3.57745211205013       -1.10728680755925       -0.51739869867832
N           -4.76270948386498       -1.65435968255672       -0.65715485090192
N           -5.46712984639662       -1.36037827035867        0.47662415731177
C           -4.68655883758139       -0.65935933221227        1.23505691105141
C           -5.00425907092820       -0.09680476762998        2.56820285626109
O           -3.47538686540754       -0.45797828145788        0.67827294093441
N            1.95723552529149        0.78168460736095       -1.72181431797382
C            2.91509903192841        1.59274369697885       -1.08843396371083
O            3.85619648980477        2.08253853701090       -1.77783217428522
C            2.70215111070346        1.85588292230423        0.27741369886885
O            3.55836308652566        2.70138446692596        1.00641253294547
H            3.78482786915710       -2.03243178322698        2.40719446365281
H            3.78775907042356       -2.66942586233276        0.74151666414842
H            4.75407969950384       -1.22505538543794        1.15417904509654
H            1.68924380289600        2.44529124648523        2.82781879816671
H            0.44684729243105        2.93151963680230        1.65719660445624
H            0.19315255847121        1.50502508261393        2.67579781177779
H           -0.97529488379778        1.37772908879955       -2.89786816404969
H            0.47605424797274        0.69432048261922       -3.65408625216600
H           -1.09094643675266       -0.12339670613718       -3.83536128179104
H            1.40638810162811       -1.56562070641283       -2.72917243582623
H           -0.21194443397038       -2.27646863218848       -2.89978839123778
H            0.60612390235508       -2.29931812171499       -1.32578923713828
H           -1.30976774222021       -0.11446415780125       -0.14120691747814
H           -6.02377356926088       -0.36104217624857        2.83713004640116
H           -4.31980949317817       -0.49002483609456        3.31957481773176
H           -4.90473472494665        0.98845839422148        2.55338677477743
H            3.88850581477497        2.20969603975910        1.78478262584414

          :  Hamiltonian                  GFN1-xTB          :
         :: total energy             -83.598941831408 Eh    ::
         :: gradient norm              0.000202823090 Eh/a0 ::
         :: HOMO-LUMO gap              0.105584857932 eV    ::
         :: SCC energy               -84.319449244563 Eh    ::
         :: -> Gsolv                  -0.274340383350 Eh    ::
         :: repulsion energy           0.747303289180 Eh    ::

    * Orbital Energies and Occupations

         #    Occupation            Energy/Eh            Energy/eV
      -------------------------------------------------------------
         1        2.0000           -0.8313240             -22.6215
       ...           ...                  ...                  ...
        56        2.0000           -0.4347281             -11.8296
        57        2.0000           -0.4307476             -11.7212
        58        2.0000           -0.4272039             -11.6248
        59        2.0000           -0.4266060             -11.6085
        60        2.0000           -0.4155547             -11.3078
        61        2.0000           -0.4123186             -11.2198
        62        2.0000           -0.4034327             -10.9780
        63        2.0000           -0.3920311             -10.6677
        64        2.0000           -0.3787226             -10.3056
        65        2.0000           -0.3499897              -9.5237
        66        2.0000           -0.3241709              -8.8211
        67        2.0000           -0.3186548              -8.6710
        68        1.7703           -0.2811010              -7.6491 (HOMO)
        69        0.2297           -0.2772208              -7.5436 (LUMO)
        70                         -0.2309841              -6.2854
        71                         -0.1977000              -5.3797
        72                         -0.1666755              -4.5355
        73                         -0.1598195              -4.3489
        74                         -0.1318267              -3.5872
        75                         -0.1119180              -3.0454
        76                         -0.0902761              -2.4565
        77                         -0.0884608              -2.4071
        78                         -0.0879159              -2.3923
        79                         -0.0787332              -2.1424
       ...                                ...                  ...
       134                          0.7155418              19.4709
      -------------------------------------------------------------
                  HL-Gap            0.0038802 Eh            0.1056 eV

Wiberg/Mayer (AO) data.
largest (>0.10) Wiberg bond orders for each atom

     #   Z sym  total        # sym  WBO       # sym  WBO       # sym  WBO
 ---------------------------------------------------------------------------
     1   6 C    3.907 --    27 H    0.987    26 H    0.981    28 H    0.981
                             2 O    0.932
     2   8 O    2.126 --     3 C    1.018     1 C    0.932
     3   6 C    3.777 --     4 O    1.501     2 O    1.018     5 C    0.927
                            24 C    0.199
     4   8 O    1.828 --     3 C    1.501
     5   6 C    3.968 --     7 N    1.000     6 C    0.982     3 C    0.927
                            24 C    0.926
     6   6 C    3.986 --    31 H    0.987    30 H    0.987    29 H    0.986
                             5 C    0.982
     7   7 N    2.897 --     8 C    1.490     5 C    1.000    21 N    0.171
     8   6 C    3.961 --     7 N    1.490    21 N    1.399     9 C    0.952
     9   6 C    3.921 --    10 C    0.989    11 C    0.984     8 C    0.952
                            12 N    0.922
    10   6 C    3.994 --     9 C    0.989    32 H    0.987    34 H    0.985
                            33 H    0.982
    11   6 C    3.994 --    37 H    0.987    35 H    0.985    36 H    0.985
                             9 C    0.984
    12   7 N    3.334 --    13 C    1.272     9 C    0.922    38 H    0.879
                            14 O    0.168
    13   6 C    3.866 --    14 O    1.491    12 N    1.272    15 C    1.030
    14   8 O    1.784 --    13 C    1.491    12 N    0.168
    15   6 C    3.770 --    16 N    1.539    13 C    1.030    20 O    1.016
    16   7 N    2.879 --    15 C    1.539    17 N    1.188
    17   7 N    2.980 --    18 C    1.624    16 N    1.188
    18   6 C    3.846 --    17 N    1.624    20 O    1.062    19 C    1.027
    19   6 C    3.991 --    18 C    1.027    39 H    0.984    41 H    0.968
                            40 H    0.968
    20   8 O    2.256 --    18 C    1.062    15 C    1.016
    21   7 N    2.874 --     8 C    1.399    22 C    1.085     7 N    0.171
    22   6 C    3.920 --    23 O    1.401    24 C    1.306    21 N    1.085
    23   8 O    1.669 --    22 C    1.401    24 C    0.103
    24   6 C    3.651 --    22 C    1.306    25 O    0.959     5 C    0.926
                             3 C    0.199    23 O    0.103
    25   8 O    1.897 --    24 C    0.959    42 H    0.843
    26   1 H    1.018 --     1 C    0.981
    27   1 H    1.018 --     1 C    0.987
    28   1 H    1.014 --     1 C    0.981
    29   1 H    1.018 --     6 C    0.986
    30   1 H    1.014 --     6 C    0.987
    31   1 H    1.014 --     6 C    0.987
    32   1 H    1.009 --    10 C    0.987
    33   1 H    1.032 --    10 C    0.982
    34   1 H    1.016 --    10 C    0.985
    35   1 H    1.022 --    11 C    0.985
    36   1 H    1.017 --    11 C    0.985
    37   1 H    1.010 --    11 C    0.987
    38   1 H    0.988 --    12 N    0.879
    39   1 H    1.002 --    19 C    0.984
    40   1 H    0.999 --    19 C    0.968
    41   1 H    0.999 --    19 C    0.968
    42   1 H    0.903 --    25 O    0.843
 ---------------------------------------------------------------------------

           -------------------------------------------------
          | TOTAL ENERGY              -83.598941831408 Eh   |
          | GRADIENT NORM               0.000202823090 Eh/α |
          | HOMO-LUMO GAP               0.105584857932 eV   |
           -------------------------------------------------

 * finished run on 2023/06/20 at 17:37:06.636
