   * xtb version 6.5.1 (579679a) compiled by 'ehlert@majestix' on 2022-07-11
          program call               : /lustre/hpc/kemi/ree/PhD/git/ReactivityQM/dep/xtb-6.5.1/bin/xtb --gfn 1 /lustre/hpc/kemi/ree/PhD/git/ReactivityQM/calculations/R01/reac02prodE01/conf01/R01_reac02prodE01_conf01_gfn1.xyz --opt --vfukui --chrg -1 --uhf 0 --alpb DMSO

   ID    Z sym.   atoms
    1    6 C      1, 3, 4, 6, 8-11, 14, 16
    2    8 O      2, 5, 15, 17
    3    7 N      7, 12, 13
    4    1 H      18-33

      * Solvation model:               ALPB
        Solvent                        DMSO
        Solvent mass                       7.8130E+01 g/mol
          :  Hamiltonian                  GFN1-xTB          :
 * total energy  :   -58.5369541 Eh     change       -0.5428547E-11 Eh
 * total energy  :   -58.5442438 Eh     change       -0.7289707E-02 Eh
 * total energy  :   -58.5470775 Eh     change       -0.2833747E-02 Eh
 * total energy  :   -58.5486346 Eh     change       -0.1557106E-02 Eh
 * total energy  :   -58.5506781 Eh     change       -0.2043420E-02 Eh
 * total energy  :   -58.5523297 Eh     change       -0.1651607E-02 Eh
 * total energy  :   -58.5542572 Eh     change       -0.1927551E-02 Eh
 * total energy  :   -58.5569269 Eh     change       -0.2669678E-02 Eh
 * total energy  :   -58.5598909 Eh     change       -0.2964018E-02 Eh
 * total energy  :   -58.5572376 Eh     change        0.2653336E-02 Eh
 * total energy  :   -58.5704400 Eh     change       -0.5615757E-04 Eh
 * total energy  :   -58.5704922 Eh     change       -0.5221746E-04 Eh
 * total energy  :   -58.5705337 Eh     change       -0.4147866E-04 Eh
 * total energy  :   -58.5705716 Eh     change       -0.3798141E-04 Eh
 * total energy  :   -58.5705932 Eh     change       -0.2157803E-04 Eh
 * total energy  :   -58.5706119 Eh     change       -0.1867833E-04 Eh
 * total energy  :   -58.5706260 Eh     change       -0.1414125E-04 Eh
 * total energy  :   -58.5706354 Eh     change       -0.9321225E-05 Eh
 * total energy  :   -58.5706403 Eh     change       -0.4974489E-05 Eh
   *** GEOMETRY OPTIMIZATION CONVERGED AFTER 39 ITERATIONS ***

 final structure:
================
33
 xtb: 6.5.1 (579679a)
C            4.10953434332027        0.71824823120539        1.01667462486072
O            2.78128741651866        0.25591563187875        0.88003038018143
C            2.30157957399679        0.05177766726330       -0.47195325992344
C            2.11102920463092        1.41407831898754       -1.16514502755915
O            3.20404369843270       -0.70736482769055       -1.20729611436044
C            0.96348723764006       -0.67923317852068       -0.32516394365163
N           -0.12525586488370        0.10984240156805       -0.08550074544326
C           -1.28757957658464       -0.43433971996494        0.08553114036117
C           -2.47608935999825        0.48003443083350        0.34196928662816
C           -3.82111625615478       -0.24483081101399        0.30464522146113
C           -2.27822883263338        1.16766555545068        1.70238935424535
N           -2.49372880191216        1.52350028799563       -0.68783196455605
N           -1.43858441508818       -1.79707231536754        0.05021092680411
C           -0.41575039114280       -2.69168133154091       -0.19581316436600
O           -0.66869815429815       -3.90151800305695       -0.19976972398605
C            0.91269439397019       -2.06967215461903       -0.41300871024901
O            1.92924450565817       -2.80862252135833       -0.66639324915412
H            4.40994868998209        0.53839182224017        2.05212654375441
H            4.19235427494671        1.79491124136985        0.81307846496652
H            4.79718263392175        0.18068776236139        0.35127191561267
H            1.67715535574997        1.25082227227010       -2.14968072328950
H            3.07068371432871        1.91345578356688       -1.28176713150334
H            1.44205106508394        2.03639778114103       -0.57435668945312
H           -3.94834401569738       -0.77379379664811       -0.63926272254688
H           -4.62366178902102        0.48644178261458        0.39792368527692
H           -3.90510035201691       -0.95504397593310        1.12629895507814
H           -1.31060810826206        1.66997250231142        1.72207650158525
H           -3.06368266504113        1.90599079329732        1.86038699889531
H           -2.31177349731308        0.43329774295712        2.50651774729040
H           -2.73076647070726        1.10661253423610       -1.57860467114109
H           -1.55701933438908        1.91167984168859       -0.76973294709439
H           -2.34606179584711       -2.20528195004676        0.20065026740200
H            2.89977357280997       -1.68126979947499       -1.06324222612739

          :  Hamiltonian                  GFN1-xTB          :
         :: total energy             -58.570640327446 Eh    ::
         :: gradient norm              0.000733886442 Eh/a0 ::
         :: HOMO-LUMO gap              2.875843652277 eV    ::
         :: SCC energy               -59.100105231760 Eh    ::
         :: -> Gsolv                  -0.102391436654 Eh    ::
         :: repulsion energy           0.548524522769 Eh    ::

    * Orbital Energies and Occupations

         #    Occupation            Energy/Eh            Energy/eV
      -------------------------------------------------------------
         1        2.0000           -0.7860885             -21.3906
       ...           ...                  ...                  ...
        36        2.0000           -0.4825917             -13.1320
        37        2.0000           -0.4753890             -12.9360
        38        2.0000           -0.4708728             -12.8131
        39        2.0000           -0.4654654             -12.6660
        40        2.0000           -0.4485844             -12.2066
        41        2.0000           -0.4401770             -11.9778
        42        2.0000           -0.4345949             -11.8259
        43        2.0000           -0.4263734             -11.6022
        44        2.0000           -0.4215570             -11.4711
        45        2.0000           -0.4106464             -11.1743
        46        2.0000           -0.3933065             -10.7024
        47        2.0000           -0.3625695              -9.8660
        48        2.0000           -0.3458433              -9.4109 (HOMO)
        49                         -0.2401580              -6.5350 (LUMO)
        50                         -0.2244036              -6.1063
        51                         -0.1219846              -3.3194
        52                         -0.1178994              -3.2082
        53                         -0.1127211              -3.0673
        54                         -0.1092160              -2.9719
        55                         -0.1000083              -2.7214
        56                         -0.0834693              -2.2713
        57                         -0.0779660              -2.1216
        58                         -0.0591359              -1.6092
        59                         -0.0569046              -1.5485
       ...                                ...                  ...
       100                          0.7303655              19.8743
      -------------------------------------------------------------
                  HL-Gap            0.1056853 Eh            2.8758 eV

Wiberg/Mayer (AO) data.
largest (>0.10) Wiberg bond orders for each atom

     #   Z sym  total        # sym  WBO       # sym  WBO       # sym  WBO
 ---------------------------------------------------------------------------
     1   6 C    3.923 --    18 H    0.984    19 H    0.981    20 H    0.979
                             2 O    0.954
     2   8 O    1.978 --     1 C    0.954     3 C    0.882
     3   6 C    3.862 --     5 O    0.996     4 C    0.977     6 C    0.958
                             2 O    0.882
     4   6 C    3.996 --    23 H    0.987    21 H    0.987    22 H    0.985
                             3 C    0.977
     5   8 O    1.879 --     3 C    0.996    33 H    0.716
     6   6 C    3.939 --    16 C    1.392     7 N    1.221     3 C    0.958
                            17 O    0.138
     7   7 N    3.039 --     8 C    1.557     6 C    1.221
     8   6 C    3.928 --     7 N    1.557    13 N    1.131     9 C    0.971
     9   6 C    3.969 --    10 C    1.003    11 C    0.986    12 N    0.977
                             8 C    0.971
    10   6 C    3.996 --     9 C    1.003    26 H    0.984    24 H    0.984
                            25 H    0.984
    11   6 C    3.995 --    29 H    0.987    28 H    0.986     9 C    0.986
                            27 H    0.984
    12   7 N    2.952 --     9 C    0.977    30 H    0.948    31 H    0.944
    13   7 N    3.431 --    14 C    1.133     8 C    1.131    32 H    0.900
                            15 O    0.128
    14   6 C    3.888 --    15 O    1.532    13 N    1.133    16 C    1.034
    15   8 O    1.826 --    14 C    1.532    13 N    0.128
    16   6 C    3.957 --     6 C    1.392    17 O    1.339    14 C    1.034
    17   8 O    1.821 --    16 C    1.339    33 H    0.158     6 C    0.138
    18   1 H    1.021 --     1 C    0.984
    19   1 H    1.015 --     1 C    0.981
    20   1 H    1.022 --     1 C    0.979
    21   1 H    1.012 --     4 C    0.987
    22   1 H    1.007 --     4 C    0.985
    23   1 H    1.021 --     4 C    0.987
    24   1 H    1.001 --    10 C    0.984
    25   1 H    1.006 --    10 C    0.984
    26   1 H    1.002 --    10 C    0.984
    27   1 H    1.012 --    11 C    0.984
    28   1 H    1.008 --    11 C    0.986
    29   1 H    1.006 --    11 C    0.987
    30   1 H    0.966 --    12 N    0.948
    31   1 H    0.980 --    12 N    0.944
    32   1 H    0.953 --    13 N    0.900
    33   1 H    0.888 --     5 O    0.716    17 O    0.158
 ---------------------------------------------------------------------------

           -------------------------------------------------
          | TOTAL ENERGY              -58.570640327446 Eh   |
          | GRADIENT NORM               0.000733886442 Eh/α |
          | HOMO-LUMO GAP               2.875843652277 eV   |
           -------------------------------------------------

 * finished run on 2023/06/20 at 14:57:24.514
